MPI startup(): Warning: I_MPI_PMI_LIBRARY will be ignored since the hydra process manager was found
MPI startup(): Warning: I_MPI_PMI_LIBRARY will be ignored since the hydra process manager was found
MPI startup(): Warning: I_MPI_PMI_LIBRARY will be ignored since the hydra process manager was found
MPI startup(): Warning: I_MPI_PMI_LIBRARY will be ignored since the hydra process manager was found
MPI startup(): Warning: I_MPI_PMI_LIBRARY will be ignored since the hydra process manager was found
MPI startup(): Warning: I_MPI_PMI_LIBRARY will be ignored since the hydra process manager was found
MPI startup(): Warning: I_MPI_PMI_LIBRARY will be ignored since the hydra process manager was found
MPI startup(): Warning: I_MPI_PMI_LIBRARY will be ignored since the hydra process manager was found
MPI startup(): Warning: I_MPI_PMI_LIBRARY will be ignored since the hydra process manager was found
MPI startup(): Warning: I_MPI_PMI_LIBRARY will be ignored since the hydra process manager was found

     Program PWSCF v.7.0 starts on 25Mar2024 at 18:15:37 

     This program is part of the open-source Quantum ESPRESSO suite
     for quantum simulation of materials; please cite
         "P. Giannozzi et al., J. Phys.:Condens. Matter 21 395502 (2009);
         "P. Giannozzi et al., J. Phys.:Condens. Matter 29 465901 (2017);
         "P. Giannozzi et al., J. Chem. Phys. 152 154105 (2020);
          URL http://www.quantum-espresso.org", 
     in publications or presentations arising from this work. More details at
     http://www.quantum-espresso.org/quote

     Parallel version (MPI), running on    10 processors

     MPI processes distributed on     1 nodes
     R & G space division:  proc/nbgrp/npool/nimage =      10
     168988 MiB available memory on the printing compute node when the environment starts
 
     Reading input from 110_surface.in
Warning: card &CELL ignored
Warning: card / ignored

     Current dimensions of program PWSCF are:
     Max number of different atomic species (ntypx) = 10
     Max number of k-points (npk) =  40000
     Max angular momentum in pseudopotentials (lmaxx) =  4
     file Au.pbe-n-kjpaw_psl.1.0.0.UPF: wavefunction(s)  6S 5D renormalized
     Message from routine setup:
     using ibrav=0 with symmetry is DISCOURAGED, use correct ibrav instead

     Subspace diagonalization in iterative solution of the eigenvalue problem:
     one sub-group per band group will be used
     scalapack distributed-memory algorithm (size of sub-group:  3*  3 procs)

 
     Parallelization info
     --------------------
     sticks:   dense  smooth     PW     G-vecs:    dense   smooth      PW
     Min          67      67     20                20179    20179    3358
     Max          68      68     21                20224    20224    3391
     Sum         675     675    203               201959   201959   33723
 
     Using Slab Decomposition
 


     bravais-lattice index     =            0
     lattice parameter (alat)  =       7.7101  a.u.
     unit-cell volume          =    4224.0538 (a.u.)^3
     number of atoms/cell      =           24
     number of atomic types    =            1
     number of electrons       =       264.00
     number of Kohn-Sham states=          158
     kinetic-energy cutoff     =      50.0000  Ry
     charge density cutoff     =     200.0000  Ry
     scf convergence threshold =      1.0E-06
     mixing beta               =       0.1000
     number of iterations used =            8  plain     mixing
     Exchange-correlation= SLA  PW   PBX  PBC
                           (   1   4   3   4   0   0   0)

     celldm(1)=   7.710083  celldm(2)=   0.000000  celldm(3)=   0.000000
     celldm(4)=   0.000000  celldm(5)=   0.000000  celldm(6)=   0.000000

     crystal axes: (cart. coord. in units of alat)
               a(1) = (   1.000000   0.000000   0.000000 )  
               a(2) = (   0.000000   0.707107   0.000000 )  
               a(3) = (   0.000000   0.000000  13.033689 )  

     reciprocal axes: (cart. coord. in units 2 pi/alat)
               b(1) = (  1.000000  0.000000  0.000000 )  
               b(2) = (  0.000000  1.414214  0.000000 )  
               b(3) = (  0.000000  0.000000  0.076724 )  


     PseudoPot. # 1 for Au read from file:
     ./Au.pbe-n-kjpaw_psl.1.0.0.UPF
     MD5 check sum: 4db85c736373c707a97ce4c36c2a9d23
     Pseudo is Projector augmented-wave + core cor, Zval = 11.0
     Generated using &quot;atomic&quot; code by A. Dal Corso  v.6.3
     Shape of augmentation charge: PSQ
     Using radial grid of 1279 points,  6 beta functions with: 
                l(1) =   0
                l(2) =   0
                l(3) =   1
                l(4) =   1
                l(5) =   2
                l(6) =   2
     Q(r) pseudized with 0 coefficients 


     atomic species   valence    mass     pseudopotential
        Au            11.00   196.96657     Au( 1.00)

      8 Sym. Ops., with inversion, found ( 4 have fractional translation)



   Cartesian axes

     site n.     atom                  positions (alat units)
         1           Au  tau(   1) = (   0.5000000   0.3535534   2.4509804  )
         2           Au  tau(   2) = (   0.0000000   0.0000000   2.8045338  )
         3           Au  tau(   3) = (   0.5000000   0.3535534   3.1580872  )
         4           Au  tau(   4) = (   0.0000000   0.0000000   3.5116406  )
         5           Au  tau(   5) = (   0.5000000   0.3535534   3.8651940  )
         6           Au  tau(   6) = (   0.0000000   0.0000000   4.2187473  )
         7           Au  tau(   7) = (   0.5000000   0.3535534   4.5723007  )
         8           Au  tau(   8) = (   0.0000000   0.0000000   4.9258541  )
         9           Au  tau(   9) = (   0.5000000   0.3535534   5.2794075  )
        10           Au  tau(  10) = (   0.0000000   0.0000000   5.6329609  )
        11           Au  tau(  11) = (   0.5000000   0.3535534   5.9865143  )
        12           Au  tau(  12) = (   0.0000000   0.0000000   6.3400677  )
        13           Au  tau(  13) = (   0.5000000   0.3535534   6.6936211  )
        14           Au  tau(  14) = (   0.0000000   0.0000000   7.0471745  )
        15           Au  tau(  15) = (   0.5000000   0.3535534   7.4007279  )
        16           Au  tau(  16) = (   0.0000000   0.0000000   7.7542813  )
        17           Au  tau(  17) = (   0.5000000   0.3535534   8.1078346  )
        18           Au  tau(  18) = (   0.0000000   0.0000000   8.4613880  )
        19           Au  tau(  19) = (   0.5000000   0.3535534   8.8149414  )
        20           Au  tau(  20) = (   0.0000000   0.0000000   9.1684948  )
        21           Au  tau(  21) = (   0.5000000   0.3535534   9.5220482  )
        22           Au  tau(  22) = (   0.0000000   0.0000000   9.8756016  )
        23           Au  tau(  23) = (   0.5000000   0.3535534  10.2291550  )
        24           Au  tau(  24) = (   0.0000000   0.0000000  10.5827084  )

     number of k points=    35  Gaussian smearing, width (Ry)=  0.2000
                       cart. coord. in units 2pi/alat
        k(    1) = (   0.0000000   0.0000000   0.0000000), wk =   0.0208333
        k(    2) = (   0.0000000   0.1178511   0.0000000), wk =   0.0416667
        k(    3) = (   0.0000000   0.2357023   0.0000000), wk =   0.0416667
        k(    4) = (   0.0000000   0.3535534   0.0000000), wk =   0.0416667
        k(    5) = (   0.0000000   0.4714045   0.0000000), wk =   0.0416667
        k(    6) = (   0.0000000   0.5892557   0.0000000), wk =   0.0416667
        k(    7) = (   0.0000000  -0.7071068   0.0000000), wk =   0.0208333
        k(    8) = (   0.1250000   0.0000000   0.0000000), wk =   0.0416667
        k(    9) = (   0.1250000   0.1178511   0.0000000), wk =   0.0833333
        k(   10) = (   0.1250000   0.2357023   0.0000000), wk =   0.0833333
        k(   11) = (   0.1250000   0.3535534   0.0000000), wk =   0.0833333
        k(   12) = (   0.1250000   0.4714045   0.0000000), wk =   0.0833333
        k(   13) = (   0.1250000   0.5892557   0.0000000), wk =   0.0833333
        k(   14) = (   0.1250000  -0.7071068   0.0000000), wk =   0.0416667
        k(   15) = (   0.2500000   0.0000000   0.0000000), wk =   0.0416667
        k(   16) = (   0.2500000   0.1178511   0.0000000), wk =   0.0833333
        k(   17) = (   0.2500000   0.2357023   0.0000000), wk =   0.0833333
        k(   18) = (   0.2500000   0.3535534   0.0000000), wk =   0.0833333
        k(   19) = (   0.2500000   0.4714045   0.0000000), wk =   0.0833333
        k(   20) = (   0.2500000   0.5892557   0.0000000), wk =   0.0833333
        k(   21) = (   0.2500000  -0.7071068   0.0000000), wk =   0.0416667
        k(   22) = (   0.3750000   0.0000000   0.0000000), wk =   0.0416667
        k(   23) = (   0.3750000   0.1178511   0.0000000), wk =   0.0833333
        k(   24) = (   0.3750000   0.2357023   0.0000000), wk =   0.0833333
        k(   25) = (   0.3750000   0.3535534   0.0000000), wk =   0.0833333
        k(   26) = (   0.3750000   0.4714045   0.0000000), wk =   0.0833333
        k(   27) = (   0.3750000   0.5892557   0.0000000), wk =   0.0833333
        k(   28) = (   0.3750000  -0.7071068   0.0000000), wk =   0.0416667
        k(   29) = (  -0.5000000   0.0000000   0.0000000), wk =   0.0208333
        k(   30) = (  -0.5000000   0.1178511   0.0000000), wk =   0.0416667
        k(   31) = (  -0.5000000   0.2357023   0.0000000), wk =   0.0416667
        k(   32) = (  -0.5000000   0.3535534   0.0000000), wk =   0.0416667
        k(   33) = (  -0.5000000   0.4714045   0.0000000), wk =   0.0416667
        k(   34) = (  -0.5000000   0.5892557   0.0000000), wk =   0.0416667
        k(   35) = (  -0.5000000  -0.7071068   0.0000000), wk =   0.0208333

     Dense  grid:   201959 G-vectors     FFT dimensions: (  36,  30, 480)

     Estimated max dynamical RAM per process >     327.68 MB

     Estimated total dynamical RAM >       3.20 GB

     Initial potential from superposition of free atoms

     starting charge     263.9974, renormalised to     264.0000

     negative rho (up, down):  6.170E-03 0.000E+00
     Starting wfcs are  216 randomized atomic wfcs
     Checking if some PAW data can be deallocated... 

     total cpu time spent up to now is       18.6 secs

     Self-consistent Calculation

     iteration #  1     ecut=    50.00 Ry     beta= 0.10
     Davidson diagonalization with overlap
     ethr =  1.00E-02,  avg # of iterations =  5.7

     negative rho (up, down):  3.962E-03 0.000E+00

     total cpu time spent up to now is       66.8 secs

     total energy              =  -18604.22885754 Ry
     estimated scf accuracy    <       2.76522275 Ry

     iteration #  2     ecut=    50.00 Ry     beta= 0.10
     Davidson diagonalization with overlap
     c_bands:  4 eigenvalues not converged
     ethr =  1.05E-03,  avg # of iterations = 12.9

     negative rho (up, down):  3.965E-03 0.000E+00

     total cpu time spent up to now is      137.3 secs

     total energy              =  -18602.62798125 Ry
     estimated scf accuracy    <     367.22236509 Ry

     iteration #  3     ecut=    50.00 Ry     beta= 0.10
     Davidson diagonalization with overlap
     ethr =  1.05E-03,  avg # of iterations = 10.2

     negative rho (up, down):  3.890E-03 0.000E+00

     total cpu time spent up to now is      196.2 secs

     total energy              =  -18604.72113304 Ry
     estimated scf accuracy    <       3.02742591 Ry

     iteration #  4     ecut=    50.00 Ry     beta= 0.10
     Davidson diagonalization with overlap
     ethr =  1.05E-03,  avg # of iterations =  1.3

     negative rho (up, down):  3.512E-03 0.000E+00

     total cpu time spent up to now is      231.8 secs

     total energy              =  -18604.60278309 Ry
     estimated scf accuracy    <       1.40669939 Ry

     iteration #  5     ecut=    50.00 Ry     beta= 0.10
     Davidson diagonalization with overlap
     ethr =  5.33E-04,  avg # of iterations =  1.3

     negative rho (up, down):  2.792E-03 0.000E+00

     total cpu time spent up to now is      266.7 secs

     total energy              =  -18604.31031176 Ry
     estimated scf accuracy    <       0.73804493 Ry

     iteration #  6     ecut=    50.00 Ry     beta= 0.10
     Davidson diagonalization with overlap
     ethr =  2.80E-04,  avg # of iterations =  2.8

     negative rho (up, down):  2.890E-03 0.000E+00

     total cpu time spent up to now is      315.9 secs

     total energy              =  -18604.44248119 Ry
     estimated scf accuracy    <       0.10945043 Ry

     iteration #  7     ecut=    50.00 Ry     beta= 0.10
     Davidson diagonalization with overlap
     c_bands:  1 eigenvalues not converged
     ethr =  4.15E-05,  avg # of iterations =  8.8

     negative rho (up, down):  3.038E-03 0.000E+00

     total cpu time spent up to now is      390.2 secs

     total energy              =  -18604.47792888 Ry
     estimated scf accuracy    <       0.02552517 Ry

     iteration #  8     ecut=    50.00 Ry     beta= 0.10
     Davidson diagonalization with overlap
     c_bands:  1 eigenvalues not converged
     c_bands:  1 eigenvalues not converged
     ethr =  9.67E-06,  avg # of iterations =  9.9

     negative rho (up, down):  2.758E-03 0.000E+00

     total cpu time spent up to now is      458.5 secs

     total energy              =  -18604.48986498 Ry
     estimated scf accuracy    <       0.02151254 Ry

     iteration #  9     ecut=    50.00 Ry     beta= 0.10
     Davidson diagonalization with overlap
     c_bands:  1 eigenvalues not converged
     ethr =  8.15E-06,  avg # of iterations =  4.5

     negative rho (up, down):  3.525E-03 0.000E+00

     total cpu time spent up to now is      508.2 secs

     total energy              =  -18604.48383680 Ry
     estimated scf accuracy    <       0.04781384 Ry

     iteration # 10     ecut=    50.00 Ry     beta= 0.10
     Davidson diagonalization with overlap
     c_bands:  1 eigenvalues not converged
     ethr =  8.15E-06,  avg # of iterations =  7.8

     negative rho (up, down):  3.551E-03 0.000E+00

     total cpu time spent up to now is      559.2 secs

     total energy              =  -18604.48181867 Ry
     estimated scf accuracy    <       0.01253727 Ry

     iteration # 11     ecut=    50.00 Ry     beta= 0.10
     Davidson diagonalization with overlap
     ethr =  4.75E-06,  avg # of iterations =  1.7

     negative rho (up, down):  3.674E-03 0.000E+00

     total cpu time spent up to now is      595.0 secs

     total energy              =  -18604.47974498 Ry
     estimated scf accuracy    <       0.00477848 Ry

     iteration # 12     ecut=    50.00 Ry     beta= 0.10
     Davidson diagonalization with overlap
     c_bands:  1 eigenvalues not converged
     c_bands:  1 eigenvalues not converged
     c_bands:  2 eigenvalues not converged
     ethr =  1.81E-06,  avg # of iterations =  5.5

     negative rho (up, down):  3.630E-03 0.000E+00

     total cpu time spent up to now is      654.7 secs

     total energy              =  -18604.48128631 Ry
     estimated scf accuracy    <       0.00016552 Ry

     iteration # 13     ecut=    50.00 Ry     beta= 0.10
     Davidson diagonalization with overlap
     c_bands:  2 eigenvalues not converged
     ethr =  6.27E-08,  avg # of iterations =  9.4

     negative rho (up, down):  3.615E-03 0.000E+00

     total cpu time spent up to now is      774.9 secs

     total energy              =  -18604.48150344 Ry
     estimated scf accuracy    <       0.00010275 Ry

     iteration # 14     ecut=    50.00 Ry     beta= 0.10
     Davidson diagonalization with overlap
     ethr =  3.89E-08,  avg # of iterations =  1.6

     negative rho (up, down):  3.629E-03 0.000E+00

     total cpu time spent up to now is      811.7 secs

     total energy              =  -18604.48154209 Ry
     estimated scf accuracy    <       0.00007116 Ry

     iteration # 15     ecut=    50.00 Ry     beta= 0.10
     Davidson diagonalization with overlap
     ethr =  2.70E-08,  avg # of iterations =  2.3

     negative rho (up, down):  3.611E-03 0.000E+00

     total cpu time spent up to now is      854.7 secs

     total energy              =  -18604.48150904 Ry
     estimated scf accuracy    <       0.00012304 Ry

     iteration # 16     ecut=    50.00 Ry     beta= 0.10
     Davidson diagonalization with overlap
     ethr =  2.70E-08,  avg # of iterations =  1.1

     negative rho (up, down):  3.601E-03 0.000E+00

     total cpu time spent up to now is      889.4 secs

     total energy              =  -18604.48149071 Ry
     estimated scf accuracy    <       0.00005572 Ry

     iteration # 17     ecut=    50.00 Ry     beta= 0.10
     Davidson diagonalization with overlap
     ethr =  2.11E-08,  avg # of iterations =  1.8

     negative rho (up, down):  3.597E-03 0.000E+00

     total cpu time spent up to now is      928.0 secs

     total energy              =  -18604.48149295 Ry
     estimated scf accuracy    <       0.00001624 Ry

     iteration # 18     ecut=    50.00 Ry     beta= 0.10
     Davidson diagonalization with overlap
     ethr =  6.15E-09,  avg # of iterations =  3.1

     negative rho (up, down):  3.585E-03 0.000E+00

     total cpu time spent up to now is      970.2 secs

     total energy              =  -18604.48148886 Ry
     estimated scf accuracy    <       0.00000779 Ry

     iteration # 19     ecut=    50.00 Ry     beta= 0.10
     Davidson diagonalization with overlap
     ethr =  2.95E-09,  avg # of iterations =  5.3

     negative rho (up, down):  3.573E-03 0.000E+00

     total cpu time spent up to now is     1040.1 secs

     total energy              =  -18604.48149354 Ry
     estimated scf accuracy    <       0.00000101 Ry

     iteration # 20     ecut=    50.00 Ry     beta= 0.10
     Davidson diagonalization with overlap
     ethr =  3.82E-10,  avg # of iterations =  7.4

     negative rho (up, down):  3.561E-03 0.000E+00

     total cpu time spent up to now is     1131.8 secs

     End of self-consistent calculation

          k = 0.0000 0.0000 0.0000 ( 25211 PWs)   bands (ev):

    -1.5506  -1.4285  -1.2301  -0.9619  -0.6326  -0.2526   0.1652   0.6048
     1.0460   1.1532   1.2302   1.3377   1.4449   1.4632   1.4660   1.5214
     1.5981   1.6566   1.7411   1.8074   1.8709   1.8900   2.0376   2.0581
     2.1197   2.1795   2.2236   2.3201   2.4593   2.5301   2.6859   2.8751
     2.8752   2.8953   2.9316   2.9316   3.0198   3.0210   3.0697   3.1312
     3.1362   3.1984   3.2535   3.2659   3.3086   3.3715   3.3861   3.4198
     3.4533   3.4817   3.4872   3.4872   3.5224   3.5285   3.5419   3.5888
     3.6219   3.6292   3.6368   3.6790   3.7099   3.7172   3.7760   3.7882
     3.7910   3.8090   3.8405   3.9228   4.0717   4.0949   4.1809   4.1810
     4.2352   4.3569   4.3575   4.3972   4.4054   4.4078   4.4105   4.4822
     4.4873   4.5818   4.5892   4.5949   4.6971   4.7040   4.7414   4.7853
     4.8182   4.8184   4.9129   4.9315   4.9713   4.9753   4.9789   4.9867
     5.0151   5.0614   5.0700   5.1178   5.1611   5.1728   5.1950   5.3000
     5.3550   5.3640   5.4966   5.5105   5.5316   5.5496   5.7099   5.7265
     5.7527   5.8736   5.8917   5.8920   6.0062   6.0423   6.0649   6.0931
     6.1231   6.1756   6.2154   6.2891   6.3803   6.4234   6.4328   6.4475
     6.4909   6.4990   6.8592   7.3460   7.8921   8.4933   9.1421   9.4914
     9.8276   9.8884  10.4445  10.5350  11.0988  11.2431  11.8187  11.9222
    12.5322  12.5864  13.0160  13.3502  13.3848  13.3912  13.6843  13.7669
    13.9855  13.9967  14.2258  14.4154  14.9456  15.0847

          k = 0.0000 0.1179 0.0000 ( 25241 PWs)   bands (ev):

    -1.3892  -1.2678  -1.0708  -0.8051  -0.4797  -0.1055   0.3042   0.7332
     1.1622   1.2566   1.3405   1.4561   1.5388   1.5723   1.5880   1.6073
     1.7240   1.7342   1.8699   1.8943   1.9600   2.0271   2.1267   2.1850
     2.2476   2.3392   2.3638   2.4159   2.5543   2.6112   2.7122   2.7241
     2.7242   2.7800   2.7804   2.8393   2.8688   2.8689   2.9312   2.9822
     2.9843   3.0354   3.1119   3.1162   3.1673   3.2463   3.2512   3.2917
     3.3655   3.3787   3.3964   3.4716   3.4971   3.5311   3.5586   3.6019
     3.6088   3.6179   3.6414   3.7010   3.7283   3.7323   3.7712   3.7908
     3.8298   3.8549   3.9087   3.9162   4.0604   4.1411   4.1429   4.1460
     4.2427   4.3555   4.5034   4.5470   4.5661   4.5665   4.5929   4.6001
     4.6311   4.6316   4.6616   4.6840   4.7094   4.7232   4.7429   4.7819
     4.7897   4.8158   4.8679   4.8729   4.9512   4.9773   4.9774   5.0207
     5.0468   5.0917   5.0974   5.0992   5.1631   5.1833   5.2114   5.2757
     5.3148   5.3161   5.4372   5.4991   5.5164   5.5266   5.6133   5.7107
     5.7277   5.7908   5.8115   5.8922   5.8983   5.9841   6.0031   6.0263
     6.0724   6.1559   6.1915   6.2493   6.3275   6.4158   6.4391   6.4722
     6.4791   6.4985   6.8792   7.3878   7.9613   8.5924   9.2703   9.9811
    10.0919  10.4028  10.7066  10.8680  11.4216  11.4442  12.0911  12.1007
    12.6701  12.8168  13.1109  13.4143  13.4753  13.5791  13.6900  13.7248
    13.8451  14.0078  14.3780  14.4648  15.0007  15.2062

          k = 0.0000 0.2357 0.0000 ( 25252 PWs)   bands (ev):

    -0.9216  -0.8033  -0.6123  -0.3571  -0.0488   0.2988   0.6690   1.0429
     1.4007   1.4867   1.5822   1.7060   1.7417   1.8581   1.8687   1.9094
     1.9968   2.0085   2.0157   2.1400   2.1551   2.2242   2.2805   2.3526
     2.3667   2.3905   2.3908   2.4167   2.4471   2.4483   2.4521   2.5381
     2.5399   2.5613   2.6590   2.6600   2.7161   2.8011   2.8018   2.8042
     2.8668   2.9501   2.9559   2.9639   3.0539   3.1183   3.1197   3.1802
     3.2307   3.3030   3.3149   3.4334   3.4698   3.4784   3.5010   3.6154
     3.6385   3.7271   3.7324   3.7550   3.7733   3.7968   3.8943   3.8956
     3.9073   3.9386   4.0300   4.0419   4.0820   4.1225   4.2122   4.2422
     4.3003   4.3102   4.4040   4.4805   4.5020   4.5284   4.5457   4.6167
     4.7006   4.7019   4.7185   4.7919   4.8632   4.8865   4.9067   4.9088
     4.9310   4.9585   4.9860   5.0178   5.0236   5.0357   5.0732   5.0751
     5.0944   5.1197   5.1279   5.1327   5.1486   5.2196   5.2224   5.2387
     5.2809   5.3261   5.3550   5.4087   5.4186   5.4981   5.5321   5.5847
     5.6267   5.6859   5.7321   5.7472   5.8135   5.8536   5.9678   6.0606
     6.0868   6.2107   6.3193   6.3396   6.4118   6.4210   6.4472   6.4743
     6.4805   6.4990   6.9373   7.5158   8.1681   8.8784   9.6298  10.4031
    11.1729  11.4000  11.6063  11.9003  11.9344  12.3665  12.5239  12.8855
    12.9709  13.2160  13.3069  13.3143  13.3244  13.4763  13.7312  13.7992
    14.1262  14.1840  14.6280  14.8247  15.1214  15.2796

          k = 0.0000 0.3536 0.0000 ( 25290 PWs)   bands (ev):

    -0.2013  -0.0910   0.0837   0.3096   0.5683   0.8371   1.0922   1.3146
     1.4966   1.6429   1.7602   1.7646   1.8582   1.8721   1.9712   1.9963
     2.0264   2.0266   2.0618   2.0841   2.0853   2.1245   2.1405   2.1768
     2.1799   2.1910   2.2026   2.2174   2.3004   2.3064   2.3581   2.3889
     2.4498   2.4507   2.4587   2.5714   2.6200   2.6278   2.7715   2.7997
     2.8059   2.9542   2.9928   3.0024   3.0724   3.0957   3.1345   3.2457
     3.3076   3.4619   3.5198   3.6729   3.6933   3.8304   3.8337   3.8554
     3.8803   3.9383   3.9478   3.9576   4.0327   4.0461   4.0556   4.0692
     4.1284   4.1516   4.1922   4.1926   4.2112   4.2425   4.2503   4.2543
     4.3166   4.4375   4.4777   4.4786   4.5438   4.5519   4.5784   4.6119
     4.6162   4.7064   4.7934   4.8301   4.8745   4.8925   4.8934   4.9645
     4.9778   4.9897   5.0207   5.1079   5.1212   5.1601   5.1688   5.2354
     5.2422   5.3062   5.3186   5.3357   5.3455   5.3838   5.4303   5.4321
     5.4628   5.4909   5.5001   5.5502   5.5681   5.5712   5.6423   5.6529
     5.7145   5.7413   5.7969   5.7978   5.9380   6.0155   6.0656   6.1093
     6.1849   6.2336   6.3088   6.3451   6.4110   6.4282   6.4513   6.4748
     6.4806   6.4975   7.0475   7.7441   8.5084   9.3190  10.1582  11.0068
    11.8343  12.2358  12.3522  12.5129  12.5785  12.7294  12.9356  12.9821
    12.9967  13.1349  13.3596  13.6640  13.8623  13.8658  14.0409  14.4357
    14.4830  14.5160  14.5540  14.7884  14.9833  14.9857

          k = 0.0000 0.4714 0.0000 ( 25296 PWs)   bands (ev):

     0.6730   0.7670   0.9057   1.0627   1.2044   1.3036   1.3544   1.3748
     1.3927   1.4241   1.4728   1.5408   1.6290   1.7173   1.7175   1.7369
     1.7757   1.7764   1.8618   1.8701   1.8713   1.9971   1.9979   1.9986
     2.0591   2.1380   2.1507   2.1524   2.1678   2.2658   2.3065   2.3224
     2.3310   2.3505   2.5036   2.5256   2.6825   2.7216   2.7557   2.7811
     2.8239   2.8490   2.8621   2.8677   3.0190   3.1266   3.2222   3.2266
     3.2274   3.4241   3.4655   3.5974   3.6997   3.7088   3.7624   3.7789
     3.7872   3.8216   3.8624   3.9980   4.1723   4.2207   4.2628   4.3863
     4.4684   4.4848   4.5504   4.5542   4.6061   4.7125   4.7334   4.7493
     4.8343   4.8662   4.8674   4.8808   4.8988   4.9222   4.9234   4.9515
     4.9799   5.0733   5.0778   5.0914   5.0998   5.1123   5.2177   5.2294
     5.2428   5.2945   5.3038   5.3706   5.3836   5.4324   5.4650   5.5365
     5.5709   5.5851   5.6222   5.7496   5.7504   5.7605   5.7997   5.8026
     5.8055   5.8344   5.8519   5.8706   5.8772   5.8793   5.8927   5.9143
     5.9155   5.9594   5.9595   5.9801   6.0154   6.0224   6.0361   6.1120
     6.1739   6.2479   6.3054   6.3581   6.4063   6.4364   6.4698   6.4815
     6.4937   6.5398   7.2990   8.1184   8.9741   9.8506  10.7295  10.7760
    10.9085  11.1085  11.3772  11.5869  11.7106  12.0425  12.3971  12.4185
    12.9767  13.1864  13.6330  13.9462  14.2244  14.5791  14.7536  14.8019
    14.8439  14.9914  15.0133  15.1923  15.2488  15.3265

          k = 0.0000 0.5893 0.0000 ( 25252 PWs)   bands (ev):

     1.2197   1.2202   1.2770   1.2787   1.3683   1.3715   1.4869   1.4907
     1.5133   1.5136   1.5412   1.5713   1.5729   1.6122   1.6189   1.6253
     1.6651   1.6689   1.6942   1.7189   1.7590   1.7907   1.7978   1.8767
     1.9435   1.9552   2.0397   2.1173   2.1350   2.2338   2.2922   2.3051
     2.3294   2.4290   2.4475   2.4979   2.5260   2.6287   2.6864   2.6967
     2.7020   2.8205   2.8658   2.8731   2.9673   3.0304   3.0460   3.1672
     3.2429   3.2528   3.3399   3.4180   3.4499   3.5596   3.5602   3.5810
     3.7145   3.7448   3.8462   4.0874   4.2428   4.4160   4.5412   4.5503
     4.6230   4.6265   4.6625   4.7278   4.7404   4.7959   4.8258   4.9016
     4.9797   5.0195   5.0405   5.0813   5.1617   5.2341   5.2353   5.2606
     5.3387   5.3905   5.4258   5.4499   5.4708   5.5012   5.5278   5.5878
     5.6244   5.6590   5.7110   5.7198   5.7264   5.8016   5.8069   5.8355
     5.8498   5.8882   5.9447   5.9730   5.9781   6.0088   6.0111   6.0208
     6.0552   6.0815   6.1029   6.1306   6.1553   6.1656   6.2212   6.2476
     6.2658   6.2971   6.3719   6.3972   6.4444   6.4614   6.4829   6.4890
     6.7743   6.7744   6.7794   6.7803   6.7865   6.8155   6.8861   6.9940
     7.1424   7.4667   8.0428   8.7510   9.2749   9.3641   9.4822   9.5124
     9.7104   9.9226  10.1629  10.1856  10.4660  10.5990  10.8066  10.8682
    12.5738  12.5821  13.9372  14.0067  14.4097  14.5700  14.9762  15.1283
    15.4922  15.5632  15.7063  15.7721  15.8208  15.8377

          k = 0.0000-0.7071 0.0000 ( 25180 PWs)   bands (ev):

     1.1476   1.1476   1.2133   1.2133   1.3198   1.3198   1.4424   1.4424
     1.4631   1.4631   1.5011   1.5011   1.5959   1.5959   1.6381   1.6381
     1.7233   1.7233   1.8375   1.8375   1.8784   1.8784   2.0482   2.0482
     2.0556   2.0556   2.1656   2.1656   2.2401   2.2401   2.2475   2.2475
     2.2613   2.2613   2.3755   2.3755   2.4445   2.4445   2.6337   2.6337
     2.7967   2.7967   2.8920   2.8920   2.9100   2.9100   3.0821   3.0821
     3.1519   3.1519   3.2318   3.2318   3.4832   3.4832   3.4928   3.4928
     3.6978   3.6978   3.9627   3.9627   4.4416   4.4416   4.4545   4.4545
     4.6046   4.6046   4.8258   4.8258   4.9728   4.9728   5.0116   5.0116
     5.0645   5.0645   5.1187   5.1187   5.2702   5.2702   5.2982   5.2982
     5.4459   5.4459   5.4711   5.4711   5.5150   5.5150   5.6317   5.6317
     5.7046   5.7046   5.8169   5.8169   5.8656   5.8656   5.8824   5.8824
     5.9925   5.9925   5.9985   5.9985   6.0743   6.0743   6.1115   6.1115
     6.1469   6.1469   6.1504   6.1504   6.2832   6.2832   6.3202   6.3202
     6.3853   6.3853   6.4526   6.4526   6.4643   6.4643   6.4852   6.4852
     7.9205   7.9205   7.9616   7.9616   8.0286   8.0286   8.1203   8.1203
     8.2349   8.2349   8.3707   8.3707   8.5267   8.5267   8.7015   8.7015
     8.8924   8.8924   9.0899   9.0899   9.2641   9.2641   9.8129   9.8129
    12.3783  12.3783  14.2183  14.2183  14.6911  14.6911  15.2859  15.2859
    15.8666  15.8666  16.3411  16.3411  16.6693  16.6693

          k = 0.1250 0.0000 0.0000 ( 25179 PWs)   bands (ev):

    -1.3693  -1.2502  -1.0575  -0.7991  -0.4856  -0.1304   0.2490   0.6315
     0.9924   1.2162   1.2935   1.3090   1.4006   1.5123   1.5164   1.5662
     1.5904   1.6385   1.7153   1.7614   1.7756   1.8775   1.8962   1.9295
     1.9713   1.9899   2.1346   2.2917   2.3644   2.5004   2.7119   2.8803
     2.9848   3.0729   3.1396   3.1421   3.1568   3.1889   3.1995   3.2251
     3.2406   3.2616   3.3105   3.3553   3.3867   3.3891   3.5033   3.5034
     3.5610   3.5664   3.5923   3.6202   3.6295   3.6409   3.6417   3.6940
     3.7039   3.7051   3.7174   3.7488   3.7583   3.7648   3.7765   3.7866
     3.8364   3.8479   3.8811   3.9017   3.9101   3.9586   4.0002   4.0298
     4.0475   4.1090   4.1890   4.2655   4.2894   4.2896   4.2948   4.4105
     4.5483   4.5741   4.6949   4.7702   4.7773   4.8242   4.8288   4.8625
     4.8784   4.8961   4.9075   4.9134   4.9157   4.9404   4.9795   4.9926
     4.9971   5.0050   5.0576   5.1026   5.1326   5.2069   5.2355   5.2737
     5.3182   5.3819   5.4296   5.4469   5.5637   5.5917   5.6930   5.7044
     5.7410   5.7518   5.9016   5.9028   6.0148   6.0301   6.0310   6.0349
     6.0924   6.1669   6.2515   6.2559   6.3213   6.3376   6.3520   6.3851
     6.4031   6.4049   6.8215   7.3278   7.9037   8.3431   8.5465   8.7385
     9.2408   9.2523   9.8213   9.9729  10.4148  10.7099  11.0211  11.3381
    11.8880  12.2243  12.4920  12.8747  13.1132  13.4443  13.4907  13.8080
    13.8636  14.1204  14.4556  14.5810  14.8035  15.1310

          k = 0.1250 0.1179 0.0000 ( 25213 PWs)   bands (ev):

    -1.2121  -1.0933  -0.9013  -0.6442  -0.3331   0.0182   0.3917   0.7656
     1.1152   1.3211   1.4072   1.4188   1.5265   1.6031   1.6456   1.6653
     1.6769   1.7736   1.7890   1.8712   1.9045   1.9647   2.0271   2.0327
     2.1239   2.1253   2.1948   2.3650   2.4403   2.5402   2.6928   2.7985
     2.8917   2.9723   2.9748   2.9960   3.0340   3.0386   3.0910   3.1243
     3.1287   3.1762   3.2198   3.2327   3.2915   3.3306   3.3781   3.4035
     3.4637   3.4687   3.5080   3.5408   3.5914   3.5963   3.6163   3.6234
     3.6477   3.6845   3.7004   3.7197   3.7374   3.7642   3.7963   3.8171
     3.8187   3.8464   3.9003   3.9009   3.9696   3.9939   4.0676   4.0846
     4.1622   4.1703   4.1809   4.2208   4.3003   4.3172   4.3831   4.4593
     4.5596   4.5963   4.6816   4.7072   4.7169   4.7599   4.7962   4.8017
     4.8551   4.8782   4.8897   4.9076   4.9695   4.9899   4.9990   5.0504
     5.0761   5.1081   5.1272   5.1606   5.1846   5.2384   5.2901   5.2902
     5.3763   5.3794   5.4698   5.4756   5.5727   5.5788   5.6210   5.6982
     5.7332   5.7830   5.8185   5.8847   5.9415   5.9416   6.0078   6.0162
     6.0837   6.1313   6.1592   6.1959   6.2634   6.3060   6.3284   6.3499
     6.3682   6.4068   6.8565   7.3931   8.0017   8.6705   8.9392   9.2098
     9.3995   9.6169  10.0956  10.1438  10.6155  10.8740  11.1651  11.4404
    12.1037  12.3351  12.7305  12.9527  13.3319  13.5192  13.6143  13.9566
    14.0354  14.1667  14.5825  14.7031  14.8407  15.1402

          k = 0.1250 0.2357 0.0000 ( 25209 PWs)   bands (ev):

    -0.7613  -0.6442  -0.4557  -0.2053   0.0943   0.4264   0.7700   1.0997
     1.3894   1.5418   1.6229   1.6430   1.7930   1.8054   1.9260   1.9539
     1.9602   1.9733   2.0534   2.0993   2.1071   2.1909   2.2294   2.2571
     2.3537   2.3875   2.4070   2.4945   2.5651   2.5700   2.6044   2.6165
     2.6217   2.6781   2.6794   2.7086   2.7487   2.7488   2.7837   2.8418
     2.9268   3.0189   3.1154   3.1486   3.1520   3.2103   3.3023   3.3156
     3.3220   3.3258   3.3668   3.3714   3.4568   3.4626   3.5709   3.5940
     3.6846   3.7253   3.7256   3.7555   3.7902   3.7907   3.8023   3.8570
     3.8627   3.8877   3.9079   3.9196   3.9834   4.0333   4.1213   4.1657
     4.2413   4.2720   4.3235   4.3486   4.4059   4.4508   4.5468   4.5646
     4.5801   4.5869   4.6542   4.6791   4.7075   4.7302   4.7720   4.7728
     4.7993   4.8199   4.8213   4.9062   4.9218   4.9555   4.9808   5.0226
     5.0604   5.0898   5.1785   5.1827   5.2391   5.2984   5.3275   5.3697
     5.4014   5.4536   5.4845   5.5195   5.5564   5.5649   5.6730   5.7052
     5.7726   5.8056   5.8452   5.8623   5.9264   5.9623   6.0223   6.0374
     6.0971   6.1567   6.2233   6.2705   6.3070   6.3082   6.3095   6.3472
     6.3580   6.4517   6.9796   7.6023   8.2917   9.0320   9.8037  10.0580
    10.2198  10.4457  10.6030  10.7650  11.1208  11.2881  11.5268  11.7005
    12.6789  12.6859  13.1996  13.3741  13.6867  13.9229  14.0295  14.2735
    14.4232  14.4742  14.5076  14.5828  14.6908  14.8041

          k = 0.1250 0.3536 0.0000 ( 25250 PWs)   bands (ev):

    -0.0863   0.0256   0.2030   0.4325   0.6951   0.9660   1.2159   1.4178
     1.5585   1.6506   1.7247   1.7817   1.8048   1.8862   1.9013   2.0049
     2.0479   2.1175   2.2030   2.2034   2.2078   2.2122   2.2530   2.2642
     2.2864   2.2942   2.3245   2.3354   2.4102   2.4182   2.4264   2.4479
     2.4934   2.5149   2.5259   2.5876   2.6469   2.6599   2.7709   2.8080
     2.8184   2.9761   2.9834   3.0266   3.1154   3.1624   3.1896   3.2085
     3.3342   3.3733   3.5442   3.5748   3.7152   3.7597   3.8116   3.8338
     3.8420   3.8510   3.8642   3.8730   3.8820   3.9174   3.9242   3.9253
     3.9389   3.9803   3.9997   4.0008   4.0517   4.0528   4.1363   4.1786
     4.2181   4.3739   4.3758   4.4344   4.6700   4.7573   4.7592   4.7763
     4.7813   4.8181   4.8206   4.8508   4.8560   4.8940   4.8969   4.9055
     4.9129   4.9494   4.9731   5.0058   5.0165   5.0521   5.0629   5.0729
     5.0909   5.0982   5.1008   5.1398   5.2080   5.2254   5.2699   5.3225
     5.3982   5.4658   5.5352   5.5719   5.6694   5.7308   5.7878   5.8423
     5.9386   5.9665   6.0726   6.0927   6.1479   6.1668   6.1710   6.1900
     6.1918   6.2132   6.2357   6.2610   6.2711   6.2871   6.3061   6.3365
     6.3414   6.6303   7.2654   7.9802   8.7510   9.5602  10.3871  11.1873
    11.2326  11.3021  11.4193  11.5587  11.7439  11.8340  11.9887  12.0900
    12.9691  13.1380  13.2068  13.3406  13.4661  13.5847  13.7953  13.9153
    14.1981  14.2730  14.4695  14.7117  14.7483  14.8157

          k = 0.1250 0.4714 0.0000 ( 25280 PWs)   bands (ev):

     0.6789   0.7784   0.9285   1.1056   1.2770   1.4091   1.4813   1.4914
     1.4915   1.5081   1.5351   1.5845   1.6538   1.7437   1.8397   1.8449
     1.8569   1.9071   1.9079   1.9586   1.9974   2.0065   2.0273   2.0835
     2.1137   2.1299   2.1805   2.2359   2.2738   2.2880   2.3406   2.4012
     2.4330   2.4523   2.5622   2.5772   2.5898   2.6254   2.7035   2.7274
     2.8043   2.8202   2.9554   3.0744   3.1995   3.2000   3.3415   3.3658
     3.4230   3.4651   3.5666   3.6626   3.6736   3.6828   3.7211   3.7719
     3.7837   3.8326   3.8776   3.8788   3.9460   4.0228   4.0897   4.1095
     4.1942   4.2866   4.3540   4.4341   4.4925   4.5849   4.6597   4.6630
     4.6993   4.7168   4.7622   4.7726   4.8166   4.8429   4.8467   4.8530
     4.8995   4.9095   4.9430   4.9848   5.0192   5.1060   5.1069   5.1473
     5.2180   5.3021   5.3058   5.4185   5.4461   5.4542   5.4673   5.4806
     5.5060   5.5090   5.5483   5.5519   5.6404   5.6675   5.6685   5.7979
     5.8028   5.8184   5.8223   5.8297   5.8769   5.9154   5.9319   5.9653
     5.9783   5.9949   6.0594   6.1002   6.1191   6.1608   6.2228   6.2557
     6.2811   6.2982   6.3050   6.3060   6.3159   6.3350   6.3355   6.3549
     6.6603   7.1426   7.7880   8.5362   9.3440  10.1832  11.0273  11.0385
    11.1667  11.3536  11.5824  11.8026  11.8782  12.0909  12.3891  12.5585
    12.5754  12.6406  12.7657  12.7950  12.9643  13.0968  13.1542  13.2762
    13.3239  13.6708  14.1874  14.5147  14.6773  15.1050

          k = 0.1250 0.5893 0.0000 ( 25256 PWs)   bands (ev):

     1.3300   1.3304   1.3414   1.3810   1.3826   1.4195   1.4572   1.4609
     1.5207   1.5444   1.5504   1.6039   1.6150   1.6209   1.6251   1.6335
     1.6734   1.6970   1.7253   1.7630   1.7953   1.8569   1.9019   1.9201
     2.0105   2.0267   2.0685   2.0726   2.1227   2.1763   2.2086   2.2206
     2.2848   2.3597   2.4349   2.5218   2.6111   2.6446   2.7541   2.8003
     2.8963   2.9320   3.0467   3.1243   3.1719   3.2019   3.3514   3.3788
     3.4348   3.4540   3.4624   3.4965   3.6270   3.6480   3.6491   3.6949
     3.7795   3.7871   3.8755   3.9765   4.0842   4.1960   4.2127   4.3549
     4.3691   4.3953   4.4937   4.5333   4.6351   4.6598   4.6841   4.7776
     4.8433   4.8639   4.9757   5.0037   5.0234   5.0962   5.1046   5.1465
     5.2268   5.2744   5.3285   5.3340   5.3820   5.4061   5.5034   5.5161
     5.5530   5.5733   5.5968   5.6475   5.6936   5.7109   5.7380   5.7406
     5.8094   5.8130   5.8540   5.8917   5.8958   5.9583   5.9820   5.9870
     6.0306   6.0370   6.0834   6.1273   6.1619   6.1666   6.2022   6.2058
     6.2450   6.2736   6.2933   6.3274   6.3506   6.3554   6.3743   6.3824
     6.7169   6.7273   6.7515   6.7999   6.8803   6.9949   7.1559   7.3834
     7.6976   8.1238   8.6732   9.3172   9.3877   9.4973   9.6713   9.8865
    10.0104  10.1531  10.4442  10.6293  10.7709  10.9990  11.1732  11.2397
    12.6409  12.6591  13.6297  13.6755  13.7810  13.8060  13.8466  13.8989
    13.9202  13.9515  13.9582  14.0423  14.5477  15.1554

          k = 0.1250-0.7071 0.0000 ( 25220 PWs)   bands (ev):

     1.2655   1.2655   1.3212   1.3212   1.4071   1.4071   1.5111   1.5111
     1.5506   1.5506   1.5986   1.5986   1.6527   1.6527   1.7026   1.7026
     1.7826   1.7826   1.7881   1.7881   1.8231   1.8231   1.8533   1.8533
     1.8971   1.8971   1.9140   1.9140   1.9725   1.9725   2.0992   2.0992
     2.2664   2.2664   2.4664   2.4664   2.6961   2.6961   2.9323   2.9323
     3.0824   3.0824   3.1049   3.1049   3.1437   3.1437   3.2814   3.2814
     3.3151   3.3151   3.4808   3.4808   3.5445   3.5445   3.6758   3.6758
     3.7959   3.7959   3.9626   3.9626   4.1844   4.1844   4.3281   4.3281
     4.3923   4.3923   4.5284   4.5284   4.7112   4.7112   4.8298   4.8298
     4.9070   4.9070   5.0701   5.0701   5.2430   5.2430   5.2605   5.2605
     5.3289   5.3289   5.4316   5.4316   5.4810   5.4810   5.5676   5.5676
     5.6291   5.6291   5.6835   5.6835   5.7692   5.7692   5.8173   5.8173
     5.8717   5.8717   5.9332   5.9332   5.9567   5.9567   6.0297   6.0297
     6.0550   6.0550   6.1367   6.1367   6.2313   6.2313   6.3024   6.3024
     6.3505   6.3505   6.3910   6.3910   6.4327   6.4327   6.4764   6.4764
     7.9123   7.9123   7.9733   7.9733   8.0737   8.0737   8.2117   8.2117
     8.3839   8.3839   8.5866   8.5866   8.8160   8.8160   9.0695   9.0695
     9.3450   9.3450   9.6349   9.6349   9.9050   9.9050  10.2939  10.2939
    12.4709  12.4709  14.0548  14.0548  14.4893  14.4893  14.9555  14.9558
    15.2900  15.2917  15.2994  15.3089  15.3136  15.3146

          k = 0.2500 0.0000 0.0000 ( 25165 PWs)   bands (ev):

    -0.8415  -0.7316  -0.5569  -0.3296  -0.0668   0.2098   0.4762   0.7125
     0.9100   1.0738   1.2161   1.3472   1.3558   1.4329   1.4757   1.5329
     1.5931   1.6252   1.6879   1.6974   1.7037   1.7416   1.7421   1.7719
     1.9003   2.0782   2.2024   2.2737   2.4390   2.6829   2.8775   2.9857
     3.0670   3.1248   3.1422   3.1501   3.1780   3.2259   3.2507   3.3163
     3.3425   3.4287   3.4352   3.5183   3.5643   3.5964   3.6638   3.6812
     3.6901   3.6901   3.7188   3.7192   3.7560   3.7579   3.7598   3.7629
     3.7828   3.7834   3.7865   3.7877   3.7923   3.7939   3.7966   3.8288
     3.8726   3.8814   3.8895   3.9164   3.9446   3.9754   4.0139   4.0859
     4.0870   4.1353   4.1836   4.2229   4.3080   4.3774   4.3793   4.3896
     4.5005   4.5241   4.5506   4.6247   4.6409   4.6806   4.7301   4.7436
     4.8051   4.8526   4.9112   4.9115   4.9775   5.0881   5.1082   5.1083
     5.1225   5.1249   5.1462   5.1486   5.1727   5.1980   5.2623   5.2708
     5.3549   5.3680   5.4191   5.4930   5.5223   5.5597   5.6057   5.6401
     5.6954   5.7854   5.8282   5.8304   5.8735   5.9472   5.9579   6.0610
     6.0661   6.1580   6.1609   6.2310   6.2311   6.2341   6.2714   6.2722
     6.3273   6.3276   6.5813   6.6958   7.0390   7.2598   7.5434   7.8908
     8.0910   8.4959   8.7413   9.0496   9.4904   9.5927  10.1220  10.2377
    10.6713  10.8653  11.7058  11.9417  12.4307  12.7631  13.1972  13.6239
    13.8066  13.9386  14.4592  14.4706  14.5645  15.2959

          k = 0.2500 0.1179 0.0000 ( 25134 PWs)   bands (ev):

    -0.6969  -0.5859  -0.4096  -0.1803   0.0845   0.3619   0.6265   0.8567
     1.0444   1.1972   1.3309   1.4572   1.4659   1.5566   1.5883   1.6767
     1.7142   1.7813   1.7880   1.8227   1.8442   1.8583   1.8924   1.9019
     1.9554   2.1338   2.2954   2.3705   2.4925   2.7002   2.8391   2.9129
     2.9900   3.0653   3.1147   3.1150   3.1300   3.1398   3.1571   3.2001
     3.2510   3.2927   3.3510   3.3926   3.4444   3.5002   3.5421   3.5942
     3.6709   3.6956   3.7127   3.7227   3.7792   3.7920   3.7922   3.7980
     3.8032   3.8043   3.8104   3.8150   3.8289   3.8313   3.8398   3.8439
     3.8544   3.8656   3.8713   3.9001   3.9027   3.9100   3.9722   4.0026
     4.0506   4.0649   4.0804   4.1207   4.1374   4.1801   4.2378   4.2496
     4.3253   4.3444   4.4998   4.5406   4.6416   4.6523   4.6526   4.6669
     4.7045   4.7222   4.7296   4.8355   4.8462   4.9267   5.0044   5.0321
     5.1302   5.1449   5.1793   5.1895   5.2471   5.3240   5.3555   5.4086
     5.4318   5.4962   5.5547   5.5957   5.6143   5.6862   5.7266   5.7992
     5.8019   5.8306   5.8650   5.9228   5.9234   5.9773   5.9932   5.9970
     6.0469   6.0514   6.0966   6.1006   6.1173   6.1412   6.1536   6.1827
     6.2000   6.3098   6.8207   7.2577   7.4411   7.5418   7.9209   8.1108
     8.3714   8.7226   8.9691   9.2360   9.7259   9.7486  10.2755  10.5180
    10.7775  11.0788  11.7810  12.0434  12.5509  12.8544  13.3414  13.6977
    13.9600  14.0701  14.5337  14.6181  14.7118  15.3817

          k = 0.2500 0.2357 0.0000 ( 25140 PWs)   bands (ev):

    -0.2985  -0.1848  -0.0042   0.2306   0.5004   0.7791   1.0344   1.2380
     1.3834   1.4910   1.5881   1.6549   1.6937   1.7715   1.8165   1.9421
     1.9675   2.1042   2.1267   2.1564   2.1676   2.2131   2.2573   2.2899
     2.3061   2.3369   2.4704   2.5420   2.6008   2.6902   2.7614   2.8402
     2.8500   2.8818   2.9017   2.9031   2.9626   2.9798   2.9889   3.0464
     3.0795   3.0891   3.1155   3.1463   3.1886   3.2228   3.3300   3.3362
     3.4129   3.4202   3.4728   3.5245   3.5531   3.5788   3.6406   3.6435
     3.6838   3.7309   3.7552   3.7794   3.7917   3.7962   3.8013   3.8096
     3.8183   3.8188   3.8700   3.9130   3.9939   4.0400   4.1178   4.1411
     4.1490   4.1543   4.1594   4.1620   4.1848   4.1904   4.2243   4.2441
     4.2922   4.3199   4.3313   4.3660   4.4507   4.5616   4.5787   4.5809
     4.6769   4.6832   4.7399   4.7489   4.8006   4.8459   4.8721   4.9617
     5.0948   5.1281   5.1543   5.1550   5.2687   5.2805   5.3006   5.3865
     5.4505   5.4628   5.5569   5.6351   5.7139   5.7535   5.8306   5.8529
     5.8979   5.9057   5.9632   5.9672   5.9903   6.0167   6.0352   6.0657
     6.0949   6.1270   6.1359   6.1623   6.1671   6.1807   6.2004   6.2403
     6.3258   6.7026   7.2670   7.9272   8.2673   8.4254   8.6557   8.6853
     9.0088   9.2613   9.5175   9.6818  10.1222  10.2600  10.6420  10.9724
    11.2832  11.5773  12.1536  12.3087  13.0189  13.0844  13.8401  13.8959
    14.4358  14.4572  14.7475  15.0638  15.1533  15.6053

          k = 0.2500 0.3536 0.0000 ( 25218 PWs)   bands (ev):

     0.2366   0.3521   0.5354   0.7729   1.0441   1.3173   1.5443   1.6713
     1.7050   1.7203   1.7559   1.7772   1.8129   1.8899   1.9024   1.9986
     2.0898   2.1254   2.2673   2.3314   2.4086   2.5052   2.5366   2.5387
     2.5807   2.5971   2.6168   2.6372   2.6420   2.6435   2.6498   2.6574
     2.6640   2.6828   2.6972   2.7338   2.7340   2.7697   2.7994   2.8148
     2.8509   2.9815   3.0346   3.0655   3.1734   3.1907   3.2702   3.3161
     3.3420   3.3561   3.4034   3.4804   3.4900   3.5545   3.5620   3.5800
     3.5829   3.6672   3.7000   3.7133   3.7300   3.7470   3.7555   3.7695
     3.7752   3.7818   3.8385   3.8408   3.8566   3.9890   4.0366   4.0431
     4.1763   4.2915   4.2923   4.4151   4.6463   4.6469   4.6768   4.6831
     4.6870   4.6873   4.7153   4.7340   4.7426   4.7569   4.7616   4.7680
     4.7922   4.8087   4.8134   4.8380   4.8433   4.8737   4.8876   4.8920
     4.9195   4.9379   4.9758   5.0383   5.0742   5.1528   5.2735   5.3896
     5.4284   5.5240   5.6340   5.6997   5.7866   5.8309   5.8834   5.8857
     5.9327   5.9512   5.9985   6.0013   6.0559   6.0606   6.1123   6.1553
     6.1852   6.1958   6.2079   6.2337   6.2471   6.2522   6.3975   6.6331
     6.9378   7.3670   7.9358   8.6086   9.2997   9.3206   9.4297   9.5725
     9.7899   9.9549  10.1779  10.2681  10.6193  10.7904  11.1281  11.2716
    12.1886  12.2394  12.7467  12.9731  13.4727  13.8028  13.8442  13.9632
    14.1557  14.3089  14.5416  14.6742  14.9732  14.9958

          k = 0.2500 0.4714 0.0000 ( 25262 PWs)   bands (ev):

     0.7253   0.8342   1.0045   1.2191   1.4530   1.6704   1.7033   1.7035
     1.7557   1.7562   1.7581   1.8288   1.8354   1.8383   1.8649   1.9108
     1.9701   2.0204   2.0609   2.1392   2.1708   2.1723   2.1908   2.1912
     2.2247   2.2677   2.2957   2.3512   2.3794   2.4665   2.5054   2.5710
     2.6297   2.6618   2.7099   2.7325   2.7582   2.7633   2.8654   2.8980
     2.9787   3.1685   3.2900   3.3218   3.4037   3.4706   3.4753   3.5248
     3.5424   3.5593   3.5757   3.5964   3.6331   3.6516   3.6579   3.6912
     3.7139   3.7469   3.7518   3.7912   3.8271   3.8327   3.8938   3.9011
     3.9501   3.9683   4.0139   4.0186   4.1124   4.1483   4.1626   4.2706
     4.2791   4.2933   4.3775   4.3843   4.4885   4.5161   4.5286   4.5974
     4.6808   4.7263   4.8656   4.9791   5.0245   5.1070   5.1134   5.1205
     5.1642   5.1824   5.2051   5.2431   5.3024   5.3281   5.3759   5.3996
     5.4315   5.4884   5.5234   5.5295   5.5625   5.5853   5.5905   5.6667
     5.7022   5.7158   5.7932   5.8278   5.8794   5.9364   5.9397   5.9560
     5.9832   5.9913   6.0417   6.0472   6.0595   6.1015   6.1251   6.1477
     6.1663   6.1853   6.2367   6.2405   6.3282   6.6170   6.9246   7.2603
     7.6520   8.1329   8.7177   9.3908  10.1131  10.3088  10.4171  10.5504
    10.7093  10.7870  10.9252  11.0283  11.2753  11.3995  11.6839  11.7454
    11.7782  11.8928  12.1108  12.4115  12.8053  12.8861  12.9967  13.2655
    13.3866  13.6050  13.7323  14.0490  14.5696  14.5766

          k = 0.2500 0.5893 0.0000 ( 25289 PWs)   bands (ev):

     1.0663   1.1592   1.2981   1.4589   1.5666   1.6086   1.6136   1.6139
     1.6501   1.6629   1.6631   1.7129   1.7301   1.7312   1.7624   1.7648
     1.7847   1.8163   1.8648   1.8677   1.9159   1.9175   1.9407   1.9617
     2.0111   2.0473   2.1019   2.1756   2.2094   2.3139   2.3645   2.4657
     2.5592   2.6277   2.7553   2.7702   2.8895   2.8974   3.0095   3.0334
     3.1048   3.1732   3.2014   3.3142   3.4069   3.4616   3.5484   3.5546
     3.6145   3.6336   3.6981   3.7578   3.7587   3.8200   3.8363   3.8789
     3.8867   3.9490   3.9850   3.9881   3.9972   4.0206   4.0499   4.1405
     4.1475   4.1811   4.1829   4.2375   4.2686   4.3068   4.3515   4.3701
     4.3912   4.4330   4.4803   4.5488   4.6125   4.6188   4.6689   4.6803
     4.7413   4.7643   4.8900   4.9262   5.1006   5.2159   5.3019   5.3728
     5.3789   5.4341   5.4904   5.5188   5.5564   5.6061   5.6400   5.6987
     5.7058   5.7814   5.8509   5.9632   5.9777   6.0209   6.0667   6.0856
     6.0908   6.0968   6.0989   6.1069   6.1127   6.1337   6.1345   6.1388
     6.1734   6.1761   6.2150   6.2384   6.2727   6.2924   6.3406   6.3432
     6.5265   6.5934   6.7246   6.9351   7.2205   7.5519   7.9089   8.2906
     8.7116   9.1924   9.5579   9.7342   9.7477  10.0079  10.3452  10.3655
    10.7143  11.0181  11.0801  11.4059  11.6522  11.7074  11.8047  11.8228
    11.8559  11.9331  11.9707  12.0980  12.1528  12.3293  12.4784  12.6036
    12.6905  12.7200  13.0541  13.5585  14.0972  14.6360

          k = 0.2500-0.7071 0.0000 ( 25328 PWs)   bands (ev):

     1.3231   1.3231   1.4037   1.4037   1.5171   1.5171   1.5881   1.5881
     1.6165   1.6165   1.6328   1.6328   1.6594   1.6594   1.7022   1.7022
     1.7122   1.7122   1.7358   1.7358   1.8286   1.8286   1.8725   1.8725
     1.9575   1.9575   2.0670   2.0670   2.1994   2.1994   2.3705   2.3705
     2.5735   2.5735   2.7874   2.7874   2.9803   2.9803   3.1145   3.1145
     3.1429   3.1429   3.2214   3.2214   3.2829   3.2829   3.5824   3.5824
     3.7754   3.7754   3.7971   3.7971   3.8121   3.8121   3.8751   3.8751
     3.9469   3.9469   3.9771   3.9771   4.0694   4.0694   4.2101   4.2101
     4.2433   4.2433   4.2799   4.2799   4.3988   4.3988   4.4587   4.4587
     4.4867   4.4867   4.6075   4.6075   4.6564   4.6564   4.7939   4.7939
     4.8489   4.8489   4.9013   4.9013   5.1339   5.1339   5.3721   5.3721
     5.5073   5.5073   5.5483   5.5483   5.5745   5.5745   5.6509   5.6509
     5.7968   5.7968   5.8864   5.8864   6.0141   6.0141   6.1355   6.1355
     6.2160   6.2160   6.2530   6.2530   6.2620   6.2620   6.2779   6.2779
     6.3150   6.3150   6.3619   6.3619   6.4237   6.4237   6.4773   6.4773
     7.8657   7.8657   7.9985   7.9985   8.2097   8.2097   8.4845   8.4845
     8.8045   8.8045   9.1518   9.1518   9.5139   9.5139   9.8869   9.8869
    10.2756  10.2756  10.6872  10.6872  11.1086  11.1086  11.4643  11.4643
    12.6894  12.6894  13.3367  13.3367  13.3673  13.3673  13.4221  13.4221
    13.5055  13.5056  13.6176  13.6179  13.7047  13.7064

          k = 0.3750 0.0000 0.0000 ( 25154 PWs)   bands (ev):

    -0.0334   0.0617   0.2052   0.3754   0.5436   0.6829   0.7804   0.8428
     0.8888   0.9363   0.9954   1.0695   1.1588   1.2605   1.3576   1.3681
     1.4390   1.4715   1.5350   1.5556   1.5987   1.6039   1.9971   2.0436
     2.1228   2.2036   2.2894   2.4598   2.7340   2.7691   2.8094   2.8866
     3.0137   3.0233   3.1566   3.1979   3.2058   3.2547   3.3059   3.3638
     3.4179   3.4466   3.4804   3.5119   3.5119   3.5161   3.5591   3.5594
     3.5671   3.5782   3.6238   3.6338   3.6353   3.6571   3.6990   3.7230
     3.7309   3.7346   3.7777   3.8111   3.8200   3.8440   3.8502   3.8788
     3.9002   3.9557   3.9665   3.9702   4.0649   4.0779   4.0817   4.0897
     4.1660   4.1691   4.1944   4.2091   4.2746   4.3051   4.3377   4.4299
     4.4307   4.5082   4.6012   4.6415   4.6453   4.7185   4.7768   4.8559
     4.9030   4.9487   4.9988   5.1066   5.1124   5.1992   5.2304   5.2575
     5.2815   5.2847   5.3195   5.3511   5.4009   5.4061   5.4620   5.4633
     5.5173   5.5348   5.5368   5.6157   5.6434   5.6546   5.6985   5.7629
     5.7718   5.7745   5.8073   5.8354   5.9059   5.9192   5.9354   5.9855
     5.9984   6.0034   6.0779   6.0816   6.1418   6.1472   6.1886   6.1937
     6.2225   6.2245   6.2315   6.3037   6.3038   6.4747   6.6447   6.9427
     7.2574   7.3572   7.7744   7.9171   8.2151   8.4258   8.7232   8.8155
     9.8402   9.8406  11.5797  11.6199  12.2639  12.3623  13.0933  13.2452
    13.9216  14.1244  14.5285  14.6828  14.8367  15.2902

          k = 0.3750 0.1179 0.0000 ( 25136 PWs)   bands (ev):

     0.0919   0.1907   0.3403   0.5184   0.6942   0.8375   0.9331   0.9891
     1.0279   1.0700   1.1255   1.1980   1.2876   1.3920   1.4715   1.5053
     1.5697   1.6180   1.6908   1.7140   1.7696   1.7725   2.0713   2.1071
     2.1843   2.3016   2.3890   2.5043   2.7512   2.8011   2.8276   2.8841
     2.9847   3.0302   3.1073   3.1256   3.1469   3.1845   3.2291   3.2775
     3.3245   3.3263   3.3859   3.3911   3.4650   3.4682   3.5288   3.5396
     3.5786   3.6000   3.6335   3.6344   3.6725   3.6756   3.6766   3.7205
     3.7211   3.7460   3.7585   3.7746   3.7876   3.7904   3.8480   3.8532
     3.8856   3.9130   3.9329   3.9372   3.9948   4.0486   4.0621   4.1088
     4.1219   4.1337   4.1618   4.1691   4.2150   4.2172   4.2540   4.3605
     4.4603   4.4725   4.5225   4.5739   4.6175   4.6237   4.7349   4.7528
     4.7734   4.7751   4.8255   4.8537   4.9423   4.9511   4.9911   4.9992
     5.1063   5.1537   5.1605   5.2438   5.2867   5.3384   5.3776   5.3987
     5.4089   5.4563   5.5480   5.5488   5.6234   5.6650   5.6865   5.7122
     5.7965   5.8140   5.8947   5.9281   5.9299   5.9421   6.0076   6.0276
     6.0866   6.0874   6.1125   6.1219   6.1487   6.1642   6.1796   6.1844
     6.2355   6.3573   6.4145   6.5947   6.7118   6.9480   7.1223   7.3065
     7.6733   7.7018   8.0708   8.2898   8.5490   8.7598   9.1132   9.1807
    10.0246  10.0370  11.6073  11.6682  12.3290  12.4599  13.1758  13.3670
    14.0088  14.2611  14.6322  14.8193  14.9508  15.4066

          k = 0.3750 0.2357 0.0000 ( 25137 PWs)   bands (ev):

     0.4005   0.5097   0.6781   0.8836   1.0915   1.2582   1.3540   1.3882
     1.4019   1.4264   1.4696   1.5339   1.6199   1.6339   1.7275   1.7629
     1.8539   1.9605   1.9940   2.1236   2.1810   2.2224   2.4125   2.4176
     2.4266   2.4596   2.6227   2.7088   2.7883   2.8982   2.9074   2.9547
     2.9555   2.9664   2.9678   2.9992   3.0130   3.0416   3.0607   3.0645
     3.0875   3.1088   3.1453   3.2004   3.2206   3.2312   3.2953   3.3459
     3.3586   3.3921   3.4787   3.5008   3.5819   3.6024   3.6215   3.6841
     3.6861   3.7325   3.7331   3.7602   3.8171   3.8279   3.8364   3.8861
     3.9284   3.9556   3.9696   3.9834   3.9988   4.0198   4.0419   4.0453
     4.0624   4.1196   4.1207   4.1552   4.1555   4.2092   4.2237   4.2358
     4.2946   4.3175   4.3298   4.3360   4.3557   4.4336   4.5104   4.5240
     4.5807   4.6548   4.6797   4.7131   4.7547   4.7720   4.7962   4.8049
     4.8809   4.9007   4.9365   4.9917   5.0145   5.2536   5.2600   5.3182
     5.3820   5.4232   5.4445   5.5443   5.5530   5.6136   5.6571   5.6872
     5.7182   5.8306   5.8445   5.8735   5.9248   5.9777   6.0187   6.0314
     6.0967   6.0984   6.1604   6.1732   6.2213   6.4119   6.6127   6.7913
     6.8433   7.0137   7.1162   7.2892   7.4748   7.5911   7.9103   7.9458
     8.2608   8.4590   8.7170   8.9111   9.3549   9.3862   9.9346  10.0676
    10.4748  10.6245  11.7517  11.8958  12.5766  12.7953  13.4595  13.7469
    14.2951  14.6741  14.9373  15.2254  15.3054  15.7337

          k = 0.3750 0.3536 0.0000 ( 25172 PWs)   bands (ev):

     0.7020   0.8197   1.0061   1.2462   1.5150   1.6008   1.7218   1.7665
     1.8408   1.8411   1.8857   1.8883   1.9108   1.9177   1.9457   1.9837
     2.0674   2.1346   2.1798   2.2746   2.3659   2.3815   2.6706   2.6907
     2.8365   2.8582   2.8595   2.8606   2.8977   2.8986   2.9530   2.9550
     2.9634   2.9818   2.9885   3.0017   3.0071   3.0127   3.0140   3.0164
     3.0438   3.0702   3.0748   3.1084   3.1832   3.2005   3.2070   3.2095
     3.2632   3.2799   3.3486   3.3676   3.3862   3.4397   3.4405   3.4935
     3.5048   3.5198   3.5968   3.6482   3.6751   3.6986   3.7018   3.7061
     3.7594   3.7667   3.8142   3.8297   3.8411   3.9469   3.9741   3.9812
     4.1186   4.2880   4.2998   4.3151   4.3275   4.4222   4.4251   4.4337
     4.4573   4.4765   4.4997   4.5023   4.5221   4.5323   4.5445   4.5514
     4.6032   4.6143   4.6303   4.6425   4.7249   4.7521   4.7640   4.7956
     4.8111   4.8701   4.9608   4.9915   5.1450   5.2216   5.3153   5.3415
     5.3998   5.4365   5.5071   5.5325   5.6016   5.6209   5.6700   5.7072
     5.8205   5.8657   5.8746   5.8905   6.0075   6.0388   6.0405   6.0921
     6.1207   6.1375   6.1447   6.3721   6.6310   6.8947   7.1674   7.4601
     7.5769   7.7321   7.8344   7.9841   8.2489   8.2619   8.5652   8.7139
     8.9415   9.1171   9.4973   9.5248  10.0185  10.1615  10.6481  10.9051
    11.3258  11.5959  12.2452  12.4924  13.1425  13.4159  14.0315  14.3685
    14.8363  15.0271  15.1395  15.3109  15.3386  15.4374

          k = 0.3750 0.4714 0.0000 ( 25207 PWs)   bands (ev):

     0.8566   0.9694   1.1487   1.3822   1.4118   1.5145   1.6555   1.6727
     1.8610   1.9451   2.0242   2.0255   2.0351   2.0705   2.0745   2.1177
     2.1293   2.1618   2.2370   2.2455   2.3571   2.4370   2.5432   2.5828
     2.5899   2.6117   2.6517   2.6612   2.7186   2.7806   2.8356   2.8759
     2.9524   2.9536   2.9749   2.9770   3.0296   3.0497   3.0765   3.0845
     3.1307   3.1474   3.1807   3.1836   3.2842   3.3064   3.3130   3.4030
     3.4430   3.4761   3.5074   3.5323   3.5506   3.5582   3.6028   3.6088
     3.6126   3.6719   3.6732   3.6923   3.6929   3.7020   3.8070   3.8233
     3.8369   3.9127   3.9197   3.9493   4.0197   4.0320   4.1087   4.1128
     4.1581   4.2029   4.2152   4.2211   4.2436   4.2586   4.3393   4.3946
     4.4899   4.5182   4.6499   4.7662   4.8080   4.8458   4.8789   4.9126
     4.9558   4.9938   5.0069   5.0338   5.1327   5.1366   5.3017   5.3048
     5.3715   5.3846   5.4173   5.4205   5.4590   5.5160   5.5770   5.6050
     5.6127   5.6382   5.6636   5.6991   5.7253   5.7536   5.8031   5.8337
     5.8864   5.9141   5.9714   6.0238   6.0433   6.0949   6.1087   6.1199
     6.1374   6.1811   6.4315   6.7706   7.1169   7.4647   7.8180   8.1877
     8.3294   8.4895   8.6142   8.7382   9.0198   9.0696   9.3286   9.5085
     9.7326   9.8644  10.2432  10.2811  10.7130  10.8563  11.2861  11.3990
    12.6079  12.7266  12.8454  12.9457  13.1194  13.1966  13.3892  13.4210
    13.7106  14.0498  14.0962  14.3092  14.5848  14.9531

          k = 0.3750 0.5893 0.0000 ( 25303 PWs)   bands (ev):

     0.9291   1.0317   1.1904   1.1930   1.2856   1.3980   1.4327   1.6032
     1.6374   1.7844   1.8695   1.9290   2.0035   2.0064   2.0069   2.0301
     2.0651   2.0674   2.1264   2.1721   2.2384   2.2549   2.3883   2.3969
     2.4185   2.4301   2.5018   2.5111   2.6139   2.6387   2.7504   2.7714
     2.8837   2.8900   3.0053   3.0065   3.1068   3.1215   3.1559   3.1726
     3.2279   3.2322   3.2773   3.3455   3.3464   3.3609   3.4265   3.4556
     3.4964   3.5093   3.5168   3.5426   3.6211   3.6589   3.6628   3.6840
     3.7340   3.7465   3.7558   3.7759   3.7842   3.8019   3.8132   3.8244
     3.9053   3.9486   3.9730   4.0034   4.0528   4.1400   4.1647   4.2113
     4.2284   4.3574   4.3913   4.4618   4.4963   4.6046   4.6394   4.7357
     4.8176   4.8294   4.8626   4.9707   5.0049   5.0195   5.0569   5.1053
     5.1436   5.1577   5.1795   5.1839   5.3555   5.3867   5.6986   5.7353
     5.8361   5.9438   5.9439   5.9479   5.9483   5.9613   5.9915   5.9924
     5.9997   6.0018   6.0298   6.0397   6.0563   6.0727   6.0837   6.1215
     6.1364   6.1432   6.1957   6.2008   6.2509   6.2720   6.3100   6.3315
     6.3327   6.6329   7.0701   7.5219   7.9688   8.4041   8.7380   8.8275
     8.9971   9.2478   9.3752   9.6839   9.8195  10.1434  10.2875  10.5827
    10.7702  10.9329  11.2380  11.2782  11.3543  11.3801  11.4200  11.5328
    11.5809  11.7501  11.7634  11.9500  12.1528  12.1750  12.3909  12.8771
    13.3876  13.4991  13.5211  13.5645  13.6180  13.6966

          k = 0.3750-0.7071 0.0000 ( 25342 PWs)   bands (ev):

     1.0245   1.0245   1.1201   1.1201   1.2685   1.2685   1.4540   1.4540
     1.6541   1.6541   1.8396   1.8396   1.9755   1.9755   2.0092   2.0092
     2.0297   2.0297   2.0416   2.0416   2.1606   2.1606   2.3360   2.3360
     2.3672   2.3672   2.4418   2.4418   2.5567   2.5567   2.6982   2.6982
     2.8481   2.8481   2.9921   2.9921   3.1234   3.1234   3.1514   3.1514
     3.2370   3.2370   3.3287   3.3287   3.4047   3.4047   3.4974   3.4974
     3.5883   3.5883   3.6555   3.6555   3.6773   3.6773   3.7005   3.7005
     3.7492   3.7492   3.7762   3.7762   3.8310   3.8310   3.8676   3.8676
     3.9120   3.9120   4.0129   4.0129   4.1279   4.1279   4.1866   4.1866
     4.3977   4.3977   4.4153   4.4153   4.6566   4.6566   4.7171   4.7171
     4.8939   4.8939   5.0353   5.0353   5.0540   5.0540   5.1009   5.1009
     5.1533   5.1533   5.3166   5.3166   5.4194   5.4194   5.8564   5.8564
     5.9561   5.9561   6.1298   6.1298   6.1355   6.1355   6.1361   6.1361
     6.1727   6.1727   6.1764   6.1764   6.1835   6.1835   6.2264   6.2264
     6.2838   6.2838   6.3433   6.3433   6.4222   6.4222   6.4789   6.4789
     7.7177   7.7177   8.0148   8.0148   8.4330   8.4330   8.9160   8.9160
     9.4235   9.4235   9.9230   9.9230  10.3894  10.3894  10.8152  10.8152
    11.2201  11.2201  11.6362  11.6362  11.8695  11.8695  11.8880  11.8880
    11.9263  11.9263  11.9958  11.9958  12.0605  12.0605  12.1594  12.1594
    12.3250  12.3250  12.4855  12.4855  12.7417  12.7417

          k =-0.5000 0.0000 0.0000 ( 25218 PWs)   bands (ev):

     0.8513   0.8513   0.9011   0.9011   0.9319   0.9319   0.9395   0.9395
     0.9968   0.9968   1.0364   1.0364   1.0669   1.0669   1.1175   1.1175
     1.1409   1.1409   1.1622   1.1622   1.3311   1.3311   2.1695   2.1695
     2.3762   2.3762   2.4389   2.4389   2.5574   2.5574   2.7408   2.7408
     3.0097   3.0097   3.3819   3.3819   3.4167   3.4167   3.4182   3.4182
     3.4284   3.4284   3.4307   3.4307   3.4488   3.4488   3.4535   3.4535
     3.4967   3.4967   3.5001   3.5001   3.5668   3.5668   3.5825   3.5825
     3.6610   3.6610   3.6920   3.6920   3.7849   3.7849   3.8238   3.8238
     3.8696   3.8696   3.9377   3.9377   3.9723   3.9723   4.0961   4.0961
     4.1308   4.1308   4.2915   4.2915   4.4126   4.4126   4.4447   4.4447
     4.4753   4.4753   4.5767   4.5767   4.6680   4.6680   4.7956   4.7956
     4.9849   4.9849   5.0099   5.0099   5.0480   5.0480   5.2599   5.2599
     5.5199   5.5199   5.5287   5.5287   5.5512   5.5512   5.6191   5.6191
     5.7041   5.7041   5.7915   5.7915   5.7919   5.7919   5.8757   5.8757
     5.9285   5.9285   5.9529   5.9529   6.0215   6.0215   6.0525   6.0525
     6.0800   6.0800   6.1262   6.1262   6.1303   6.1303   6.1575   6.1575
     6.2007   6.2007   6.2986   6.2986   6.3036   6.3036   6.5396   6.5396
     6.7639   6.7639   6.9882   6.9882   7.2175   7.2175   7.9664   7.9664
     9.5401   9.5401  11.5791  11.5791  12.2535  12.2535  13.1082  13.1082
    14.0125  14.0125  14.8114  14.8114  15.3445  15.3445

          k =-0.5000 0.1179 0.0000 ( 25138 PWs)   bands (ev):

     0.9623   0.9623   1.0352   1.0352   1.0521   1.0521   1.0755   1.0755
     1.1365   1.1365   1.1713   1.1713   1.2115   1.2115   1.2665   1.2665
     1.2929   1.2929   1.3177   1.3177   1.4859   1.4859   2.2799   2.2799
     2.4306   2.4306   2.4807   2.4807   2.5852   2.5852   2.7479   2.7479
     2.9752   2.9752   3.2968   3.2968   3.3523   3.3523   3.3616   3.3616
     3.3672   3.3672   3.3824   3.3824   3.4131   3.4131   3.4464   3.4464
     3.4895   3.4895   3.5407   3.5407   3.5657   3.5657   3.5921   3.5921
     3.6508   3.6508   3.6709   3.6709   3.7344   3.7344   3.7569   3.7569
     3.7876   3.7876   3.8729   3.8729   3.9311   3.9311   4.0555   4.0555
     4.1992   4.1992   4.2798   4.2798   4.3347   4.3347   4.4554   4.4554
     4.6031   4.6031   4.6175   4.6175   4.7394   4.7394   4.7676   4.7676
     4.8425   4.8425   4.9576   4.9576   4.9974   4.9974   5.0847   5.0847
     5.1776   5.1776   5.2235   5.2235   5.3543   5.3543   5.4313   5.4313
     5.4682   5.4682   5.5631   5.5631   5.6465   5.6465   5.6899   5.6899
     5.7503   5.7503   5.8031   5.8031   5.8830   5.8830   5.9332   5.9332
     6.0279   6.0279   6.0548   6.0548   6.1277   6.1277   6.1948   6.1948
     6.3826   6.3826   6.5920   6.5920   6.8127   6.8127   7.0457   7.0457
     7.3022   7.3022   7.6022   7.6022   7.9419   7.9419   8.5152   8.5152
     9.7396   9.7396  11.6017  11.6017  12.3227  12.3227  13.2026  13.2026
    14.1167  14.1167  14.9221  14.9221  15.4668  15.4668

          k =-0.5000 0.2357 0.0000 ( 25144 PWs)   bands (ev):

     1.1656   1.1656   1.2779   1.2779   1.4042   1.4042   1.4403   1.4403
     1.4518   1.4518   1.5184   1.5184   1.6017   1.6017   1.6155   1.6155
     1.6893   1.6893   1.7150   1.7150   1.8830   1.8830   2.5127   2.5127
     2.6879   2.6879   2.6920   2.6920   2.7156   2.7156   2.8073   2.8073
     2.9916   2.9916   3.1217   3.1217   3.1296   3.1296   3.1558   3.1558
     3.1844   3.1844   3.2027   3.2027   3.2832   3.2832   3.3842   3.3842
     3.3914   3.3914   3.4436   3.4436   3.4977   3.4977   3.5531   3.5531
     3.5779   3.5779   3.7245   3.7245   3.8330   3.8330   3.8512   3.8512
     3.8811   3.8811   3.9239   3.9239   3.9550   3.9550   4.0526   4.0526
     4.1765   4.1765   4.2252   4.2252   4.2989   4.2989   4.3425   4.3425
     4.3951   4.3951   4.4548   4.4548   4.4923   4.4923   4.5230   4.5230
     4.5956   4.5956   4.6487   4.6487   4.7197   4.7197   4.8505   4.8505
     4.8844   4.8844   4.9927   4.9927   5.0650   5.0650   5.1270   5.1270
     5.2443   5.2443   5.3413   5.3413   5.4470   5.4470   5.5810   5.5810
     5.7523   5.7523   5.7919   5.7919   5.9146   5.9146   5.9798   5.9798
     6.0743   6.0743   6.1544   6.1544   6.4030   6.4030   6.6580   6.6580
     6.9141   6.9141   7.1722   7.1722   7.4389   7.4389   7.7287   7.7287
     8.0664   8.0664   8.4822   8.4822   8.9899   8.9899   9.5978   9.5978
    10.2878  10.2878  11.7380  11.7380  12.5852  12.5852  13.5161  13.5161
    14.4427  14.4427  15.2565  15.2565  15.8318  15.8319

          k =-0.5000 0.3536 0.0000 ( 25140 PWs)   bands (ev):

     1.2040   1.2040   1.3215   1.3215   1.5054   1.5054   1.7348   1.7348
     1.9141   1.9141   1.9559   1.9559   1.9740   1.9740   2.0311   2.0311
     2.1101   2.1101   2.1255   2.1255   2.2874   2.2874   2.7275   2.7275
     2.8303   2.8303   2.8765   2.8765   2.9451   2.9451   2.9859   2.9859
     3.0051   3.0051   3.0286   3.0286   3.0978   3.0978   3.2079   3.2079
     3.2615   3.2615   3.3185   3.3185   3.3402   3.3402   3.3639   3.3639
     3.3938   3.3938   3.4040   3.4040   3.4090   3.4090   3.4222   3.4222
     3.4455   3.4455   3.5042   3.5042   3.5920   3.5920   3.7529   3.7529
     3.8081   3.8081   3.8832   3.8832   3.9264   3.9264   4.0053   4.0053
     4.0981   4.0981   4.2012   4.2012   4.2691   4.2691   4.3122   4.3122
     4.3237   4.3237   4.3530   4.3530   4.3753   4.3753   4.3818   4.3818
     4.3949   4.3949   4.5838   4.5838   4.7616   4.7616   4.7862   4.7862
     4.9919   4.9919   5.0107   5.0107   5.1351   5.1351   5.1803   5.1803
     5.3333   5.3333   5.3957   5.3957   5.5627   5.5627   5.6361   5.6361
     5.7816   5.7816   5.8596   5.8596   5.9445   5.9445   6.0216   6.0216
     6.2882   6.2882   6.5610   6.5610   6.8543   6.8543   7.1514   7.1514
     7.4480   7.4480   7.7463   7.7463   8.0559   8.0559   8.3959   8.3959
     8.7940   8.7940   9.2808   9.2808   9.8796   9.8796  10.6136  10.6136
    11.2246  11.2246  12.2348  12.2348  13.1660  13.1660  14.1056  14.1056
    15.0058  15.0058  15.7910  15.7911  16.3815  16.3841

          k =-0.5000 0.4714 0.0000 ( 25230 PWs)   bands (ev):

     1.0907   1.0907   1.1998   1.1998   1.3721   1.3721   1.5940   1.5940
     1.8468   1.8468   2.1043   2.1043   2.3243   2.3243   2.4300   2.4300
     2.4343   2.4343   2.4437   2.4437   2.5241   2.5241   2.5663   2.5663
     2.6428   2.6428   2.7448   2.7448   2.8538   2.8538   2.9493   2.9493
     2.9835   2.9835   3.0264   3.0264   3.1336   3.1336   3.1476   3.1476
     3.1533   3.1533   3.2707   3.2707   3.2854   3.2854   3.3013   3.3013
     3.3810   3.3810   3.3934   3.3934   3.4012   3.4012   3.4865   3.4865
     3.6012   3.6012   3.7053   3.7053   3.7102   3.7102   3.8158   3.8158
     3.8426   3.8426   3.9073   3.9073   3.9779   3.9779   4.0323   4.0323
     4.1655   4.1655   4.2270   4.2270   4.3742   4.3742   4.3904   4.3904
     4.4923   4.4923   4.5774   4.5774   4.7163   4.7163   4.7455   4.7455
     4.7576   4.7576   4.8462   4.8462   5.0237   5.0237   5.3182   5.3182
     5.3854   5.3854   5.3933   5.3933   5.4561   5.4561   5.4810   5.4810
     5.5546   5.5546   5.6243   5.6243   5.6972   5.6972   5.8080   5.8080
     5.8703   5.8703   5.9820   5.9820   6.0134   6.0134   6.0774   6.0774
     6.7365   6.7365   7.0189   7.0189   7.3560   7.3560   7.7085   7.7085
     8.0615   8.0615   8.4122   8.4122   8.7680   8.7680   9.1465   9.1465
     9.5722   9.5722  10.0690  10.0690  10.6451  10.6451  11.2578  11.2578
    12.5880  12.5880  13.2485  13.2485  14.0682  14.0683  14.1621  14.1622
    14.2525  14.2525  14.3897  14.3898  14.5943  14.5944

          k =-0.5000 0.5893 0.0000 ( 25320 PWs)   bands (ev):

     0.9702   0.9702   1.0732   1.0732   1.2362   1.2362   1.4479   1.4479
     1.6938   1.6938   1.9576   1.9576   2.2198   2.2198   2.3185   2.3185
     2.3737   2.3737   2.4327   2.4327   2.4727   2.4727   2.6334   2.6334
     2.7413   2.7413   2.7527   2.7527   2.8601   2.8601   2.8763   2.8763
     2.9246   2.9246   2.9725   2.9725   3.0399   3.0399   3.0878   3.0878
     3.1093   3.1093   3.1851   3.1851   3.2462   3.2462   3.3351   3.3351
     3.3643   3.3643   3.4383   3.4383   3.4681   3.4681   3.5323   3.5323
     3.5605   3.5605   3.6212   3.6212   3.6643   3.6643   3.7060   3.7060
     3.8564   3.8564   3.8859   3.8859   4.0505   4.0505   4.1863   4.1863
     4.3387   4.3387   4.4886   4.4886   4.5722   4.5722   4.7563   4.7563
     4.8414   4.8414   4.8589   4.8589   4.8695   4.8695   4.9447   4.9447
     5.1778   5.1778   5.2297   5.2297   5.5237   5.5237   5.8413   5.8413
     5.8523   5.8523   5.8597   5.8597   5.8857   5.8857   5.9064   5.9064
     5.9255   5.9255   5.9655   5.9655   6.0009   6.0009   6.0708   6.0708
     6.0978   6.0978   6.1755   6.1755   6.2681   6.2681   6.3280   6.3280
     7.2008   7.2008   7.5727   7.5727   8.0242   8.0242   8.4964   8.4964
     8.9606   8.9606   9.4010   9.4010   9.8148   9.8148  10.2154  10.2154
    10.6287  10.6287  11.0807  11.0807  11.5758  11.5758  12.0539  12.0539
    12.2271  12.2271  12.2791  12.2791  12.3728  12.3728  12.5154  12.5154
    12.7173  12.7173  12.9856  12.9856  13.3312  13.3312

          k =-0.5000-0.7071 0.0000 ( 25344 PWs)   bands (ev):

     0.9225   0.9225   1.0235   1.0235   1.1836   1.1836   1.3918   1.3918
     1.6349   1.6349   1.8980   1.8980   2.1657   2.1657   2.2423   2.2423
     2.3047   2.3047   2.4034   2.4034   2.4233   2.4233   2.5309   2.5309
     2.6559   2.6559   2.6780   2.6780   2.8339   2.8339   2.8464   2.8464
     2.9749   2.9749   2.9869   2.9869   3.0466   3.0466   3.1253   3.1253
     3.1315   3.1315   3.2525   3.2525   3.2640   3.2640   3.3591   3.3591
     3.4025   3.4025   3.4503   3.4503   3.4582   3.4582   3.5140   3.5140
     3.5378   3.5378   3.5824   3.5824   3.6672   3.6672   3.7380   3.7380
     3.8431   3.8431   3.9935   3.9935   4.0578   4.0578   4.2973   4.2973
     4.3009   4.3009   4.5353   4.5353   4.6458   4.6458   4.7300   4.7300
     4.8355   4.8355   4.8500   4.8500   4.9245   4.9245   5.0226   5.0226
     5.2147   5.2147   5.4202   5.4202   5.8047   5.8047   6.0475   6.0475
     6.0510   6.0510   6.0840   6.0840   6.0880   6.0880   6.1007   6.1007
     6.1395   6.1395   6.1443   6.1443   6.1648   6.1648   6.2127   6.2127
     6.2844   6.2844   6.3484   6.3484   6.4263   6.4263   6.4807   6.4807
     7.5497   7.5497   8.0145   8.0145   8.5872   8.5872   9.2151   9.2151
     9.8784   9.8784  10.5666  10.5666  11.2718  11.2718  11.2780  11.2780
    11.2797  11.2797  11.2952  11.2952  11.2957  11.2957  11.3262  11.3262
    11.3922  11.3922  11.4955  11.4955  11.6368  11.6368  11.8409  11.8409
    11.9852  11.9852  12.1355  12.1355  12.5104  12.5104

     the Fermi energy is     8.8674 ev

!    total energy              =  -18604.48149386 Ry

     total all-electron energy =   -912576.787679 Ry
     estimated scf accuracy    <       0.00000071 Ry
     smearing contrib. (-TS)   =      -3.11058433 Ry
     internal energy E=F+TS    =  -18601.37090953 Ry

     The total energy is F=E-TS. E is the sum of the following terms:
     one-electron contribution =  -42169.75178123 Ry
     hartree contribution      =   21359.49584988 Ry
     xc contribution           =    -769.57160845 Ry
     ewald contribution        =   19599.01915909 Ry
     one-center paw contrib.   =  -16620.56252882 Ry

     convergence has been achieved in  20 iterations

     negative rho (up, down):  3.561E-03 0.000E+00

     Forces acting on atoms (cartesian axes, Ry/au):

     atom    1 type  1   force =     0.00000000    0.00000000   -0.02143731
     atom    2 type  1   force =     0.00000000    0.00000000   -0.02866498
     atom    3 type  1   force =     0.00000000    0.00000000    0.00078093
     atom    4 type  1   force =     0.00000000    0.00000000    0.00092250
     atom    5 type  1   force =     0.00000000    0.00000000    0.00033696
     atom    6 type  1   force =     0.00000000    0.00000000    0.00018398
     atom    7 type  1   force =     0.00000000    0.00000000    0.00008899
     atom    8 type  1   force =     0.00000000    0.00000000    0.00005715
     atom    9 type  1   force =     0.00000000    0.00000000    0.00010765
     atom   10 type  1   force =     0.00000000    0.00000000    0.00007583
     atom   11 type  1   force =     0.00000000    0.00000000    0.00005195
     atom   12 type  1   force =     0.00000000    0.00000000    0.00000629
     atom   13 type  1   force =     0.00000000    0.00000000   -0.00000629
     atom   14 type  1   force =     0.00000000    0.00000000   -0.00005195
     atom   15 type  1   force =     0.00000000    0.00000000   -0.00007583
     atom   16 type  1   force =     0.00000000    0.00000000   -0.00010765
     atom   17 type  1   force =     0.00000000    0.00000000   -0.00005715
     atom   18 type  1   force =     0.00000000    0.00000000   -0.00008899
     atom   19 type  1   force =     0.00000000    0.00000000   -0.00018398
     atom   20 type  1   force =     0.00000000    0.00000000   -0.00033696
     atom   21 type  1   force =     0.00000000    0.00000000   -0.00092250
     atom   22 type  1   force =     0.00000000    0.00000000   -0.00078093
     atom   23 type  1   force =     0.00000000    0.00000000    0.02866498
     atom   24 type  1   force =     0.00000000    0.00000000    0.02143731

     Total force =     0.050653     Total SCF correction =     0.001761

     Writing all to output data dir ./pwscf.save/
 
     init_run     :     16.64s CPU     17.35s WALL (       1 calls)
     electrons    :   1102.55s CPU   1113.27s WALL (       1 calls)
     forces       :      7.37s CPU      7.45s WALL (       1 calls)

     Called by init_run:
     wfcinit      :     15.78s CPU     16.11s WALL (       1 calls)
     potinit      :      0.39s CPU      0.59s WALL (       1 calls)
     hinit0       :      0.35s CPU      0.42s WALL (       1 calls)

     Called by electrons:
     c_bands      :   1001.99s CPU   1011.41s WALL (      20 calls)
     sum_band     :     92.89s CPU     93.72s WALL (      20 calls)
     v_of_rho     :      0.55s CPU      0.95s WALL (      21 calls)
     newd         :      1.19s CPU      1.36s WALL (      21 calls)
     PAW_pot      :      6.14s CPU      6.21s WALL (      21 calls)
     mix_rho      :      0.16s CPU      0.16s WALL (      20 calls)

     Called by c_bands:
     init_us_2    :      4.12s CPU      4.15s WALL (    1470 calls)
     init_us_2:cp :      4.11s CPU      4.14s WALL (    1470 calls)
     cegterg      :    958.37s CPU    967.44s WALL (     700 calls)

     Called by *egterg:
     cdiaghg      :     75.53s CPU     76.42s WALL (    4352 calls)
     h_psi        :    480.19s CPU    485.25s WALL (    4387 calls)
     s_psi        :     87.58s CPU     87.97s WALL (    4387 calls)
     g_psi        :      1.70s CPU      1.72s WALL (    3652 calls)

     Called by h_psi:
     h_psi:calbec :     89.18s CPU     89.52s WALL (    4387 calls)
     vloc_psi     :    297.13s CPU    300.04s WALL (    4387 calls)
     add_vuspsi   :     92.38s CPU     92.74s WALL (    4387 calls)

     General routines
     calbec       :    122.71s CPU    123.17s WALL (    5227 calls)
     fft          :      0.47s CPU      0.91s WALL (     242 calls)
     ffts         :      0.03s CPU      0.03s WALL (      20 calls)
     fftw         :    328.17s CPU    331.27s WALL (  733214 calls)
 
     Parallel routines
 
     PWSCF        :  18m53.37s CPU  19m13.94s WALL

 
   This run was terminated on:  18:34:51  25Mar2024            

=------------------------------------------------------------------------------=
   JOB DONE.
=------------------------------------------------------------------------------=
