MPI startup(): Warning: I_MPI_PMI_LIBRARY will be ignored since the hydra process manager was found
MPI startup(): Warning: I_MPI_PMI_LIBRARY will be ignored since the hydra process manager was found
MPI startup(): Warning: I_MPI_PMI_LIBRARY will be ignored since the hydra process manager was found
MPI startup(): Warning: I_MPI_PMI_LIBRARY will be ignored since the hydra process manager was found
MPI startup(): Warning: I_MPI_PMI_LIBRARY will be ignored since the hydra process manager was found
MPI startup(): Warning: I_MPI_PMI_LIBRARY will be ignored since the hydra process manager was found
MPI startup(): Warning: I_MPI_PMI_LIBRARY will be ignored since the hydra process manager was found
MPI startup(): Warning: I_MPI_PMI_LIBRARY will be ignored since the hydra process manager was found
MPI startup(): Warning: I_MPI_PMI_LIBRARY will be ignored since the hydra process manager was found
MPI startup(): Warning: I_MPI_PMI_LIBRARY will be ignored since the hydra process manager was found

     Program PWSCF v.7.0 starts on 25Mar2024 at 18: 3: 5 

     This program is part of the open-source Quantum ESPRESSO suite
     for quantum simulation of materials; please cite
         "P. Giannozzi et al., J. Phys.:Condens. Matter 21 395502 (2009);
         "P. Giannozzi et al., J. Phys.:Condens. Matter 29 465901 (2017);
         "P. Giannozzi et al., J. Chem. Phys. 152 154105 (2020);
          URL http://www.quantum-espresso.org", 
     in publications or presentations arising from this work. More details at
     http://www.quantum-espresso.org/quote

     Parallel version (MPI), running on    10 processors

     MPI processes distributed on     1 nodes
     R & G space division:  proc/nbgrp/npool/nimage =      10
     187148 MiB available memory on the printing compute node when the environment starts
 
     Reading input from 111_surface.in
Warning: card &CELL ignored
Warning: card / ignored

     Current dimensions of program PWSCF are:
     Max number of different atomic species (ntypx) = 10
     Max number of k-points (npk) =  40000
     Max angular momentum in pseudopotentials (lmaxx) =  4

     File ./pwscf.update deleted, as requested

     File ./pwscf.bfgs deleted, as requested
     file Au.pbe-n-kjpaw_psl.1.0.0.UPF: wavefunction(s)  6S 5D renormalized
     Found identity + ( -0.5000 -0.5000  0.0000) symmetry
     This is a supercell, fractional translations are disabled
     Message from routine setup:
     using ibrav=0 with symmetry is DISCOURAGED, use correct ibrav instead

     Subspace diagonalization in iterative solution of the eigenvalue problem:
     one sub-group per band group will be used
     scalapack distributed-memory algorithm (size of sub-group:  3*  3 procs)

 
     Parallelization info
     --------------------
     sticks:   dense  smooth     PW     G-vecs:    dense   smooth      PW
     Min          82      82     24                27902    27902    4570
     Max          83      83     25                27949    27949    4603
     Sum         827     827    247               279317   279317   45869
 
     Using Slab Decomposition
 


     bravais-lattice index     =            0
     lattice parameter (alat)  =       5.4519  a.u.
     unit-cell volume          =    5841.5018 (a.u.)^3
     number of atoms/cell      =           36
     number of atomic types    =            1
     number of electrons       =       396.00
     number of Kohn-Sham states=          238
     kinetic-energy cutoff     =      50.0000  Ry
     charge density cutoff     =     200.0000  Ry
     scf convergence threshold =      1.0E-06
     mixing beta               =       0.1000
     number of iterations used =            8  plain     mixing
     Exchange-correlation= SLA  PW   PBX  PBC
                           (   1   4   3   4   0   0   0)

     celldm(1)=   5.451852  celldm(2)=   0.000000  celldm(3)=   0.000000
     celldm(4)=   0.000000  celldm(5)=   0.000000  celldm(6)=   0.000000

     crystal axes: (cart. coord. in units of alat)
               a(1) = (   1.000000   0.000000   0.000000 )  
               a(2) = (   0.000000   1.732051   0.000000 )  
               a(3) = (   0.000000   0.000000  20.812861 )  

     reciprocal axes: (cart. coord. in units 2 pi/alat)
               b(1) = (  1.000000  0.000000  0.000000 )  
               b(2) = (  0.000000  0.577350  0.000000 )  
               b(3) = (  0.000000  0.000000  0.048047 )  


     PseudoPot. # 1 for Au read from file:
     ./Au.pbe-n-kjpaw_psl.1.0.0.UPF
     MD5 check sum: 4db85c736373c707a97ce4c36c2a9d23
     Pseudo is Projector augmented-wave + core cor, Zval = 11.0
     Generated using &quot;atomic&quot; code by A. Dal Corso  v.6.3
     Shape of augmentation charge: PSQ
     Using radial grid of 1279 points,  6 beta functions with: 
                l(1) =   0
                l(2) =   0
                l(3) =   1
                l(4) =   1
                l(5) =   2
                l(6) =   2
     Q(r) pseudized with 0 coefficients 


     atomic species   valence    mass     pseudopotential
        Au            11.00   196.96657     Au( 1.00)

      2 Sym. Ops. (no inversion) found



   Cartesian axes

     site n.     atom                  positions (alat units)
         1           Au  tau(   1) = (   0.5000000   0.2886751   3.4662097  )
         2           Au  tau(   2) = (   0.0000000   1.1547005   3.4662097  )
         3           Au  tau(   3) = (   0.0000000   0.5773503   4.2827063  )
         4           Au  tau(   4) = (   0.5000000   1.4433757   4.2827063  )
         5           Au  tau(   5) = (   0.0000000   0.0000000   5.0992029  )
         6           Au  tau(   6) = (   0.5000000   0.8660254   5.0992029  )
         7           Au  tau(   7) = (   0.5000000   0.2886751   5.9156995  )
         8           Au  tau(   8) = (   0.0000000   1.1547005   5.9156995  )
         9           Au  tau(   9) = (   0.0000000   0.5773503   6.7321960  )
        10           Au  tau(  10) = (   0.5000000   1.4433757   6.7321960  )
        11           Au  tau(  11) = (   0.0000000   0.0000000   7.5486926  )
        12           Au  tau(  12) = (   0.5000000   0.8660254   7.5486926  )
        13           Au  tau(  13) = (   0.5000000   0.2886751   8.3651892  )
        14           Au  tau(  14) = (   0.0000000   1.1547005   8.3651892  )
        15           Au  tau(  15) = (   0.0000000   0.5773503   9.1816858  )
        16           Au  tau(  16) = (   0.5000000   1.4433757   9.1816858  )
        17           Au  tau(  17) = (   0.0000000   0.0000000   9.9981824  )
        18           Au  tau(  18) = (   0.5000000   0.8660254   9.9981824  )
        19           Au  tau(  19) = (   0.5000000   0.2886751  10.8146789  )
        20           Au  tau(  20) = (   0.0000000   1.1547005  10.8146789  )
        21           Au  tau(  21) = (   0.0000000   0.5773503  11.6311755  )
        22           Au  tau(  22) = (   0.5000000   1.4433757  11.6311755  )
        23           Au  tau(  23) = (   0.0000000   0.0000000  12.4476721  )
        24           Au  tau(  24) = (   0.5000000   0.8660254  12.4476721  )
        25           Au  tau(  25) = (   0.5000000   0.2886751  13.2641687  )
        26           Au  tau(  26) = (   0.0000000   1.1547005  13.2641687  )
        27           Au  tau(  27) = (   0.0000000   0.5773503  14.0806653  )
        28           Au  tau(  28) = (   0.5000000   1.4433757  14.0806653  )
        29           Au  tau(  29) = (   0.0000000   0.0000000  14.8971618  )
        30           Au  tau(  30) = (   0.5000000   0.8660254  14.8971618  )
        31           Au  tau(  31) = (   0.5000000   0.2886751  15.7136584  )
        32           Au  tau(  32) = (   0.0000000   1.1547005  15.7136584  )
        33           Au  tau(  33) = (   0.0000000   0.5773503  16.5301550  )
        34           Au  tau(  34) = (   0.5000000   1.4433757  16.5301550  )
        35           Au  tau(  35) = (   0.0000000   0.0000000  17.3466516  )
        36           Au  tau(  36) = (   0.5000000   0.8660254  17.3466516  )

     number of k points=    35  Gaussian smearing, width (Ry)=  0.2000
                       cart. coord. in units 2pi/alat
        k(    1) = (   0.0000000   0.0000000   0.0000000), wk =   0.0208333
        k(    2) = (   0.0000000   0.0481125   0.0000000), wk =   0.0416667
        k(    3) = (   0.0000000   0.0962250   0.0000000), wk =   0.0416667
        k(    4) = (   0.0000000   0.1443376   0.0000000), wk =   0.0416667
        k(    5) = (   0.0000000   0.1924501   0.0000000), wk =   0.0416667
        k(    6) = (   0.0000000   0.2405626   0.0000000), wk =   0.0416667
        k(    7) = (   0.0000000  -0.2886751   0.0000000), wk =   0.0208333
        k(    8) = (   0.1250000   0.0000000   0.0000000), wk =   0.0416667
        k(    9) = (   0.1250000   0.0481125   0.0000000), wk =   0.0833333
        k(   10) = (   0.1250000   0.0962250   0.0000000), wk =   0.0833333
        k(   11) = (   0.1250000   0.1443376   0.0000000), wk =   0.0833333
        k(   12) = (   0.1250000   0.1924501   0.0000000), wk =   0.0833333
        k(   13) = (   0.1250000   0.2405626   0.0000000), wk =   0.0833333
        k(   14) = (   0.1250000  -0.2886751   0.0000000), wk =   0.0416667
        k(   15) = (   0.2500000   0.0000000   0.0000000), wk =   0.0416667
        k(   16) = (   0.2500000   0.0481125   0.0000000), wk =   0.0833333
        k(   17) = (   0.2500000   0.0962250   0.0000000), wk =   0.0833333
        k(   18) = (   0.2500000   0.1443376   0.0000000), wk =   0.0833333
        k(   19) = (   0.2500000   0.1924501   0.0000000), wk =   0.0833333
        k(   20) = (   0.2500000   0.2405626   0.0000000), wk =   0.0833333
        k(   21) = (   0.2500000  -0.2886751   0.0000000), wk =   0.0416667
        k(   22) = (   0.3750000   0.0000000   0.0000000), wk =   0.0416667
        k(   23) = (   0.3750000   0.0481125   0.0000000), wk =   0.0833333
        k(   24) = (   0.3750000   0.0962250   0.0000000), wk =   0.0833333
        k(   25) = (   0.3750000   0.1443376   0.0000000), wk =   0.0833333
        k(   26) = (   0.3750000   0.1924501   0.0000000), wk =   0.0833333
        k(   27) = (   0.3750000   0.2405626   0.0000000), wk =   0.0833333
        k(   28) = (   0.3750000  -0.2886751   0.0000000), wk =   0.0416667
        k(   29) = (  -0.5000000   0.0000000   0.0000000), wk =   0.0208333
        k(   30) = (  -0.5000000   0.0481125   0.0000000), wk =   0.0416667
        k(   31) = (  -0.5000000   0.0962250   0.0000000), wk =   0.0416667
        k(   32) = (  -0.5000000   0.1443376   0.0000000), wk =   0.0416667
        k(   33) = (  -0.5000000   0.1924501   0.0000000), wk =   0.0416667
        k(   34) = (  -0.5000000   0.2405626   0.0000000), wk =   0.0416667
        k(   35) = (  -0.5000000  -0.2886751   0.0000000), wk =   0.0208333

     Dense  grid:   279317 G-vectors     FFT dimensions: (  25,  45, 512)

     Estimated max dynamical RAM per process >     631.98 MB

     Estimated total dynamical RAM >       6.17 GB

     Initial potential from superposition of free atoms

     starting charge     395.9961, renormalised to     396.0000

     negative rho (up, down):  7.328E-03 0.000E+00
     Starting wfcs are  324 randomized atomic wfcs
     Checking if some PAW data can be deallocated... 

     total cpu time spent up to now is       40.7 secs

     Self-consistent Calculation

     iteration #  1     ecut=    50.00 Ry     beta= 0.10
     Davidson diagonalization with overlap
     ethr =  1.00E-02,  avg # of iterations =  5.9

     Threshold (ethr) on eigenvalues was too large:
     Diagonalizing with lowered threshold

     Davidson diagonalization with overlap
     ethr =  8.80E-04,  avg # of iterations =  6.7

     negative rho (up, down):  3.126E-03 0.000E+00

     total cpu time spent up to now is      265.8 secs

     total energy              =  -27906.82015542 Ry
     estimated scf accuracy    <       4.19782663 Ry

     iteration #  2     ecut=    50.00 Ry     beta= 0.10
     Davidson diagonalization with overlap
     c_bands:  1 eigenvalues not converged
     ethr =  1.06E-03,  avg # of iterations = 13.9

     negative rho (up, down):  3.133E-03 0.000E+00

     total cpu time spent up to now is      404.6 secs

     total energy              =  -27903.40564843 Ry
     estimated scf accuracy    <     964.47334553 Ry

     iteration #  3     ecut=    50.00 Ry     beta= 0.10
     Davidson diagonalization with overlap
     ethr =  1.06E-03,  avg # of iterations = 12.1

     negative rho (up, down):  3.104E-03 0.000E+00

     total cpu time spent up to now is      537.4 secs

     total energy              =  -27907.08034129 Ry
     estimated scf accuracy    <       7.00021504 Ry

     iteration #  4     ecut=    50.00 Ry     beta= 0.10
     Davidson diagonalization with overlap
     ethr =  1.06E-03,  avg # of iterations =  1.9

     negative rho (up, down):  3.037E-03 0.000E+00

     total cpu time spent up to now is      624.2 secs

     total energy              =  -27907.01825917 Ry
     estimated scf accuracy    <      10.43670192 Ry

     iteration #  5     ecut=    50.00 Ry     beta= 0.10
     Davidson diagonalization with overlap
     ethr =  1.06E-03,  avg # of iterations =  2.2

     negative rho (up, down):  2.757E-03 0.000E+00

     total cpu time spent up to now is      708.7 secs

     total energy              =  -27906.38440001 Ry
     estimated scf accuracy    <     197.16086840 Ry

     iteration #  6     ecut=    50.00 Ry     beta= 0.10
     Davidson diagonalization with overlap
     ethr =  1.06E-03,  avg # of iterations =  1.1

     negative rho (up, down):  2.408E-03 0.000E+00

     total cpu time spent up to now is      785.9 secs

     total energy              =  -27906.56047413 Ry
     estimated scf accuracy    <       2.10926103 Ry

     iteration #  7     ecut=    50.00 Ry     beta= 0.10
     Davidson diagonalization with overlap
     ethr =  5.33E-04,  avg # of iterations =  1.5

     negative rho (up, down):  2.435E-03 0.000E+00

     total cpu time spent up to now is      867.5 secs

     total energy              =  -27906.63065681 Ry
     estimated scf accuracy    <       1.24029277 Ry

     iteration #  8     ecut=    50.00 Ry     beta= 0.10
     Davidson diagonalization with overlap
     ethr =  3.13E-04,  avg # of iterations =  1.8

     negative rho (up, down):  2.518E-03 0.000E+00

     total cpu time spent up to now is      952.2 secs

     total energy              =  -27906.64746124 Ry
     estimated scf accuracy    <       4.90027141 Ry

     iteration #  9     ecut=    50.00 Ry     beta= 0.10
     Davidson diagonalization with overlap
     ethr =  3.13E-04,  avg # of iterations =  1.0

     negative rho (up, down):  2.746E-03 0.000E+00

     total cpu time spent up to now is     1028.3 secs

     total energy              =  -27906.72729670 Ry
     estimated scf accuracy    <       0.05689189 Ry

     iteration # 10     ecut=    50.00 Ry     beta= 0.10
     Davidson diagonalization with overlap
     c_bands:  1 eigenvalues not converged
     c_bands:  1 eigenvalues not converged
     c_bands:  2 eigenvalues not converged
     c_bands:  1 eigenvalues not converged
     ethr =  1.44E-05,  avg # of iterations = 11.9

     negative rho (up, down):  2.746E-03 0.000E+00

     total cpu time spent up to now is     1224.6 secs

     total energy              =  -27906.75572193 Ry
     estimated scf accuracy    <       0.04147621 Ry

     iteration # 11     ecut=    50.00 Ry     beta= 0.10
     Davidson diagonalization with overlap
     ethr =  1.05E-05,  avg # of iterations =  2.5

     negative rho (up, down):  2.741E-03 0.000E+00

     total cpu time spent up to now is     1321.4 secs

     total energy              =  -27906.76098752 Ry
     estimated scf accuracy    <       0.04289635 Ry

     iteration # 12     ecut=    50.00 Ry     beta= 0.10
     Davidson diagonalization with overlap
     c_bands:  1 eigenvalues not converged
     ethr =  1.05E-05,  avg # of iterations =  3.5

     negative rho (up, down):  2.838E-03 0.000E+00

     total cpu time spent up to now is     1444.9 secs

     total energy              =  -27906.75380210 Ry
     estimated scf accuracy    <       0.33273974 Ry

     iteration # 13     ecut=    50.00 Ry     beta= 0.10
     Davidson diagonalization with overlap
     ethr =  1.05E-05,  avg # of iterations =  1.1

     negative rho (up, down):  2.848E-03 0.000E+00

     total cpu time spent up to now is     1560.1 secs

     total energy              =  -27906.75796878 Ry
     estimated scf accuracy    <       0.06321653 Ry

     iteration # 14     ecut=    50.00 Ry     beta= 0.10
     Davidson diagonalization with overlap
     ethr =  1.05E-05,  avg # of iterations =  1.0

     negative rho (up, down):  2.866E-03 0.000E+00

     total cpu time spent up to now is     1672.9 secs

     total energy              =  -27906.75759280 Ry
     estimated scf accuracy    <       0.07253920 Ry

     iteration # 15     ecut=    50.00 Ry     beta= 0.10
     Davidson diagonalization with overlap
     ethr =  1.05E-05,  avg # of iterations =  1.2

     negative rho (up, down):  2.952E-03 0.000E+00

     total cpu time spent up to now is     1790.3 secs

     total energy              =  -27906.75489657 Ry
     estimated scf accuracy    <       0.38957566 Ry

     iteration # 16     ecut=    50.00 Ry     beta= 0.10
     Davidson diagonalization with overlap
     ethr =  1.05E-05,  avg # of iterations =  1.0

     negative rho (up, down):  3.271E-03 0.000E+00

     total cpu time spent up to now is     1903.1 secs

     total energy              =  -27906.75313937 Ry
     estimated scf accuracy    <       0.03775239 Ry

     iteration # 17     ecut=    50.00 Ry     beta= 0.10
     Davidson diagonalization with overlap
     ethr =  9.53E-06,  avg # of iterations =  2.1

     negative rho (up, down):  3.930E-03 0.000E+00

     total cpu time spent up to now is     2028.2 secs

     total energy              =  -27906.75125027 Ry
     estimated scf accuracy    <       0.02956703 Ry

     iteration # 18     ecut=    50.00 Ry     beta= 0.10
     Davidson diagonalization with overlap
     ethr =  7.47E-06,  avg # of iterations =  6.0

     negative rho (up, down):  4.904E-03 0.000E+00

     total cpu time spent up to now is     2178.3 secs

     total energy              =  -27906.74999227 Ry
     estimated scf accuracy    <       0.01981618 Ry

     iteration # 19     ecut=    50.00 Ry     beta= 0.10
     Davidson diagonalization with overlap
     ethr =  5.00E-06,  avg # of iterations =  5.5

     negative rho (up, down):  4.645E-03 0.000E+00

     total cpu time spent up to now is     2331.6 secs

     total energy              =  -27906.74936867 Ry
     estimated scf accuracy    <       0.09612863 Ry

     iteration # 20     ecut=    50.00 Ry     beta= 0.10
     Davidson diagonalization with overlap
     ethr =  5.00E-06,  avg # of iterations =  2.0

     negative rho (up, down):  4.859E-03 0.000E+00

     total cpu time spent up to now is     2459.9 secs

     total energy              =  -27906.75018126 Ry
     estimated scf accuracy    <       0.00962003 Ry

     iteration # 21     ecut=    50.00 Ry     beta= 0.10
     Davidson diagonalization with overlap
     ethr =  2.43E-06,  avg # of iterations =  4.8

     negative rho (up, down):  4.905E-03 0.000E+00

     total cpu time spent up to now is     2610.1 secs

     total energy              =  -27906.75040054 Ry
     estimated scf accuracy    <       0.01797584 Ry

     iteration # 22     ecut=    50.00 Ry     beta= 0.10
     Davidson diagonalization with overlap
     ethr =  2.43E-06,  avg # of iterations =  1.1

     negative rho (up, down):  4.741E-03 0.000E+00

     total cpu time spent up to now is     2726.1 secs

     total energy              =  -27906.75085063 Ry
     estimated scf accuracy    <       0.00020477 Ry

     iteration # 23     ecut=    50.00 Ry     beta= 0.10
     Davidson diagonalization with overlap
     ethr =  5.17E-08,  avg # of iterations =  7.0

     negative rho (up, down):  4.717E-03 0.000E+00

     total cpu time spent up to now is     3007.3 secs

     total energy              =  -27906.75092817 Ry
     estimated scf accuracy    <       0.00231394 Ry

     iteration # 24     ecut=    50.00 Ry     beta= 0.10
     Davidson diagonalization with overlap
     ethr =  5.17E-08,  avg # of iterations =  2.5

     negative rho (up, down):  4.696E-03 0.000E+00

     total cpu time spent up to now is     3145.8 secs

     total energy              =  -27906.75092293 Ry
     estimated scf accuracy    <       0.00433205 Ry

     iteration # 25     ecut=    50.00 Ry     beta= 0.10
     Davidson diagonalization with overlap
     ethr =  5.17E-08,  avg # of iterations =  2.2

     negative rho (up, down):  4.666E-03 0.000E+00

     total cpu time spent up to now is     3279.3 secs

     total energy              =  -27906.75085214 Ry
     estimated scf accuracy    <       0.03977418 Ry

     iteration # 26     ecut=    50.00 Ry     beta= 0.10
     Davidson diagonalization with overlap
     ethr =  5.17E-08,  avg # of iterations =  2.5

     negative rho (up, down):  4.533E-03 0.000E+00

     total cpu time spent up to now is     3417.6 secs

     total energy              =  -27906.75095820 Ry
     estimated scf accuracy    <       0.00048076 Ry

     iteration # 27     ecut=    50.00 Ry     beta= 0.10
     Davidson diagonalization with overlap
     ethr =  5.17E-08,  avg # of iterations =  1.1

     negative rho (up, down):  4.475E-03 0.000E+00

     total cpu time spent up to now is     3533.6 secs

     total energy              =  -27906.75096551 Ry
     estimated scf accuracy    <       0.00008850 Ry

     iteration # 28     ecut=    50.00 Ry     beta= 0.10
     Davidson diagonalization with overlap
     ethr =  2.23E-08,  avg # of iterations =  1.7

     negative rho (up, down):  4.375E-03 0.000E+00

     total cpu time spent up to now is     3661.4 secs

     total energy              =  -27906.75096976 Ry
     estimated scf accuracy    <       0.00003133 Ry

     iteration # 29     ecut=    50.00 Ry     beta= 0.10
     Davidson diagonalization with overlap
     ethr =  7.91E-09,  avg # of iterations =  3.5

     negative rho (up, down):  4.333E-03 0.000E+00

     total cpu time spent up to now is     3804.5 secs

     total energy              =  -27906.75097194 Ry
     estimated scf accuracy    <       0.00003231 Ry

     iteration # 30     ecut=    50.00 Ry     beta= 0.10
     Davidson diagonalization with overlap
     ethr =  7.91E-09,  avg # of iterations =  1.6

     negative rho (up, down):  4.324E-03 0.000E+00

     total cpu time spent up to now is     3930.8 secs

     total energy              =  -27906.75097255 Ry
     estimated scf accuracy    <       0.00003907 Ry

     iteration # 31     ecut=    50.00 Ry     beta= 0.10
     Davidson diagonalization with overlap
     ethr =  7.91E-09,  avg # of iterations =  1.1

     negative rho (up, down):  4.294E-03 0.000E+00

     total cpu time spent up to now is     4044.9 secs

     total energy              =  -27906.75097366 Ry
     estimated scf accuracy    <       0.00001202 Ry

     iteration # 32     ecut=    50.00 Ry     beta= 0.10
     Davidson diagonalization with overlap
     ethr =  3.04E-09,  avg # of iterations =  1.9

     negative rho (up, down):  4.268E-03 0.000E+00

     total cpu time spent up to now is     4178.8 secs

     total energy              =  -27906.75097425 Ry
     estimated scf accuracy    <       0.00001096 Ry

     iteration # 33     ecut=    50.00 Ry     beta= 0.10
     Davidson diagonalization with overlap
     ethr =  2.77E-09,  avg # of iterations =  1.7

     negative rho (up, down):  4.257E-03 0.000E+00

     total cpu time spent up to now is     4308.5 secs

     total energy              =  -27906.75097430 Ry
     estimated scf accuracy    <       0.00002548 Ry

     iteration # 34     ecut=    50.00 Ry     beta= 0.10
     Davidson diagonalization with overlap
     ethr =  2.77E-09,  avg # of iterations =  1.3

     negative rho (up, down):  4.256E-03 0.000E+00

     total cpu time spent up to now is     4428.7 secs

     total energy              =  -27906.75097398 Ry
     estimated scf accuracy    <       0.00010036 Ry

     iteration # 35     ecut=    50.00 Ry     beta= 0.10
     Davidson diagonalization with overlap
     ethr =  2.77E-09,  avg # of iterations =  1.8

     negative rho (up, down):  4.248E-03 0.000E+00

     total cpu time spent up to now is     4553.2 secs

     total energy              =  -27906.75097119 Ry
     estimated scf accuracy    <       0.00139590 Ry

     iteration # 36     ecut=    50.00 Ry     beta= 0.10
     Davidson diagonalization with overlap
     ethr =  2.77E-09,  avg # of iterations =  1.9

     negative rho (up, down):  4.233E-03 0.000E+00

     total cpu time spent up to now is     4687.1 secs

     total energy              =  -27906.75097474 Ry
     estimated scf accuracy    <       0.00002371 Ry

     iteration # 37     ecut=    50.00 Ry     beta= 0.10
     Davidson diagonalization with overlap
     ethr =  2.77E-09,  avg # of iterations =  1.2

     negative rho (up, down):  4.226E-03 0.000E+00

     total cpu time spent up to now is     4804.4 secs

     total energy              =  -27906.75097516 Ry
     estimated scf accuracy    <       0.00000445 Ry

     iteration # 38     ecut=    50.00 Ry     beta= 0.10
     Davidson diagonalization with overlap
     ethr =  1.12E-09,  avg # of iterations =  1.9

     negative rho (up, down):  4.223E-03 0.000E+00

     total cpu time spent up to now is     4938.1 secs

     total energy              =  -27906.75097523 Ry
     estimated scf accuracy    <       0.00000253 Ry

     iteration # 39     ecut=    50.00 Ry     beta= 0.10
     Davidson diagonalization with overlap
     ethr =  6.39E-10,  avg # of iterations =  1.2

     negative rho (up, down):  4.265E-03 0.000E+00

     total cpu time spent up to now is     5055.1 secs

     End of self-consistent calculation

          k = 0.0000 0.0000 0.0000 ( 34887 PWs)   bands (ev):

    -0.3652  -0.2845  -0.1523   0.0275   0.2502   0.5084   0.7923   1.0876
     1.3747   1.6298   1.8309   1.9669   2.0432   2.0769   2.0873   2.0883
     2.1082   2.1687   2.2658   2.2983   2.2984   2.3411   2.3871   2.3931
     2.4592   2.5390   2.5516   2.6362   2.6479   2.6783   2.6942   2.7473
     2.7501   2.8249   2.8376   2.8542   2.9074   2.9095   2.9896   3.1477
     3.2194   3.2474   3.3893   3.6110   3.8443   4.0555   4.2082   4.3103
     4.3960   4.4627   4.4639   4.4748   4.5174   4.5189   4.5450   4.5867
     4.5940   4.6000   4.6381   4.6381   4.6438   4.6458   4.6471   4.6486
     4.6552   4.6576   4.6576   4.6780   4.6780   4.6888   4.6888   4.6995
     4.7074   4.7074   4.7131   4.7297   4.7297   4.7528   4.7528   4.7777
     4.7777   4.7830   4.8087   4.8087   4.8290   4.8290   4.8481   4.8670
     4.8670   4.8790   4.8790   4.8973   4.9172   4.9172   4.9215   4.9215
     4.9496   4.9496   4.9502   4.9502   5.0400   5.0609   5.0671   5.0758
     5.2085   5.2488   5.2488   5.2488   5.2488   5.2711   5.3022   5.3996
     5.4183   5.5612   5.6097   5.6208   5.8342   5.8708   5.9028   5.9809
     6.0681   6.1234   6.1234   6.1245   6.1245   6.1455   6.1455   6.1491
     6.1491   6.1680   6.1680   6.1740   6.1740   6.2185   6.2185   6.2729
     6.2899   6.2899   6.3050   6.3581   6.3882   6.3882   6.4128   6.5110
     6.5110   6.5373   6.6483   6.6511   6.6511   6.7307   6.7558   6.7994
     6.7994   6.9459   6.9459   6.9500   7.0036   7.0174   7.0646   7.0815
     7.0815   7.1083   7.1977   7.1977   7.2212   7.2869   7.2869   7.2872
     7.2968   7.3079   7.3160   7.3436   7.3436   7.3663   7.3663   7.3710
     7.3756   7.3832   7.3934   7.4058   7.4203   7.4365   7.4540   7.4729
     7.4931   7.5151   7.5246   7.5403   7.5706   7.6072   7.6467   7.6480
     7.6509   7.6785   7.8263   7.8263   8.2342   8.6625   8.9344   9.2516
     9.2572   9.2791   9.5590   9.8302  10.0534  10.2274  10.3578  10.4524
    10.5185  10.5497  10.5613  10.5696  10.5840  10.5901  10.5949  10.8713
    10.8714  12.5286  12.6157  12.7468  12.7619  12.9624  13.1980  13.3457
    13.4350  13.6684  13.9445  14.0538  14.2943  14.4467  14.6979  14.7591
    14.8925  15.1168  15.3020  15.5120  15.5169  15.5218

          k = 0.0000 0.0481 0.0000 ( 34871 PWs)   bands (ev):

    -0.3111  -0.2306  -0.0989   0.0804   0.3025   0.5603   0.8438   1.1390
     1.4263   1.6816   1.8823   2.0171   2.0917   2.1096   2.1238   2.1331
     2.1337   2.1701   2.2671   2.3471   2.3472   2.3636   2.3944   2.4083
     2.4775   2.5420   2.5650   2.6586   2.6619   2.6916   2.7022   2.7603
     2.7738   2.8147   2.8530   2.8761   2.8933   2.9694   3.0113   3.1672
     3.2357   3.2627   3.4058   3.6250   3.8541   4.0568   4.2038   4.3207
     4.4099   4.4148   4.4192   4.4655   4.4757   4.4934   4.5403   4.5517
     4.5607   4.6093   4.6115   4.6148   4.6256   4.6296   4.6553   4.6606
     4.6609   4.6619   4.6667   4.6720   4.6916   4.6917   4.6992   4.7045
     4.7116   4.7228   4.7293   4.7323   4.7544   4.7560   4.7639   4.7760
     4.7945   4.7963   4.8120   4.8176   4.8257   4.8336   4.8614   4.8636
     4.8941   4.9051   4.9080   4.9141   4.9328   4.9385   4.9464   4.9466
     4.9573   4.9666   4.9726   4.9803   4.9866   5.0361   5.0496   5.1166
     5.1866   5.2168   5.2169   5.2361   5.2794   5.2795   5.3184   5.3420
     5.4063   5.5014   5.5998   5.6145   5.7204   5.8369   5.8585   5.9321
     6.0089   6.0124   6.0502   6.0544   6.0682   6.1035   6.1093   6.1459
     6.1579   6.1613   6.1820   6.1949   6.2031   6.2095   6.2275   6.2419
     6.2496   6.2981   6.3022   6.3046   6.3290   6.3973   6.4369   6.5168
     6.5311   6.5551   6.5856   6.5873   6.6552   6.6792   6.7459   6.7565
     6.8026   6.8453   6.9201   6.9361   6.9437   6.9488   7.0300   7.0327
     7.0844   7.0908   7.1069   7.2006   7.2017   7.2050   7.2085   7.2679
     7.2826   7.2900   7.2972   7.3131   7.3190   7.3286   7.3408   7.3416
     7.3468   7.3574   7.3698   7.3756   7.3956   7.4166   7.4378   7.4581
     7.4582   7.4765   7.4949   7.5231   7.5651   7.5831   7.6113   7.6232
     7.6480   7.7772   7.7773   8.0621   8.2091   8.4717   8.5721   8.7519
     9.0031   9.2038   9.3410   9.4106   9.4209   9.4519   9.4528   9.5751
     9.8317  10.2009  10.6213  11.0314  11.3710  11.5954  11.7177  11.7829
    11.8135  12.5105  12.6271  12.7495  12.8093  13.0392  13.2913  13.3595
    13.5416  13.7980  14.0759  14.0940  14.4387  14.4845  14.7968  14.7979
    14.9260  15.0744  15.0863  15.3458  15.5479  15.7495

          k = 0.0000 0.0962 0.0000 ( 34811 PWs)   bands (ev):

    -0.1506  -0.0711   0.0593   0.2368   0.4570   0.7129   0.9950   1.2896
     1.5771   1.8327   2.0323   2.1070   2.1633   2.1673   2.2326   2.2598
     2.2639   2.2644   2.2688   2.3907   2.4275   2.4673   2.4891   2.4892
     2.5291   2.5371   2.6071   2.6790   2.7009   2.7258   2.7694   2.7734
     2.8077   2.8414   2.8584   2.9406   2.9639   3.0544   3.0776   3.2224
     3.2817   3.3104   3.4552   3.6659   3.8839   4.0664   4.1992   4.2685
     4.3214   4.3277   4.3337   4.3823   4.4111   4.4585   4.4665   4.5010
     4.5278   4.5462   4.5501   4.5530   4.5792   4.5861   4.6081   4.6329
     4.6334   4.6531   4.6867   4.6883   4.6930   4.6972   4.7145   4.7468
     4.7559   4.7586   4.7723   4.7745   4.7907   4.7921   4.7986   4.8137
     4.8233   4.8280   4.8406   4.8413   4.8647   4.8867   4.9046   4.9135
     4.9189   4.9391   4.9454   4.9656   4.9689   4.9729   4.9844   4.9951
     5.0138   5.0170   5.0224   5.0338   5.0608   5.0751   5.0775   5.0903
     5.1009   5.1153   5.1885   5.2345   5.2384   5.2407   5.3682   5.3683
     5.3787   5.4254   5.4333   5.4925   5.6276   5.7317   5.7537   5.7781
     5.8430   5.8811   5.8880   5.9411   5.9479   6.0134   6.0269   6.0656
     6.0659   6.0775   6.1030   6.1094   6.1186   6.1623   6.1832   6.2227
     6.2401   6.2842   6.2897   6.2941   6.3384   6.3451   6.3869   6.4204
     6.4217   6.4973   6.5064   6.5081   6.5320   6.5727   6.6659   6.7066
     6.7125   6.7215   6.8112   6.8211   6.8577   6.8805   6.9567   6.9874
     7.0206   7.0463   7.0923   7.1015   7.1256   7.1543   7.1632   7.1657
     7.1776   7.1960   7.1989   7.2088   7.2223   7.2350   7.2496   7.2658
     7.2785   7.2986   7.3076   7.3342   7.3535   7.3548   7.3560   7.3619
     7.3784   7.3801   7.4043   7.4157   7.4396   7.4698   7.5311   7.5800
     7.6450   7.6462   7.7115   7.7347   7.9555   8.1333   8.1544   8.2948
     8.3603   8.3634   8.4430   8.6171   8.7143   9.1506   9.1683   9.7101
     9.8361   9.9006  10.2919  10.8919  11.4938  12.0764  12.5859  12.7627
    12.8747  12.9259  13.0005  13.0892  13.2151  13.4062  13.4085  13.6407
    13.8912  14.1406  14.1453  14.4024  14.5973  14.7146  14.9151  15.0279
    15.0743  15.4668  15.6572  15.8544  15.8823  16.3084

          k = 0.0000 0.1443 0.0000 ( 34799 PWs)   bands (ev):

     0.1100   0.1878   0.3152   0.4890   0.7048   0.9562   1.2344   1.5264
     1.8129   2.0681   2.0767   2.1360   2.2310   2.2649   2.3548   2.3886
     2.4473   2.4634   2.4728   2.4878   2.4960   2.5180   2.5495   2.5957
     2.6345   2.6532   2.7086   2.7098   2.7099   2.7341   2.8226   2.8361
     2.8810   2.9330   2.9564   3.0501   3.0593   3.1666   3.1798   3.3065
     3.3525   3.3960   3.5389   3.7325   3.9344   4.0751   4.0975   4.1391
     4.2040   4.2105   4.2311   4.2761   4.3365   4.3375   4.3680   4.4071
     4.4323   4.4399   4.4621   4.4736   4.4767   4.5132   4.5237   4.5622
     4.6048   4.6048   4.6651   4.6703   4.7054   4.7128   4.7454   4.7543
     4.7621   4.7808   4.8023   4.8214   4.8423   4.8467   4.8781   4.8808
     4.8886   4.9062   4.9119   4.9226   4.9342   4.9348   4.9539   4.9595
     4.9704   4.9856   4.9878   4.9938   5.0057   5.0077   5.0275   5.0276
     5.0765   5.0849   5.0901   5.0904   5.1210   5.1305   5.1327   5.1686
     5.1835   5.1859   5.1951   5.2268   5.2286   5.2302   5.2581   5.2774
     5.3118   5.3954   5.4534   5.4742   5.5016   5.5026   5.5746   5.6397
     5.6448   5.7408   5.7475   5.7687   5.8273   5.8465   5.8534   5.8610
     5.8835   5.9327   5.9555   5.9911   6.0163   6.0339   6.0518   6.0599
     6.1280   6.1576   6.1743   6.2267   6.2372   6.2423   6.2528   6.3115
     6.3378   6.3739   6.4402   6.4439   6.4494   6.4599   6.5519   6.5868
     6.6053   6.6634   6.6798   6.7328   6.7441   6.7970   6.8224   6.8587
     6.8788   6.9207   6.9230   6.9339   6.9532   6.9568   6.9674   6.9732
     6.9868   7.0205   7.0346   7.0631   7.0638   7.1022   7.1034   7.1258
     7.1322   7.1378   7.1602   7.1653   7.1799   7.1921   7.2087   7.2208
     7.2847   7.2909   7.3115   7.3510   7.3700   7.3958   7.4048   7.4105
     7.4243   7.4552   7.4669   7.4842   7.4869   7.5190   7.5457   7.6232
     7.7918   8.0616   8.1822   8.5942   8.6383   9.1622   9.1652   9.7454
     9.7492  10.3449  10.3834  10.5201  10.9399  11.5258  12.0981  12.6604
    12.8036  13.2111  13.5017  13.9820  14.2706  14.2713  14.3607  14.4139
    14.5484  14.6806  14.7837  14.9797  15.1112  15.2038  15.3300  15.6984
    15.8424  16.0286  16.0449  16.3251  16.5552  16.8353

          k = 0.0000 0.1925 0.0000 ( 34773 PWs)   bands (ev):

     0.4589   0.5334   0.6555   0.8219   1.0289   1.2704   1.5387   1.8219
     1.9685   2.0252   2.1020   2.1154   2.2313   2.3522   2.3598   2.4776
     2.5404   2.5477   2.5703   2.6093   2.6466   2.6660   2.6863   2.7102
     2.7318   2.7434   2.7768   2.8122   2.9108   2.9781   2.9782   2.9865
     3.0152   3.0472   3.1040   3.1586   3.2107   3.2754   3.3289   3.4047
     3.4540   3.5208   3.6584   3.8256   3.8539   3.9217   4.0029   4.0194
     4.1182   4.1325   4.1616   4.1881   4.2312   4.2487   4.2685   4.2839
     4.2950   4.3250   4.3417   4.3489   4.3820   4.4001   4.4402   4.4671
     4.4919   4.4987   4.5866   4.6933   4.7039   4.7236   4.7689   4.7799
     4.7950   4.8095   4.8150   4.8265   4.8326   4.8567   4.8724   4.8803
     4.9025   4.9181   4.9191   4.9249   4.9473   4.9635   4.9645   4.9672
     4.9864   5.0047   5.0195   5.0283   5.0491   5.0685   5.0893   5.1117
     5.1129   5.1486   5.1682   5.1751   5.1765   5.1812   5.2000   5.2127
     5.2403   5.2426   5.2669   5.2927   5.2980   5.3139   5.3195   5.3217
     5.3493   5.3883   5.4051   5.4163   5.4284   5.4539   5.4574   5.4841
     5.4845   5.5377   5.5813   5.6025   5.6157   5.6170   5.6395   5.6579
     5.7257   5.7312   5.8283   5.8343   5.8355   5.8436   5.9451   5.9603
     6.0046   6.0228   6.0552   6.0737   6.1591   6.1607   6.1870   6.1879
     6.2569   6.2934   6.3070   6.3082   6.3401   6.3853   6.4098   6.4116
     6.4510   6.4600   6.4837   6.5129   6.5755   6.6048   6.6309   6.6391
     6.6589   6.6832   6.6862   6.6949   6.6972   6.7102   6.7343   6.7416
     6.7523   6.7695   6.7888   6.7977   6.8046   6.8339   6.8417   6.8563
     6.8931   6.9038   6.9361   6.9665   6.9784   6.9871   6.9996   7.0316
     7.0848   7.1152   7.1155   7.1268   7.1940   7.2345   7.2461   7.3066
     7.3269   7.3871   7.4041   7.4152   7.4391   7.4718   7.5072   7.6897
     7.7907   8.1833   8.1848   8.6238   8.7116   9.1224   9.2590   9.6858
     9.8195  10.3085  10.3885  10.9659  10.9735  11.2389  11.5556  12.1596
    12.7521  12.9069  13.6716  14.0354  14.4661  14.5198  15.0427  15.2107
    15.3806  15.4682  15.7139  15.8255  15.8742  16.0577  16.1015  16.2764
    16.2798  16.4959  16.6256  16.9188  17.0806  17.0949

          k = 0.0000 0.2406 0.0000 ( 34784 PWs)   bands (ev):

     0.8748   0.9436   1.0562   1.2095   1.3996   1.6210   1.7145   1.7694
     1.8570   1.8667   1.9709   2.1028   2.1263   2.2422   2.3803   2.3835
     2.5130   2.6112   2.6382   2.7454   2.7697   2.8225   2.8455   2.8956
     2.8971   2.9571   2.9911   3.0285   3.0956   3.1025   3.1736   3.2063
     3.2406   3.2417   3.2509   3.2937   3.3630   3.4013   3.4624   3.5140
     3.5783   3.6222   3.6839   3.6916   3.7891   3.8082   3.9002   3.9411
     4.0104   4.0763   4.0841   4.0984   4.1304   4.1571   4.1650   4.2102
     4.2178   4.2497   4.2795   4.2851   4.3358   4.3446   4.3677   4.4032
     4.4092   4.4387   4.4836   4.5198   4.6133   4.6472   4.6550   4.7355
     4.7562   4.7653   4.7955   4.8407   4.8489   4.8643   4.8759   4.9022
     4.9115   4.9171   4.9241   4.9375   4.9461   4.9542   4.9573   4.9661
     4.9717   4.9767   4.9961   4.9978   5.0139   5.0175   5.0235   5.0440
     5.0692   5.0821   5.1139   5.1251   5.1385   5.1506   5.1738   5.2255
     5.2317   5.2358   5.2446   5.2847   5.3334   5.3645   5.3661   5.3983
     5.4073   5.4173   5.4463   5.4784   5.4858   5.4944   5.5099   5.5173
     5.5435   5.5553   5.5853   5.5961   5.6491   5.6524   5.6764   5.6825
     5.6896   5.7281   5.7634   5.7639   5.7802   5.7848   5.7955   5.8715
     5.8721   5.8746   5.8856   5.9141   5.9653   5.9756   6.0347   6.0578
     6.0603   6.1437   6.1486   6.1656   6.2248   6.2380   6.2417   6.2746
     6.3002   6.3045   6.3206   6.3244   6.3344   6.3357   6.3645   6.3716
     6.3958   6.4043   6.4122   6.4249   6.4743   6.4825   6.5131   6.5233
     6.5380   6.5506   6.6120   6.6187   6.6806   6.7149   6.7322   6.7466
     6.7514   6.7735   6.8065   6.8348   6.8458   6.8611   6.9116   6.9886
     7.0208   7.0361   7.0607   7.1271   7.1538   7.2484   7.2781   7.3432
     7.3640   7.3780   7.4058   7.4363   7.4441   7.4458   7.4809   7.7307
     7.8778   8.1331   8.3482   8.5717   8.8461   9.0517   9.3662   9.5820
     9.9077  10.1705  10.4747  10.8196  11.0738  11.5256  11.7075  12.0076
    12.3565  13.1310  13.5088  13.9437  14.0539  14.7466  14.8020  15.3742
    15.5623  15.7158  15.8372  16.2335  16.4207  16.5991  16.6215  16.8611
    17.1240  17.1526  17.2562  17.3828  17.4647  17.6060

          k = 0.0000-0.2887 0.0000 ( 34754 PWs)   bands (ev):

     1.3183   1.3183   1.3789   1.3790   1.4776   1.4776   1.6104   1.6104
     1.7727   1.7727   1.9585   1.9585   2.1608   2.1608   2.3707   2.3707
     2.5748   2.5748   2.7487   2.7487   2.8581   2.8581   2.9264   2.9264
     3.0057   3.0057   3.1039   3.1040   3.2133   3.2134   3.3191   3.3191
     3.3793   3.3793   3.4122   3.4123   3.4274   3.4275   3.4829   3.4829
     3.5666   3.5666   3.6666   3.6666   3.7735   3.7735   3.8785   3.8785
     3.9736   3.9736   4.0564   4.0564   4.1337   4.1337   4.1610   4.1610
     4.2131   4.2131   4.2394   4.2394   4.2860   4.2860   4.3457   4.3457
     4.4271   4.4271   4.5027   4.5027   4.5303   4.5304   4.5620   4.5620
     4.6412   4.6412   4.7532   4.7532   4.8491   4.8492   4.9149   4.9149
     4.9434   4.9434   4.9507   4.9507   4.9602   4.9602   4.9847   4.9847
     5.0030   5.0030   5.0258   5.0258   5.0526   5.0526   5.0576   5.0576
     5.0724   5.0724   5.0852   5.0852   5.1318   5.1318   5.1655   5.1655
     5.1913   5.1913   5.2573   5.2573   5.2778   5.2778   5.3212   5.3212
     5.3727   5.3727   5.4017   5.4017   5.5212   5.5212   5.6027   5.6027
     5.6188   5.6188   5.6196   5.6196   5.6390   5.6390   5.6772   5.6772
     5.7288   5.7288   5.7902   5.7902   5.8565   5.8565   5.8606   5.8606
     5.9228   5.9228   5.9263   5.9264   5.9846   5.9846   6.0081   6.0081
     6.0357   6.0357   6.0381   6.0381   6.0791   6.0791   6.0952   6.0952
     6.1053   6.1053   6.1680   6.1681   6.2296   6.2296   6.2502   6.2503
     6.3322   6.3322   6.3967   6.3968   6.4080   6.4080   6.4758   6.4759
     6.5371   6.5371   6.5923   6.5923   6.6190   6.6190   6.6402   6.6402
     6.6869   6.6869   6.7550   6.7551   6.8640   6.8640   6.8995   6.8996
     7.0000   7.0000   7.1385   7.1385   7.2335   7.2335   7.2621   7.2622
     7.3598   7.3598   7.4251   7.4251   7.4582   7.4582   7.6131   7.6131
     8.0305   8.0305   8.4802   8.4802   8.9601   8.9601   9.4727   9.4727
    10.0251  10.0251  10.6251  10.6251  11.2769  11.2769  11.9779  11.9779
    12.7841  12.7841  13.5280  13.5281  14.3304  14.3305  15.1183  15.1185
    15.7769  15.7773  16.1211  16.1214  16.3089  16.3099  16.7803  16.7811
    17.0542  17.0551  17.7179  17.7180  17.9044  17.9046

          k = 0.1250 0.0000 0.0000 ( 34825 PWs)   bands (ev):

    -0.0059   0.0727   0.2016   0.3772   0.5952   0.8490   1.1293   1.4229
     1.7103   1.9662   2.1647   2.2925   2.3571   2.3798   2.3829   2.3846
     2.3993   2.4563   2.5487   2.5498   2.6021   2.6143   2.6143   2.6728
     2.6860   2.7957   2.8223   2.8603   2.8951   2.9207   2.9523   2.9869
     3.0341   3.0470   3.1430   3.1452   3.1594   3.2481   3.2533   3.2902
     3.4497   3.5253   3.5604   3.7018   3.8860   4.0165   4.0945   4.1721
     4.2033   4.2035   4.2498   4.2636   4.2687   4.3255   4.3498   4.3590
     4.3852   4.4250   4.4428   4.4467   4.4545   4.4554   4.4790   4.5165
     4.5254   4.5349   4.5672   4.6248   4.6413   4.6425   4.6697   4.7437
     4.7720   4.8030   4.8064   4.8091   4.8264   4.8496   4.8551   4.8601
     4.8696   4.8822   4.8829   4.8838   4.8885   4.9024   4.9185   4.9441
     4.9525   4.9538   4.9601   4.9662   4.9675   4.9700   4.9998   5.0170
     5.0269   5.0436   5.0501   5.0554   5.0690   5.1107   5.1130   5.1246
     5.1327   5.1615   5.1733   5.1760   5.1825   5.1893   5.2349   5.2793
     5.3962   5.4409   5.4448   5.4554   5.5320   5.5641   5.6115   5.6835
     5.7964   5.8286   5.8303   5.8386   5.8448   5.8920   5.8942   5.9295
     5.9687   5.9756   6.0260   6.0439   6.0555   6.0758   6.0825   6.1520
     6.1667   6.1927   6.2106   6.2189   6.2457   6.2459   6.3004   6.3090
     6.3163   6.3761   6.4057   6.4085   6.4977   6.5095   6.5187   6.6074
     6.6147   6.6687   6.6812   6.7248   6.7442   6.7813   6.7849   6.8384
     6.8652   6.8733   6.9439   6.9909   6.9953   7.0323   7.0326   7.0520
     7.1555   7.1569   7.1575   7.1754   7.1820   7.1835   7.2050   7.2282
     7.2406   7.2573   7.2785   7.2899   7.3133   7.3184   7.3286   7.3366
     7.3648   7.3971   7.4374   7.5117   7.5719   7.5904   7.6060   7.6093
     7.6692   8.0123   8.4393   8.9481   9.5095  10.0202  10.1107  10.1547
    10.2308  10.2570  10.3551  10.4692  10.5696  10.6592  10.7428  10.8260
    10.9137  11.0104  11.1202  11.2450  11.3830  11.5255  11.6552  11.7495
    11.7957  12.5216  12.6583  12.7823  12.8738  13.1434  13.4241  13.4561
    13.6800  13.9442  14.2128  14.2768  14.6772  14.7000  14.9344  15.0239
    15.1227  15.1263  15.2033  15.5728  15.5743  15.7596

          k = 0.1250 0.0481 0.0000 ( 34821 PWs)   bands (ev):

     0.0458   0.1240   0.2523   0.4271   0.6441   0.8969   1.1763   1.4692
     1.7562   2.0118   2.2095   2.3355   2.3974   2.4022   2.4164   2.4216
     2.4331   2.4589   2.5511   2.5727   2.6236   2.6570   2.6571   2.6749
     2.7051   2.8107   2.8240   2.8813   2.9152   2.9325   2.9745   2.9876
     3.0555   3.0592   3.1368   3.1674   3.1781   3.2323   3.2908   3.3114
     3.4666   3.5374   3.5703   3.7075   3.8742   3.9880   4.1035   4.1254
     4.1885   4.1972   4.2272   4.2726   4.2785   4.2918   4.3429   4.3768
     4.3868   4.4011   4.4345   4.4421   4.4590   4.4638   4.4748   4.4793
     4.4992   4.5315   4.5331   4.5495   4.5986   4.6261   4.7005   4.7030
     4.7732   4.7759   4.8183   4.8218   4.8277   4.8346   4.8611   4.8805
     4.8924   4.8963   4.9033   4.9058   4.9149   4.9159   4.9186   4.9467
     4.9599   4.9627   4.9836   4.9864   4.9923   4.9977   5.0067   5.0141
     5.0343   5.0458   5.0635   5.0757   5.0867   5.0915   5.1319   5.1431
     5.1462   5.1813   5.1894   5.1920   5.1974   5.2179   5.2369   5.2526
     5.3845   5.4082   5.4534   5.4735   5.4837   5.5249   5.6126   5.6262
     5.7247   5.7821   5.7835   5.7980   5.8332   5.8554   5.8732   5.8738
     5.9367   5.9675   5.9715   5.9869   6.0399   6.0558   6.0606   6.1047
     6.1138   6.1314   6.1403   6.1772   6.2304   6.2453   6.2698   6.3073
     6.3316   6.3644   6.3684   6.4417   6.4603   6.4621   6.5462   6.5570
     6.5904   6.6113   6.6717   6.6906   6.7003   6.7091   6.7319   6.8387
     6.8411   6.8721   6.9187   6.9523   6.9798   6.9857   6.9882   7.0106
     7.0131   7.0528   7.0557   7.0984   7.1445   7.1627   7.1981   7.2049
     7.2388   7.2708   7.2927   7.2949   7.3195   7.3530   7.3623   7.3741
     7.3782   7.4077   7.4410   7.5127   7.5620   7.5978   7.6426   7.6720
     7.7153   8.0875   8.5311   9.0488   9.4201   9.4949   9.5956   9.6188
     9.7040   9.8142   9.9350  10.0862  10.2590  10.2865  10.3762  10.5435
    10.8525  11.1942  11.5233  11.7554  11.8903  12.0138  12.1382  12.2568
    12.3561  12.5381  12.7123  12.7911  12.9610  13.2477  13.4758  13.5310
    13.7929  14.0736  14.2382  14.4141  14.7373  14.7786  14.9224  15.0625
    15.0879  15.1587  15.2743  15.3830  15.7305  15.7962

          k = 0.1250 0.0962 0.0000 ( 34791 PWs)   bands (ev):

     0.1993   0.2763   0.4026   0.5748   0.7887   1.0381   1.3145   1.6050
     1.8907   2.1455   2.3411   2.4053   2.4613   2.4619   2.5161   2.5299
     2.5432   2.5524   2.5614   2.6375   2.6746   2.6849   2.7593   2.7823
     2.7824   2.8217   2.8536   2.9421   2.9562   2.9831   2.9843   3.0374
     3.0772   3.1235   3.1362   3.1786   3.2295   3.2511   3.3595   3.3635
     3.5139   3.5702   3.6039   3.7279   3.8596   3.9566   4.0210   4.0863
     4.0864   4.1738   4.1803   4.2205   4.2409   4.2897   4.3329   4.3379
     4.3674   4.3785   4.3925   4.3963   4.4312   4.4357   4.4414   4.4495
     4.4806   4.4869   4.5051   4.5124   4.5199   4.5715   4.6200   4.6239
     4.7362   4.7431   4.8036   4.8059   4.8569   4.8604   4.8728   4.9012
     4.9031   4.9066   4.9195   4.9285   4.9417   4.9457   4.9642   4.9666
     4.9872   4.9914   5.0018   5.0106   5.0271   5.0385   5.0393   5.0430
     5.0618   5.0852   5.0930   5.1240   5.1276   5.1318   5.1370   5.1833
     5.1924   5.2011   5.2163   5.2282   5.2434   5.2767   5.2821   5.2883
     5.3137   5.3213   5.3771   5.4409   5.4998   5.5224   5.5458   5.5573
     5.5663   5.6361   5.6962   5.7152   5.7421   5.7471   5.7494   5.7983
     5.8021   5.8355   5.8401   5.8890   5.9070   5.9441   5.9685   6.0070
     6.0278   6.0429   6.1085   6.1673   6.1699   6.2049   6.2199   6.2500
     6.3168   6.3275   6.3291   6.3539   6.3861   6.4398   6.4456   6.4548
     6.4645   6.5018   6.5519   6.5944   6.6519   6.6951   6.7256   6.7343
     6.7523   6.7544   6.7718   6.7974   6.8236   6.8461   6.8627   6.8689
     6.9073   6.9388   6.9690   7.0329   7.0844   7.0848   7.2003   7.2321
     7.2453   7.2722   7.2741   7.3017   7.3326   7.3626   7.3676   7.3873
     7.3882   7.4438   7.5075   7.5419   7.5608   7.5907   7.6417   7.6722
     7.9059   8.3081   8.6838   8.7474   8.7761   8.8286   8.9098   8.9877
     9.0818   9.2253   9.3140   9.4428   9.7439   9.9071  10.1244  10.5475
    10.5706  10.7135  11.0666  11.5962  12.1382  12.6343  12.8242  12.9274
    13.0187  13.1107  13.2465  13.3225  13.4819  13.5404  13.6878  13.8969
    14.1490  14.3174  14.4410  14.5814  14.8234  14.8486  15.1771  15.1799
    15.2672  15.5558  15.9081  15.9499  16.0900  16.3454

          k = 0.1250 0.1443 0.0000 ( 34796 PWs)   bands (ev):

     0.4495   0.5241   0.6466   0.8136   1.0214   1.2641   1.5340   1.8193
     2.1023   2.3564   2.3882   2.4424   2.5301   2.5502   2.6471   2.6638
     2.7069   2.7170   2.7280   2.7352   2.7574   2.7695   2.7867   2.8332
     2.9083   2.9338   2.9795   2.9796   2.9879   3.0397   3.0425   3.0752
     3.0957   3.1437   3.1937   3.2318   3.3047   3.3418   3.4277   3.4696
     3.5739   3.6530   3.6548   3.7755   3.8769   3.9119   3.9507   3.9801
     4.0499   4.0745   4.0783   4.1202   4.1862   4.2027   4.2196   4.2530
     4.2802   4.3000   4.3194   4.3264   4.3280   4.3709   4.3959   4.4005
     4.4330   4.4733   4.5014   4.5059   4.5125   4.5646   4.5904   4.6153
     4.6276   4.6283   4.6770   4.7288   4.7597   4.7601   4.7920   4.8579
     4.8837   4.9044   4.9233   4.9347   4.9496   4.9542   4.9757   4.9805
     5.0012   5.0187   5.0201   5.0267   5.0267   5.0350   5.0516   5.0739
     5.1089   5.1115   5.1129   5.1409   5.1504   5.1585   5.1676   5.1779
     5.2144   5.2205   5.2456   5.2566   5.2919   5.3220   5.3236   5.3363
     5.3484   5.3525   5.3805   5.3916   5.4247   5.4378   5.4688   5.4751
     5.5003   5.5010   5.5411   5.5771   5.6717   5.6793   5.6859   5.7053
     5.7191   5.7761   5.7829   5.8474   5.8497   5.8533   5.8744   5.9316
     5.9372   5.9581   5.9738   5.9895   6.0732   6.0825   6.1101   6.1443
     6.1574   6.2510   6.2589   6.2800   6.3164   6.3670   6.4050   6.4075
     6.4209   6.4347   6.4489   6.4637   6.4755   6.4970   6.5131   6.5528
     6.5716   6.6096   6.6393   6.6943   6.6991   6.7792   6.8323   6.8483
     6.8536   6.9161   7.0039   7.0201   7.0400   7.1426   7.1469   7.1975
     7.2102   7.2412   7.2554   7.2669   7.3065   7.3224   7.3331   7.3394
     7.3984   7.4285   7.4428   7.5071   7.5205   7.5636   7.5950   7.8291
     8.0712   8.1307   8.1931   8.1965   8.2484   8.2836   8.3405   8.4602
     8.6187   8.6682   8.9792   9.1121   9.3787   9.6748   9.8415  10.2973
    10.3476  10.8815  10.9610  11.2229  11.4297  11.9801  12.5241  12.9037
    13.0579  13.5658  13.6660  14.3495  14.3955  14.4594  14.4921  14.6063
    14.8185  14.8472  15.0331  15.1521  15.3793  15.4499  15.5027  15.8650
    16.0999  16.2076  16.2638  16.4595  16.6064  16.8940

          k = 0.1250 0.1925 0.0000 ( 34788 PWs)   bands (ev):

     0.7868   0.8573   0.9731   1.1310   1.3275   1.5577   1.8149   2.0893
     2.3001   2.3497   2.3658   2.4288   2.5313   2.6197   2.6453   2.7447
     2.7699   2.7856   2.8153   2.8373   2.9164   2.9250   2.9601   2.9624
     2.9751   2.9926   3.0026   3.0809   3.1602   3.1734   3.2215   3.2225
     3.2226   3.2551   3.3022   3.3668   3.3998   3.4780   3.5284   3.5894
     3.6752   3.7213   3.7835   3.8203   3.8405   3.8818   3.8937   3.9411
     3.9538   3.9767   3.9935   4.0579   4.0904   4.0998   4.1061   4.1366
     4.1608   4.1907   4.1985   4.2075   4.2552   4.2663   4.3000   4.3051
     4.3249   4.3651   4.3766   4.4136   4.4604   4.4631   4.5159   4.5499
     4.5700   4.5702   4.6085   4.6546   4.6627   4.6642   4.7002   4.7283
     4.7449   4.7504   4.7787   4.8012   4.8320   4.8568   4.8589   4.8834
     4.9221   4.9545   4.9932   5.0093   5.0211   5.0360   5.0423   5.0543
     5.0650   5.0738   5.0894   5.0958   5.1030   5.1138   5.1159   5.1360
     5.1698   5.1796   5.2089   5.2149   5.2438   5.2972   5.3008   5.3339
     5.3963   5.4100   5.4107   5.4427   5.4585   5.4908   5.5042   5.5399
     5.5454   5.5618   5.5920   5.6462   5.6572   5.6855   5.7055   5.7310
     5.7448   5.8107   5.8250   5.8269   5.8333   5.8416   5.8591   5.8764
     5.8908   5.9030   5.9093   5.9396   5.9553   6.0212   6.0721   6.1020
     6.1127   6.1143   6.1323   6.1648   6.1826   6.2043   6.2495   6.2544
     6.3421   6.3850   6.3861   6.4165   6.4326   6.4637   6.5044   6.5165
     6.5602   6.5769   6.6019   6.6624   6.6898   6.7588   6.7887   6.8071
     6.8352   6.9423   6.9647   6.9836   6.9855   7.0417   7.0970   7.1164
     7.1515   7.1889   7.1924   7.2083   7.2086   7.2453   7.2466   7.2571
     7.2804   7.2938   7.3782   7.4408   7.4732   7.4740   7.5553   7.6247
     7.6833   7.6904   7.7100   7.7412   7.7753   7.8364   8.0218   8.1202
     8.3445   8.5164   8.7546   8.9720   9.2156   9.4923   9.7123  10.0781
    10.2359  10.7252  10.7809  11.3439  11.4243  11.8542  11.9223  12.5067
    13.0530  13.0726  13.8762  14.5668  14.6768  14.9506  15.2905  15.5515
    15.6638  15.7097  15.7688  15.8857  16.0331  16.2421  16.3282  16.3746
    16.5049  16.5875  16.7673  17.0018  17.2005  17.3345

          k = 0.1250 0.2406 0.0000 ( 34777 PWs)   bands (ev):

     1.1941   1.2578   1.3621   1.5044   1.6813   1.8885   2.0503   2.0953
     2.1209   2.1670   2.2599   2.3675   2.3711   2.4831   2.6034   2.6288
     2.7296   2.8636   2.8756   3.0023   3.0757   3.1244   3.1809   3.1968
     3.2071   3.2250   3.2462   3.2652   3.2689   3.3210   3.3639   3.3890
     3.4400   3.4544   3.4550   3.5130   3.5377   3.6133   3.6702   3.6977
     3.7140   3.7685   3.7852   3.7978   3.8133   3.8573   3.8702   3.8773
     3.9170   3.9261   3.9480   3.9521   3.9797   3.9943   4.0093   4.0352
     4.0588   4.0676   4.0734   4.1016   4.1275   4.1531   4.1569   4.1938
     4.1963   4.2166   4.2710   4.2778   4.2862   4.3502   4.3640   4.3856
     4.4064   4.4223   4.4315   4.4863   4.5297   4.5602   4.5932   4.6271
     4.6886   4.7042   4.7383   4.7666   4.7897   4.8110   4.8207   4.8496
     4.8519   4.8712   4.8935   4.9001   4.9210   4.9254   4.9685   4.9691
     4.9931   5.0161   5.0180   5.0200   5.0305   5.0708   5.0783   5.0790
     5.1143   5.1210   5.1524   5.1774   5.2045   5.2062   5.2450   5.2852
     5.2884   5.3487   5.3745   5.4424   5.4633   5.5683   5.5697   5.6376
     5.6679   5.6965   5.7078   5.7267   5.7512   5.7607   5.7871   5.8124
     5.8150   5.8180   5.8398   5.8766   5.8811   5.8907   5.9066   5.9258
     5.9701   5.9766   6.0062   6.0171   6.0352   6.0415   6.0592   6.0668
     6.1133   6.1250   6.1254   6.1505   6.1826   6.1872   6.2128   6.2616
     6.3484   6.3774   6.4555   6.4617   6.4623   6.5277   6.5693   6.6153
     6.6254   6.6363   6.6402   6.6725   6.6750   6.7059   6.7438   6.7486
     6.7812   6.8022   6.8271   6.8861   6.8972   6.9066   6.9429   6.9786
     7.0140   7.0487   7.0739   7.0912   7.1184   7.1205   7.1551   7.1681
     7.1810   7.2104   7.2214   7.2376   7.2479   7.2575   7.2695   7.3027
     7.3273   7.3569   7.3755   7.3908   7.5383   7.6991   7.8862   8.0451
     8.2877   8.4321   8.7255   8.8659   9.1960   9.3525   9.6982   9.8958
    10.2318  10.4967  10.7974  11.1529  11.3938  11.8608  12.0128  12.5631
    12.6155  13.3884  14.0301  14.1929  14.4526  14.9810  15.1236  15.6217
    15.8259  16.0240  16.0590  16.4577  16.7238  16.8171  16.8804  17.0015
    17.1641  17.3280  17.4432  17.5760  17.6544  17.7977

          k = 0.1250-0.2887 0.0000 ( 34724 PWs)   bands (ev):

     1.6395   1.6395   1.6927   1.6927   1.7795   1.7795   1.8970   1.8970
     2.0418   2.0418   2.2100   2.2100   2.3974   2.3974   2.5989   2.5990
     2.8087   2.8087   3.0157   3.0157   3.1872   3.1872   3.2631   3.2631
     3.3206   3.3206   3.3976   3.3976   3.4771   3.4771   3.5127   3.5128
     3.5566   3.5566   3.5766   3.5766   3.6267   3.6267   3.6657   3.6657
     3.7120   3.7120   3.7760   3.7760   3.8328   3.8328   3.8470   3.8470
     3.8566   3.8567   3.8672   3.8672   3.9216   3.9216   3.9364   3.9364
     3.9947   3.9947   4.0365   4.0365   4.1057   4.1058   4.1161   4.1161
     4.1721   4.1721   4.1904   4.1904   4.2188   4.2188   4.2547   4.2547
     4.3783   4.3783   4.5052   4.5052   4.5672   4.5672   4.6198   4.6198
     4.6283   4.6283   4.7001   4.7002   4.7146   4.7146   4.7719   4.7719
     4.8301   4.8302   4.8765   4.8765   4.9119   4.9119   4.9360   4.9361
     4.9416   4.9416   4.9529   4.9529   4.9672   4.9672   5.0029   5.0029
     5.0033   5.0033   5.2004   5.2004   5.2441   5.2441   5.3070   5.3070
     5.3767   5.3767   5.4485   5.4485   5.5139   5.5139   5.5902   5.5902
     5.6762   5.6762   5.6927   5.6927   5.7414   5.7414   5.7843   5.7843
     5.8722   5.8722   5.8811   5.8811   5.9101   5.9101   5.9511   5.9511
     5.9946   5.9946   6.0576   6.0576   6.0677   6.0677   6.1178   6.1178
     6.1889   6.1889   6.2775   6.2775   6.3228   6.3228   6.3895   6.3895
     6.4295   6.4296   6.4648   6.4648   6.4992   6.4992   6.5484   6.5484
     6.5818   6.5818   6.5929   6.5929   6.7551   6.7551   6.7562   6.7562
     6.7838   6.7838   6.8522   6.8522   6.8770   6.8770   6.8931   6.8931
     6.9100   6.9101   6.9459   6.9460   6.9728   6.9728   6.9814   6.9814
     7.0056   7.0056   7.0918   7.0918   7.1894   7.1894   7.2458   7.2458
     7.2716   7.2716   7.2781   7.2781   7.5964   7.5964   7.9555   7.9555
     8.3498   8.3498   8.7809   8.7809   9.2517   9.2517   9.7653   9.7653
    10.3243  10.3243  10.9287  10.9287  11.5739  11.5740  12.2412  12.2412
    13.3079  13.3079  13.8711  13.8711  14.6199  14.6199  15.3727  15.3728
    16.0224  16.0226  16.4336  16.4342  16.5171  16.5183  17.0996  17.1002
    17.2119  17.2126  17.9858  17.9859  18.0326  18.0328

          k = 0.2500 0.0000 0.0000 ( 34910 PWs)   bands (ev):

     0.9832   1.0507   1.1615   1.3126   1.5006   1.7211   1.9678   2.2325
     2.5022   2.7546   2.9424   2.9534   2.9934   3.0644   3.0763   3.0993
     3.1013   3.1025   3.1054   3.1084   3.1190   3.1512   3.1876   3.2028
     3.2759   3.3224   3.3449   3.3451   3.3707   3.4709   3.4847   3.5560
     3.5786   3.6009   3.6133   3.6213   3.6637   3.6857   3.7237   3.7841
     3.7880   3.7941   3.8387   3.8560   3.8680   3.8747   3.9364   3.9653
     3.9661   4.0237   4.0248   4.0264   4.0510   4.0515   4.0614   4.0694
     4.0740   4.0816   4.0859   4.1039   4.1053   4.1206   4.1583   4.1597
     4.1757   4.1906   4.2052   4.2413   4.2556   4.2689   4.3343   4.3531
     4.4082   4.4251   4.4554   4.5120   4.5441   4.5971   4.6183   4.6554
     4.7253   4.7482   4.7586   4.8038   4.8526   4.8907   4.8985   4.9529
     4.9701   4.9835   4.9923   5.0217   5.0320   5.0465   5.0527   5.0617
     5.0693   5.1038   5.1102   5.1170   5.1253   5.1254   5.1308   5.1553
     5.1983   5.2479   5.2522   5.3221   5.3285   5.4154   5.4280   5.5051
     5.5126   5.5178   5.5390   5.5549   5.5663   5.5889   5.6110   5.6620
     5.6687   5.7204   5.7292   5.7534   5.7806   5.7891   5.8139   5.8301
     5.8475   5.8507   5.8555   5.8644   5.8645   5.9134   5.9284   5.9297
     5.9461   5.9712   5.9894   6.0248   6.0251   6.0252   6.0889   6.1354
     6.1425   6.1920   6.2419   6.2954   6.2982   6.3273   6.3543   6.3838
     6.4159   6.4741   6.4840   6.5102   6.5176   6.5401   6.5600   6.5956
     6.6234   6.7080   6.7792   6.8522   6.9070   6.9190   6.9479   6.9501
     6.9824   7.0183   7.0518   7.0604   7.0819   7.1127   7.1348   7.1733
     7.1923   7.2130   7.2257   7.2261   7.2401   7.2713   7.2999   7.3061
     7.3255   7.3730   7.3784   7.4091   7.4100   7.5843   7.9074   8.2728
     8.6876   9.1589   9.6915  10.2862  10.9403  11.3271  11.3281  11.3996
    11.4032  11.5209  11.5272  11.6496  11.6910  11.6961  11.9018  11.9088
    12.1139  12.2015  12.2423  12.4582  12.5390  12.7942  12.8446  13.0951
    13.1764  13.2090  13.3635  13.3860  13.4846  13.8155  14.0204  14.1358
    14.1713  14.2467  14.3519  14.6161  14.6474  14.8176  14.9787  15.0341
    15.4306  15.4318  15.4469  15.8366  15.8526  15.8711

          k = 0.2500 0.0481 0.0000 ( 34907 PWs)   bands (ev):

     1.0212   1.0879   1.1972   1.3461   1.5312   1.7475   1.9889   2.2467
     2.5072   2.7465   2.9225   2.9517   3.0014   3.0021   3.0406   3.0638
     3.0817   3.0884   3.0950   3.1423   3.1450   3.1878   3.1977   3.2027
     3.2767   3.3120   3.3546   3.3553   3.3673   3.4385   3.4709   3.5392
     3.5710   3.5770   3.5982   3.6352   3.6495   3.6688   3.6950   3.7222
     3.7381   3.7842   3.8202   3.8468   3.9262   3.9338   3.9361   3.9616
     3.9709   4.0073   4.0206   4.0335   4.0422   4.0433   4.0477   4.0500
     4.0657   4.0781   4.0946   4.1134   4.1377   4.1560   4.1645   4.1972
     4.2098   4.2168   4.2287   4.2591   4.2845   4.2889   4.3147   4.3580
     4.4158   4.4453   4.5352   4.5701   4.5900   4.5952   4.6822   4.7127
     4.7241   4.7517   4.7777   4.8552   4.8592   4.8678   4.9338   4.9463
     4.9500   4.9543   5.0018   5.0063   5.0101   5.0250   5.0326   5.0396
     5.0579   5.0629   5.0822   5.0921   5.0977   5.1201   5.1336   5.1481
     5.2178   5.2538   5.2921   5.3292   5.3585   5.3869   5.4393   5.4541
     5.5293   5.5486   5.5557   5.5659   5.5683   5.6011   5.6130   5.6612
     5.6637   5.7094   5.7207   5.7366   5.7574   5.7812   5.7880   5.7955
     5.8189   5.8227   5.8424   5.8788   5.8793   5.9025   5.9282   5.9566
     5.9583   5.9599   6.0127   6.0181   6.0268   6.0547   6.0714   6.1078
     6.1477   6.1479   6.1898   6.2374   6.2944   6.2978   6.3299   6.3663
     6.3965   6.4348   6.4440   6.4801   6.5096   6.5410   6.5733   6.6024
     6.6269   6.6690   6.7083   6.7404   6.7950   6.8392   6.8465   6.9490
     6.9767   7.0348   7.0570   7.1180   7.1346   7.1578   7.1914   7.2110
     7.2409   7.2564   7.2674   7.2807   7.2919   7.3065   7.3102   7.3335
     7.3588   7.3757   7.4365   7.4945   7.5292   7.5770   7.9092   8.2876
     8.7143   9.1932   9.7290  10.3244  10.4989  10.5579  10.6584  10.8028
    10.9787  10.9934  11.2307  11.5133  11.6891  11.8372  12.1941  12.2465
    12.2669  12.3335  12.4789  12.5788  12.6711  12.8910  12.9858  13.1655
    13.2398  13.3207  13.4466  13.5560  13.6261  13.9320  14.0526  14.0664
    14.2082  14.3645  14.4410  14.6756  14.7734  14.8499  15.0390  15.1413
    15.4840  15.4868  15.5365  15.8539  15.9250  15.9340

          k = 0.2500 0.0962 0.0000 ( 34896 PWs)   bands (ev):

     1.1340   1.1983   1.3035   1.4461   1.6224   1.8269   2.0530   2.2914
     2.5278   2.7362   2.8741   2.9419   2.9673   3.0022   3.0055   3.0144
     3.0419   3.0859   3.0890   3.1038   3.1773   3.1799   3.1858   3.2647
     3.2657   3.2897   3.3491   3.3770   3.3821   3.3837   3.4261   3.4490
     3.4917   3.5166   3.5672   3.5783   3.5878   3.6222   3.6580   3.6831
     3.7147   3.7884   3.7895   3.8459   3.8685   3.8957   3.8965   3.9524
     3.9627   3.9858   4.0157   4.0423   4.0639   4.0660   4.0725   4.0851
     4.1012   4.1269   4.1421   4.1442   4.1641   4.2108   4.2200   4.2227
     4.2388   4.2734   4.2844   4.2977   4.3370   4.3573   4.3906   4.4120
     4.4299   4.5101   4.5196   4.5475   4.6358   4.6460   4.6833   4.7192
     4.7547   4.7966   4.8441   4.8553   4.8559   4.8988   4.8994   4.9276
     4.9607   4.9671   4.9720   4.9843   4.9907   5.0051   5.0292   5.0321
     5.0352   5.0485   5.0561   5.0789   5.1070   5.1356   5.1748   5.1961
     5.2017   5.2501   5.2765   5.3109   5.3650   5.3678   5.4191   5.4931
     5.5447   5.5702   5.5804   5.5847   5.5875   5.6094   5.6156   5.6287
     5.6379   5.6730   5.6760   5.7178   5.7272   5.7316   5.7789   5.7974
     5.8025   5.8416   5.8720   5.8878   5.9058   5.9340   5.9465   5.9564
     5.9758   5.9761   6.0110   6.0114   6.0234   6.0648   6.0719   6.0898
     6.0982   6.1276   6.1281   6.1657   6.1997   6.2812   6.2887   6.3421
     6.3672   6.3709   6.4038   6.4374   6.4455   6.5049   6.5315   6.5500
     6.5663   6.6101   6.6605   6.6679   6.7314   6.7898   6.8117   6.8912
     6.9707   6.9981   7.0578   7.1210   7.1979   7.2441   7.2460   7.3015
     7.3131   7.3366   7.3485   7.3700   7.3774   7.3806   7.4037   7.4060
     7.4118   7.4717   7.5457   7.5643   7.6050   7.6399   7.9321   8.3468
     8.8014   9.2973   9.7674   9.8074   9.8407   9.8786   9.9864  10.1375
    10.3374  10.4381  10.5890  10.8918  11.0923  11.2417  11.6306  11.8027
    12.0457  12.4623  12.4648  12.8349  13.0867  13.3088  13.3397  13.4999
    13.5631  13.6907  13.8226  13.9219  14.0444  14.1530  14.2209  14.3218
    14.4116  14.5552  14.7590  14.8411  14.9485  15.0901  15.2208  15.4310
    15.5946  15.6608  15.8114  15.9442  16.0582  16.0846

          k = 0.2500 0.1443 0.0000 ( 34879 PWs)   bands (ev):

     1.3183   1.3790   1.4776   1.6104   1.7727   1.9585   2.1608   2.3707
     2.5748   2.7487   2.8581   2.9264   2.9458   2.9460   2.9876   2.9886
     3.0057   3.0530   3.0555   3.1040   3.1344   3.1402   3.2134   3.2194
     3.2312   3.2912   3.3060   3.3191   3.3411   3.3793   3.3875   3.4122
     3.4138   3.4275   3.4829   3.4868   3.4870   3.5666   3.6666   3.6950
     3.6992   3.7403   3.7472   3.7735   3.8098   3.8203   3.8785   3.8818
     3.9270   3.9665   3.9736   4.0240   4.0564   4.0842   4.1085   4.1337
     4.1610   4.1629   4.1864   4.2127   4.2130   4.2183   4.2394   4.2622
     4.2860   4.3142   4.3273   4.3457   4.3845   4.4271   4.4290   4.4412
     4.4835   4.4980   4.5027   4.5303   4.5620   4.5956   4.6243   4.6412
     4.7479   4.7532   4.7544   4.8492   4.8651   4.8970   4.9149   4.9434
     4.9507   4.9602   4.9745   4.9847   5.0030   5.0031   5.0258   5.0526
     5.0576   5.0613   5.0701   5.0724   5.0852   5.1318   5.1655   5.1913
     5.2573   5.2778   5.3212   5.3727   5.3758   5.3759   5.4017   5.4501
     5.4505   5.5212   5.6027   5.6086   5.6188   5.6196   5.6390   5.6531
     5.6772   5.6911   5.7171   5.7288   5.7362   5.7576   5.7886   5.7902
     5.8447   5.8565   5.8606   5.9228   5.9263   5.9445   5.9846   6.0081
     6.0357   6.0381   6.0610   6.0703   6.0791   6.0952   6.1053   6.1161
     6.1641   6.1680   6.2012   6.2088   6.2296   6.2330   6.2503   6.2809
     6.3322   6.3596   6.3967   6.4080   6.4293   6.4758   6.5352   6.5371
     6.5923   6.6190   6.6402   6.6869   6.7013   6.7551   6.8640   6.8973
     6.8995   7.0000   7.0905   7.1385   7.2335   7.2540   7.2621   7.3598
     7.3677   7.3910   7.3954   7.4241   7.4251   7.4380   7.4429   7.4582
     7.4588   7.5170   7.5908   7.6131   7.6489   7.6825   8.0305   8.4802
     8.9601   9.1128   9.1332   9.1730   9.2406   9.3466   9.4727   9.5013
     9.7130   9.9858  10.0251  10.3178  10.6251  10.7012  11.1248  11.2769
    11.5766  11.9779  12.0451  12.5198  12.7841  12.9899  13.4411  13.5280
    13.8454  14.1454  14.3305  14.6174  14.6224  14.7290  14.7520  14.8965
    14.9582  15.1013  15.1184  15.2258  15.3288  15.5443  15.5840  15.7771
    15.8892  15.9255  16.1213  16.2400  16.3095  16.3841

          k = 0.2500 0.1925 0.0000 ( 34861 PWs)   bands (ev):

     1.5672   1.6233   1.7138   1.8340   1.9782   2.1395   2.3108   2.4853
     2.6541   2.7983   2.8091   2.8437   2.8910   2.8976   2.8993   2.9383
     2.9608   2.9696   2.9995   3.0479   3.0484   3.0731   3.1107   3.1546
     3.1600   3.2460   3.2689   3.2889   3.3267   3.3467   3.3888   3.3915
     3.4285   3.4399   3.4795   3.4969   3.4986   3.5276   3.5277   3.5752
     3.5945   3.6445   3.6810   3.7268   3.7844   3.7919   3.8126   3.8574
     3.8902   3.9181   3.9373   3.9915   3.9924   4.0221   4.0580   4.0870
     4.0965   4.1677   4.1796   4.2021   4.2055   4.2658   4.2665   4.2934
     4.3122   4.3655   4.3888   4.4093   4.4203   4.4219   4.4653   4.4905
     4.5089   4.5303   4.5388   4.5468   4.5798   4.6022   4.6166   4.6339
     4.6645   4.6681   4.7110   4.7669   4.7880   4.8105   4.8490   4.8497
     4.9026   4.9345   4.9353   4.9544   4.9643   4.9779   4.9971   5.0151
     5.0391   5.0585   5.0781   5.1131   5.1171   5.1711   5.1754   5.2375
     5.2927   5.3048   5.3052   5.3070   5.3681   5.4004   5.4021   5.4079
     5.4307   5.4630   5.4911   5.5459   5.5500   5.6212   5.6347   5.6609
     5.7237   5.7313   5.7812   5.7925   5.8223   5.8265   5.8679   5.8820
     5.9461   5.9694   6.0005   6.0233   6.0336   6.0614   6.0678   6.0736
     6.1002   6.1254   6.1322   6.1423   6.1445   6.1774   6.2159   6.2288
     6.2489   6.2607   6.2880   6.2916   6.2941   6.3205   6.3526   6.3746
     6.3855   6.4409   6.4508   6.5301   6.5529   6.5913   6.6262   6.6530
     6.6544   6.7076   6.7494   6.7779   6.7993   6.8218   6.8320   6.8926
     6.9200   7.0452   7.0736   7.1250   7.2212   7.2376   7.3137   7.3236
     7.3609   7.3736   7.3892   7.3899   7.4215   7.4257   7.4270   7.4399
     7.4426   7.4811   7.5526   7.6094   7.6413   7.8062   8.2343   8.5050
     8.5171   8.5324   8.5625   8.6244   8.6999   8.7327   8.9013   9.1425
     9.1961   9.4593   9.7224   9.8411  10.2720  10.2832  10.7386  10.8846
    11.2315  11.5285  11.7444  12.2020  12.2718  12.8054  13.2210  13.3256
    13.7729  13.8252  14.5948  15.1658  15.2735  15.3641  15.4064  15.4559
    15.6303  15.6678  15.7542  15.8382  16.0008  16.0289  16.0308  16.2423
    16.3774  16.3860  16.5368  16.6028  16.7916  16.8869

          k = 0.2500 0.2406 0.0000 ( 34847 PWs)   bands (ev):

     1.8681   1.9195   2.0013   2.1077   2.2309   2.3620   2.4940   2.5327
     2.5724   2.6256   2.6357   2.7171   2.7573   2.8041   2.8371   2.8582
     2.8717   2.8803   2.9322   2.9690   3.0186   3.0386   3.1193   3.1257
     3.2165   3.2271   3.2313   3.2910   3.2939   3.3452   3.3551   3.3650
     3.3783   3.4098   3.4481   3.4656   3.4786   3.4962   3.5522   3.5642
     3.5727   3.6257   3.6283   3.6630   3.6829   3.7264   3.7404   3.8063
     3.8244   3.8800   3.8998   3.9224   3.9687   4.0090   4.0162   4.0645
     4.0951   4.1332   4.1640   4.1934   4.2244   4.2399   4.2964   4.2967
     4.3023   4.3368   4.3986   4.4032   4.4194   4.4293   4.5048   4.5062
     4.5123   4.5240   4.5759   4.5938   4.5952   4.6139   4.6245   4.6484
     4.6543   4.6652   4.6900   4.7055   4.7288   4.7361   4.7965   4.8141
     4.8790   4.8830   4.9098   4.9119   4.9324   4.9623   4.9986   5.0136
     5.0330   5.0463   5.1054   5.1104   5.1178   5.1803   5.1878   5.2245
     5.2417   5.2469   5.2630   5.2639   5.2916   5.3275   5.3455   5.3491
     5.3786   5.4144   5.4796   5.4946   5.5694   5.6027   5.6409   5.7372
     5.7402   5.8522   5.8568   5.8922   5.9197   5.9233   5.9356   5.9531
     5.9829   6.0062   6.0175   6.0184   6.0301   6.0712   6.0847   6.0878
     6.1090   6.1372   6.1698   6.1706   6.2022   6.2573   6.2914   6.3497
     6.3629   6.4247   6.4323   6.5104   6.5143   6.5537   6.5617   6.6115
     6.6162   6.6526   6.6696   6.6795   6.7037   6.7582   6.7880   6.8409
     6.8624   6.8988   6.9614   6.9770   6.9983   7.0181   7.0277   7.0359
     7.0539   7.1133   7.1283   7.1336   7.1830   7.1870   7.2007   7.2690
     7.2730   7.2794   7.3178   7.3232   7.3365   7.3501   7.3526   7.3701
     7.3786   7.4418   7.5003   7.5314   7.6902   7.8937   7.9347   7.9684
     7.9738   7.9873   8.0530   8.0904   8.1766   8.3857   8.5331   8.6991
     9.0112   9.0915   9.5196   9.5353  10.0153  10.0563  10.5239  10.6229
    11.0565  11.2217  11.6097  11.8493  12.1782  12.4771  12.7468  13.2617
    13.7516  14.2351  14.9388  14.9479  15.2576  15.6828  15.7670  15.8113
    15.9202  16.0936  16.2882  16.3384  16.3696  16.6372  16.7290  16.7534
    16.9304  16.9717  17.1097  17.1416  17.2688  17.2753

          k = 0.2500-0.2887 0.0000 ( 34808 PWs)   bands (ev):

     2.2005   2.2005   2.2469   2.2469   2.3203   2.3203   2.4137   2.4137
     2.5159   2.5159   2.6105   2.6105   2.6875   2.6875   2.7637   2.7637
     2.8559   2.8559   2.9623   2.9623   3.0643   3.0643   3.1395   3.1395
     3.2159   3.2159   3.2450   3.2450   3.2973   3.2973   3.3150   3.3150
     3.3706   3.3706   3.4469   3.4469   3.4566   3.4566   3.5491   3.5491
     3.5942   3.5942   3.6509   3.6509   3.7402   3.7402   3.7641   3.7641
     3.8507   3.8507   3.8732   3.8732   3.9583   3.9583   4.0014   4.0014
     4.0968   4.0968   4.1896   4.1896   4.2238   4.2238   4.2784   4.2784
     4.3301   4.3302   4.3739   4.3739   4.4431   4.4431   4.4686   4.4686
     4.5413   4.5414   4.5620   4.5620   4.6084   4.6084   4.6392   4.6392
     4.6900   4.6900   4.7363   4.7363   4.7674   4.7674   4.7935   4.7935
     4.8442   4.8442   4.8507   4.8507   4.9278   4.9278   5.0082   5.0082
     5.0782   5.0783   5.1173   5.1173   5.1324   5.1324   5.1817   5.1817
     5.1951   5.1951   5.2535   5.2536   5.2822   5.2822   5.3060   5.3060
     5.3978   5.3978   5.4912   5.4912   5.5795   5.5795   5.6937   5.6937
     5.8291   5.8291   5.9292   5.9292   5.9536   5.9537   5.9658   5.9658
     5.9821   5.9821   6.0194   6.0194   6.0499   6.0499   6.0816   6.0817
     6.1026   6.1026   6.1843   6.1843   6.2799   6.2799   6.3230   6.3231
     6.4550   6.4550   6.5207   6.5207   6.6201   6.6201   6.7052   6.7052
     6.7683   6.7684   6.8667   6.8667   6.8952   6.8952   6.9361   6.9361
     7.0099   7.0099   7.0566   7.0566   7.0975   7.0975   7.1230   7.1230
     7.1358   7.1359   7.1934   7.1934   7.2164   7.2164   7.3064   7.3064
     7.3333   7.3333   7.3760   7.3760   7.4018   7.4018   7.4126   7.4126
     7.4238   7.4238   7.4604   7.4604   7.4756   7.4756   7.5063   7.5063
     7.5856   7.5857   7.7562   7.7563   8.0913   8.0913   8.5015   8.5015
     8.9539   8.9540   9.4396   9.4397   9.9540   9.9540  10.4944  10.4944
    11.0598  11.0598  11.6485  11.6485  12.2509  12.2509  12.8232  12.8232
    14.3424  14.3424  14.7336  14.7338  15.3711  15.3712  16.0456  16.0458
    16.4784  16.4784  16.5756  16.5757  16.6223  16.6224  16.8263  16.8263
    17.0452  17.0453  17.1368  17.1369  17.2862  17.2863

          k = 0.3750 0.0000 0.0000 ( 34962 PWs)   bands (ev):

     2.2994   2.3267   2.3712   2.4316   2.5073   2.5977   2.7025   2.8214
     2.9532   3.0956   3.1553   3.1554   3.2013   3.2015   3.2448   3.2744
     3.2749   3.3654   3.3688   3.3694   3.3919   3.4037   3.4547   3.4689
     3.4753   3.5101   3.5103   3.5517   3.5553   3.5720   3.5843   3.5908
     3.6391   3.6503   3.6514   3.6518   3.6943   3.7200   3.7563   3.7846
     3.8298   3.8303   3.8321   3.8429   3.8580   3.8719   3.8772   3.8946
     3.8973   3.8988   3.9096   3.9187   3.9227   3.9315   3.9323   3.9423
     3.9748   3.9839   4.0171   4.0191   4.0409   4.0442   4.0599   4.0712
     4.0723   4.0969   4.1708   4.2595   4.2629   4.3751   4.3796   4.4118
     4.4257   4.4467   4.4940   4.4952   4.5551   4.6047   4.6202   4.6339
     4.6365   4.6428   4.6588   4.6786   4.6917   4.7086   4.7126   4.7229
     4.7307   4.7310   4.7442   4.7484   4.7766   4.8106   4.8261   4.8381
     4.8497   4.9122   4.9460   4.9592   4.9592   4.9828   5.0123   5.0242
     5.3859   5.3859   5.4166   5.4167   5.4670   5.4706   5.4996   5.5118
     5.5606   5.5731   5.5731   5.5901   5.6847   5.7034   5.8407   5.8547
     5.8720   5.8722   5.8847   5.8859   5.8990   5.9063   5.9304   5.9654
     6.0134   6.0287   6.0329   6.0447   6.0608   6.0662   6.0781   6.0962
     6.1266   6.1303   6.1396   6.2109   6.2158   6.3002   6.3023   6.3027
     6.3321   6.3505   6.5078   6.5712   6.6485   6.7829   6.8514   6.8731
     6.9369   6.9670   6.9726   7.0166   7.0195   7.0666   7.0708   7.0826
     7.0925   7.1099   7.1228   7.1371   7.1554   7.1590   7.1657   7.1919
     7.2076   7.2164   7.2272   7.2274   7.2603   7.2645   7.2966   7.2985
     7.3534   7.3590   7.3872   7.3887   7.4078   7.4096   7.4601   7.4754
     7.5009   7.5328   7.6193   7.7991   8.1295   8.5276   8.9631   9.4301
     9.9283  10.4588  11.0216  11.2027  11.2841  11.4191  11.6058  11.6129
    11.8407  12.1164  12.2192  12.3840  12.3856  12.4163  12.4780  12.4823
    12.6220  12.6285  12.6753  12.7847  12.7910  12.8671  13.0109  13.0717
    13.4677  13.4757  13.7802  13.8189  14.1517  14.2456  14.3785  14.4442
    14.5895  14.6780  14.7349  14.7578  15.0469  15.0619  15.2109  15.3504
    15.4119  15.5248  15.8581  15.9268  15.9630  16.0009

          k = 0.3750 0.0481 0.0000 ( 34967 PWs)   bands (ev):

     2.2451   2.2849   2.3478   2.4274   2.5158   2.6053   2.6956   2.7946
     2.9074   3.0157   3.0325   3.0656   3.1465   3.1597   3.2000   3.2234
     3.2411   3.2527   3.2549   3.2590   3.3012   3.3185   3.3655   3.3660
     3.3850   3.3910   3.4215   3.4501   3.4905   3.5131   3.5253   3.5470
     3.5691   3.6260   3.6438   3.6534   3.6612   3.6881   3.7044   3.7292
     3.7324   3.7558   3.7594   3.7661   3.7911   3.8168   3.8176   3.8869
     3.8963   3.9311   3.9535   3.9547   3.9759   3.9948   4.0077   4.0310
     4.0311   4.0372   4.0606   4.0809   4.0903   4.1076   4.1155   4.1361
     4.2017   4.2138   4.2166   4.2218   4.2975   4.3055   4.3672   4.3756
     4.3872   4.3912   4.4274   4.4951   4.5168   4.5310   4.5966   4.6340
     4.6528   4.6934   4.7021   4.7337   4.7589   4.7615   4.7844   4.8139
     4.8393   4.8421   4.8639   4.8825   4.9181   4.9221   4.9567   4.9749
     4.9815   4.9831   5.0380   5.0473   5.1146   5.1163   5.1894   5.2181
     5.2559   5.2930   5.3176   5.3456   5.3600   5.3906   5.4775   5.5934
     5.6366   5.6589   5.6986   5.7268   5.7301   5.7304   5.7629   5.7702
     5.7890   5.8191   5.8349   5.8827   5.8981   5.9089   5.9712   6.0151
     6.0168   6.0495   6.0501   6.0724   6.0799   6.1136   6.1157   6.1313
     6.1538   6.2021   6.2377   6.2589   6.2811   6.3193   6.3913   6.3915
     6.3966   6.4845   6.5733   6.6342   6.7069   6.8461   6.8749   6.9037
     6.9061   6.9565   6.9688   6.9796   7.0212   7.0234   7.0564   7.0640
     7.1022   7.1176   7.1247   7.1313   7.1422   7.1881   7.1928   7.2026
     7.2133   7.2164   7.2253   7.2619   7.2993   7.3045   7.3204   7.3494
     7.3567   7.3656   7.3708   7.3965   7.3988   7.4224   7.4351   7.4730
     7.4884   7.5209   7.6041   7.7799   8.1122   8.5154   8.9583   9.4336
     9.9391  10.4740  11.0379  11.2581  11.3364  11.4666  11.6281  11.6466
    11.6827  11.7673  11.8749  11.9076  12.0998  12.1454  12.2326  12.3382
    12.4585  12.6148  12.7727  12.8048  12.9058  13.0513  13.0716  13.1466
    13.1676  13.3070  13.6368  14.0318  14.1202  14.3107  14.3621  14.3622
    14.4889  14.5350  14.6714  14.7350  14.8755  15.0347  15.2461  15.3610
    15.4489  15.6904  15.8789  16.0229  16.1856  16.3291

          k = 0.3750 0.0962 0.0000 ( 34957 PWs)   bands (ev):

     2.1573   2.2083   2.2894   2.3935   2.5084   2.6123   2.6776   2.7249
     2.7933   2.8721   2.8786   2.9239   2.9602   2.9728   3.0038   3.0080
     3.0348   3.0565   3.1213   3.1214   3.1323   3.1435   3.1918   3.2320
     3.2344   3.2586   3.2652   3.3540   3.3553   3.3706   3.4105   3.4244
     3.4511   3.4555   3.4943   3.4998   3.5182   3.5524   3.5644   3.5673
     3.6305   3.6512   3.6683   3.6918   3.6935   3.7250   3.7598   3.8363
     3.8488   3.8530   3.8785   3.9701   3.9804   3.9945   4.0139   4.0328
     4.0839   4.0988   4.1098   4.1121   4.1150   4.1277   4.1651   4.1886
     4.2022   4.2327   4.3352   4.3619   4.3916   4.3958   4.4293   4.5014
     4.5395   4.5806   4.6026   4.6029   4.6456   4.6894   4.7333   4.7368
     4.7761   4.7816   4.8008   4.8220   4.8270   4.8745   4.8897   4.9398
     4.9497   5.0117   5.0269   5.0280   5.0787   5.0836   5.0990   5.1664
     5.1874   5.1875   5.2156   5.2370   5.2705   5.2766   5.3046   5.3572
[...]
    12.9899  12.9899  13.4411  13.4411  13.8454  13.8454  14.1454  14.1454
    14.6174  14.6174  14.6224  14.6224  14.7289  14.7290  14.7519  14.7520
    14.8965  14.8965  14.9582  14.9582  15.1013  15.1013  15.2258  15.2258
    15.3288  15.3288  15.5443  15.5444  15.5840  15.5841

          k =-0.5000 0.0481 0.0000 ( 34996 PWs)   bands (ev):

     2.8320   2.8320   2.8717   2.8718   2.8846   2.8847   2.9318   2.9318
     2.9366   2.9367   3.0066   3.0066   3.0248   3.0248   3.1022   3.1022
     3.1340   3.1340   3.2061   3.2062   3.2603   3.2603   3.3041   3.3041
     3.3896   3.3897   3.3955   3.3956   3.4150   3.4151   3.4474   3.4475
     3.4758   3.4759   3.5038   3.5039   3.5367   3.5368   3.5505   3.5505
     3.6121   3.6122   3.6994   3.6994   3.7904   3.7904   3.8546   3.8546
     3.8729   3.8730   3.9302   3.9302   3.9667   3.9667   4.0163   4.0164
     4.0808   4.0809   4.1429   4.1429   4.2084   4.2084   4.2347   4.2347
     4.2665   4.2665   4.2859   4.2859   4.3271   4.3271   4.3345   4.3346
     4.3848   4.3848   4.4168   4.4168   4.5245   4.5245   4.5925   4.5925
     4.6518   4.6519   4.7488   4.7488   4.7840   4.7840   4.8317   4.8317
     4.8723   4.8723   4.9406   4.9406   4.9833   4.9834   5.0117   5.0117
     5.1596   5.1596   5.2695   5.2696   5.3270   5.3271   5.3791   5.3792
     5.3962   5.3962   5.4169   5.4169   5.4551   5.4551   5.4586   5.4587
     5.5367   5.5367   5.6330   5.6331   5.7106   5.7106   5.7804   5.7804
     5.8728   5.8728   5.9688   5.9688   6.0358   6.0358   6.0632   6.0633
     6.0799   6.0799   6.1056   6.1057   6.1408   6.1409   6.2094   6.2095
     6.2883   6.2883   6.3046   6.3046   6.3690   6.3690   6.4029   6.4030
     6.4811   6.4811   6.5065   6.5065   6.5820   6.5820   6.7181   6.7181
     6.9026   6.9027   7.0911   7.0912   7.2529   7.2530   7.3201   7.3202
     7.3637   7.3637   7.3753   7.3754   7.4214   7.4215   7.4381   7.4382
     7.4612   7.4613   7.4784   7.4785   7.5211   7.5212   7.5917   7.5918
     7.6490   7.6491   7.6824   7.6825   9.1077   9.1077   9.1317   9.1317
     9.1740   9.1740   9.2411   9.2411   9.3438   9.3438   9.4937   9.4937
     9.7005   9.7005   9.9691   9.9691  10.2989  10.2989  10.6828  10.6828
    11.1102  11.1102  11.5692  11.5692  12.0465  12.0465  12.5235  12.5235
    12.9739  12.9739  13.3820  13.3820  13.7598  13.7598  13.8789  13.8790
    14.0183  14.0184  14.1290  14.1290  14.2541  14.2541  14.5367  14.5367
    14.7529  14.7529  14.8324  14.8325  15.0193  15.0193  15.1457  15.1458
    15.1810  15.1811  15.3603  15.3604  15.6087  15.6087

          k =-0.5000 0.0962 0.0000 ( 34984 PWs)   bands (ev):

     2.6124   2.6124   2.6625   2.6625   2.7446   2.7446   2.7494   2.7494
     2.7986   2.7986   2.8566   2.8566   2.8770   2.8770   2.9780   2.9781
     2.9954   2.9954   3.0915   3.0915   3.1341   3.1341   3.1550   3.1551
     3.1678   3.1679   3.2079   3.2079   3.2366   3.2367   3.2983   3.2983
     3.3225   3.3225   3.3563   3.3564   3.4012   3.4012   3.4456   3.4456
     3.5027   3.5027   3.5179   3.5179   3.6258   3.6259   3.6525   3.6526
     3.7515   3.7515   3.7877   3.7877   3.8768   3.8768   3.9714   3.9715
     4.0659   4.0660   4.1731   4.1732   4.2460   4.2461   4.2733   4.2733
     4.3299   4.3299   4.3512   4.3512   4.3968   4.3968   4.4086   4.4086
     4.4702   4.4702   4.5918   4.5918   4.6373   4.6373   4.7747   4.7748
     4.8419   4.8419   4.9484   4.9485   5.0198   5.0198   5.0674   5.0674
     5.0932   5.0933   5.1434   5.1435   5.1616   5.1616   5.2230   5.2230
     5.2546   5.2546   5.2952   5.2953   5.3799   5.3800   5.4142   5.4142
     5.4346   5.4346   5.4434   5.4434   5.5809   5.5809   5.6361   5.6362
     5.7473   5.7474   5.8199   5.8199   5.8967   5.8967   5.9585   5.9586
     6.0228   6.0228   6.1246   6.1247   6.1415   6.1416   6.1613   6.1614
     6.2656   6.2657   6.3861   6.3862   6.4754   6.4754   6.5047   6.5047
     6.5432   6.5432   6.5546   6.5547   6.5812   6.5812   6.6335   6.6336
     6.6476   6.6476   6.7043   6.7043   6.7526   6.7526   6.7937   6.7938
     6.9291   6.9291   7.0970   7.0971   7.2505   7.2506   7.2658   7.2659
     7.3103   7.3103   7.3633   7.3634   7.3788   7.3789   7.4112   7.4113
     7.4706   7.4707   7.5117   7.5118   7.5350   7.5351   7.5952   7.5953
     7.6497   7.6498   7.6823   7.6824   9.0877   9.0877   9.1255   9.1255
     9.1807   9.1807   9.2512   9.2512   9.3459   9.3459   9.4803   9.4803
     9.6693   9.6693   9.9224   9.9224  10.2418  10.2418  10.6227  10.6227
    11.0560  11.0560  11.5305  11.5305  12.0319  12.0319  12.5260  12.5260
    12.8769  12.8769  13.0840  13.0840  13.1619  13.1619  13.2787  13.2787
    13.3835  13.3835  13.5658  13.5658  13.7521  13.7521  13.8863  13.8864
    14.1177  14.1177  14.3465  14.3466  14.5865  14.5865  14.7967  14.7967
    14.9010  14.9011  15.1797  15.1798  15.5073  15.5074

          k =-0.5000 0.1443 0.0000 ( 34862 PWs)   bands (ev):

     2.4045   2.4045   2.4610   2.4610   2.5528   2.5528   2.6004   2.6004
     2.6498   2.6499   2.6760   2.6761   2.7283   2.7284   2.8245   2.8245
     2.8291   2.8291   2.9070   2.9071   2.9364   2.9365   2.9504   2.9504
     2.9870   2.9870   3.0022   3.0023   3.0660   3.0660   3.0869   3.0870
     3.1367   3.1367   3.1841   3.1842   3.1945   3.1945   3.2350   3.2350
     3.3216   3.3216   3.3340   3.3341   3.4872   3.4872   3.5508   3.5509
     3.5839   3.5840   3.7152   3.7152   3.8650   3.8650   3.9701   3.9701
     4.0968   4.0969   4.2176   4.2177   4.2999   4.3000   4.3656   4.3656
     4.4144   4.4144   4.4596   4.4597   4.4789   4.4789   4.4967   4.4967
     4.6632   4.6632   4.7702   4.7702   4.8158   4.8159   4.8883   4.8884
     4.9235   4.9235   4.9602   4.9602   4.9771   4.9771   5.0283   5.0283
     5.0828   5.0828   5.1947   5.1948   5.2172   5.2173   5.3365   5.3366
     5.4173   5.4173   5.4676   5.4676   5.5661   5.5661   5.6189   5.6189
     5.6941   5.6941   5.8044   5.8045   5.8333   5.8333   5.8748   5.8748
     5.9750   5.9750   6.0293   6.0294   6.0778   6.0778   6.2285   6.2285
     6.2987   6.2988   6.4029   6.4029   6.4710   6.4711   6.5515   6.5515
     6.5749   6.5750   6.5954   6.5954   6.6912   6.6912   6.8115   6.8116
     6.8605   6.8606   6.8660   6.8660   6.8850   6.8851   6.8994   6.8995
     6.9354   6.9355   6.9406   6.9407   6.9703   6.9704   6.9914   6.9915
     7.0394   7.0395   7.1347   7.1348   7.2455   7.2456   7.2635   7.2635
     7.2826   7.2827   7.3353   7.3354   7.3694   7.3695   7.3859   7.3860
     7.4459   7.4459   7.5146   7.5147   7.5592   7.5593   7.6035   7.6036
     7.6523   7.6524   7.6826   7.6827   9.0375   9.0375   9.1063   9.1063
     9.1972   9.1972   9.2928   9.2928   9.3886   9.3886   9.4986   9.4986
     9.6496   9.6496   9.8641   9.8641  10.1519  10.1519  10.5109  10.5109
    10.9304  10.9305  11.3949  11.3949  11.8824  11.8825  12.3289  12.3289
    12.4459  12.4459  12.5229  12.5229  12.6130  12.6130  12.7065  12.7065
    12.8184  12.8184  12.8791  12.8792  13.1323  13.1324  13.4086  13.4087
    13.6753  13.6753  13.9376  13.9377  14.2334  14.2335  14.5609  14.5610
    14.7888  14.7889  14.8927  14.8927  15.0723  15.0723

          k =-0.5000 0.1925 0.0000 ( 34926 PWs)   bands (ev):

     2.2434   2.2434   2.3026   2.3026   2.3982   2.3982   2.4666   2.4666
     2.5145   2.5146   2.5249   2.5250   2.5901   2.5902   2.6741   2.6741
     2.6861   2.6861   2.7520   2.7520   2.7876   2.7876   2.7955   2.7956
     2.8313   2.8313   2.8556   2.8556   2.9019   2.9020   2.9494   2.9495
     2.9651   2.9651   3.0065   3.0066   3.0456   3.0456   3.0752   3.0753
     3.1205   3.1205   3.2307   3.2307   3.3609   3.3609   3.3900   3.3901
     3.4628   3.4629   3.6591   3.6591   3.8660   3.8660   4.0274   4.0274
     4.1502   4.1502   4.2595   4.2595   4.3454   4.3455   4.4206   4.4207
     4.4844   4.4845   4.5327   4.5327   4.5589   4.5589   4.7007   4.7007
     4.7435   4.7435   4.7658   4.7658   4.8019   4.8020   4.8676   4.8677
     4.9227   4.9227   4.9654   4.9654   4.9896   4.9896   5.0887   5.0887
     5.1557   5.1557   5.2085   5.2085   5.3826   5.3826   5.4154   5.4154
     5.5023   5.5023   5.6087   5.6088   5.7040   5.7040   5.7522   5.7522
     5.8998   5.8999   5.9529   5.9529   6.0467   6.0468   6.1917   6.1918
     6.1997   6.1997   6.3240   6.3241   6.4301   6.4302   6.4726   6.4726
     6.5292   6.5293   6.6487   6.6487   6.7235   6.7235   6.8304   6.8305
     6.8951   6.8951   6.9538   6.9538   6.9672   6.9672   7.0398   7.0398
     7.0641   7.0641   7.1324   7.1325   7.1413   7.1413   7.1444   7.1445
     7.1705   7.1705   7.1779   7.1780   7.2174   7.2175   7.2537   7.2538
     7.2801   7.2802   7.2876   7.2876   7.3019   7.3020   7.3128   7.3129
     7.3414   7.3415   7.3449   7.3450   7.3818   7.3819   7.4127   7.4128
     7.4607   7.4608   7.5213   7.5213   7.5786   7.5787   7.6254   7.6255
     7.6643   7.6644   7.6862   7.6862   8.9331   8.9331   9.0597   9.0597
     9.2206   9.2206   9.3796   9.3796   9.5161   9.5161   9.6254   9.6254
     9.7266   9.7266   9.8628   9.8629  10.0703  10.0703  10.3570  10.3570
    10.7055  10.7055  11.0789  11.0789  11.4212  11.4212  11.6640  11.6640
    11.8037  11.8038  11.9028  11.9028  11.9801  11.9801  12.0307  12.0307
    12.5189  12.5189  12.6571  12.6571  12.8671  12.8672  13.1233  13.1233
    13.3923  13.3924  13.6507  13.6508  13.9189  13.9189  14.2353  14.2353
    14.5984  14.5984  14.9535  14.9535  15.0308  15.0308

          k =-0.5000 0.2406 0.0000 ( 34992 PWs)   bands (ev):

     2.1425   2.1426   2.2027   2.2028   2.2995   2.2996   2.3740   2.3740
     2.4205   2.4205   2.4269   2.4270   2.4935   2.4935   2.5740   2.5741
     2.5864   2.5865   2.6644   2.6644   2.6856   2.6857   2.7054   2.7055
     2.7290   2.7291   2.7755   2.7755   2.7878   2.7879   2.8560   2.8561
     2.8772   2.8772   2.8867   2.8868   2.9303   2.9303   2.9748   2.9748
     3.0107   3.0107   3.1699   3.1699   3.2570   3.2571   3.2828   3.2829
     3.4067   3.4067   3.6234   3.6235   3.8511   3.8512   4.0519   4.0520
     4.1935   4.1936   4.2959   4.2960   4.3818   4.3818   4.4602   4.4603
     4.5294   4.5294   4.5828   4.5828   4.6112   4.6112   4.6685   4.6686
     4.6843   4.6843   4.7261   4.7261   4.8069   4.8069   4.9173   4.9173
     4.9437   4.9437   5.0445   5.0445   5.0586   5.0586   5.1514   5.1514
     5.2103   5.2103   5.2932   5.2933   5.4456   5.4456   5.4693   5.4694
     5.5763   5.5763   5.6593   5.6594   5.7818   5.7818   5.8985   5.8985
     5.9187   5.9188   6.0815   6.0815   6.1850   6.1851   6.2770   6.2770
     6.3401   6.3401   6.5140   6.5140   6.5795   6.5796   6.6292   6.6292
     6.8057   6.8057   6.8235   6.8235   6.9349   6.9349   7.0113   7.0114
     7.0600   7.0601   7.1699   7.1699   7.1849   7.1849   7.2302   7.2303
     7.2350   7.2351   7.2735   7.2735   7.2780   7.2780   7.3226   7.3227
     7.3434   7.3435   7.3494   7.3495   7.3549   7.3550   7.3684   7.3685
     7.3847   7.3848   7.4042   7.4042   7.4158   7.4158   7.4258   7.4259
     7.4487   7.4488   7.4738   7.4739   7.5013   7.5014   7.5392   7.5392
     7.5544   7.5545   7.5902   7.5902   7.6178   7.6179   7.6659   7.6660
     7.7452   7.7453   7.7461   7.7462   8.7693   8.7693   8.9828   8.9828
     9.2423   9.2423   9.4949   9.4949   9.7118   9.7118   9.8793   9.8793
     9.9948   9.9948  10.0694  10.0694  10.1451  10.1451  10.2739  10.2739
    10.4632  10.4632  10.6796  10.6796  10.8791  10.8791  11.0349  11.0349
    11.1461  11.1461  11.2235  11.2235  11.2811  11.2812  11.2874  11.2874
    12.5189  12.5189  12.6178  12.6179  12.7803  12.7804  12.9968  12.9968
    13.2432  13.2433  13.4872  13.4872  13.7304  13.7304  14.0188  14.0189
    14.3753  14.3753  14.7752  14.7752  15.1584  15.1585

          k =-0.5000-0.2887 0.0000 ( 34992 PWs)   bands (ev):

     2.1082   2.1083   2.1687   2.1687   2.2658   2.2658   2.3411   2.3412
     2.3871   2.3872   2.3931   2.3932   2.4592   2.4592   2.5390   2.5390
     2.5516   2.5517   2.6362   2.6363   2.6479   2.6479   2.6782   2.6783
     2.6942   2.6942   2.7473   2.7474   2.7501   2.7502   2.8249   2.8250
     2.8376   2.8376   2.8542   2.8542   2.9074   2.9075   2.9095   2.9095
     2.9896   2.9896   3.1477   3.1478   3.2194   3.2195   3.2473   3.2474
     3.3893   3.3893   3.6110   3.6110   3.8443   3.8443   4.0555   4.0555
     4.2082   4.2082   4.3103   4.3103   4.3960   4.3960   4.4747   4.4748
     4.5449   4.5450   4.6000   4.6000   4.6438   4.6438   4.6471   4.6472
     4.6486   4.6486   4.6995   4.6995   4.7830   4.7830   4.8973   4.8973
     5.0400   5.0400   5.0609   5.0609   5.0671   5.0671   5.2085   5.2085
     5.2711   5.2711   5.3022   5.3022   5.3996   5.3996   5.5612   5.5612
     5.6096   5.6097   5.6208   5.6208   5.8342   5.8343   5.9028   5.9028
     5.9808   5.9809   6.0681   6.0682   6.2728   6.2729   6.3050   6.3050
     6.3581   6.3581   6.5373   6.5373   6.6483   6.6483   6.7307   6.7307
     6.7558   6.7558   6.9500   6.9500   7.0036   7.0036   7.0646   7.0646
     7.1083   7.1083   7.2211   7.2212   7.2871   7.2872   7.2968   7.2969
     7.3078   7.3079   7.3159   7.3160   7.3710   7.3711   7.3756   7.3757
     7.3831   7.3832   7.3933   7.3934   7.4058   7.4059   7.4203   7.4204
     7.4364   7.4365   7.4540   7.4541   7.4728   7.4729   7.4930   7.4931
     7.5151   7.5152   7.5245   7.5246   7.5403   7.5403   7.5705   7.5706
     7.6072   7.6073   7.6466   7.6467   7.6509   7.6509   7.6785   7.6785
     7.8262   7.8262   7.8263   7.8263   8.6625   8.6625   8.9344   8.9344
     9.2516   9.2516   9.5590   9.5590   9.8302   9.8302  10.0533  10.0534
    10.2274  10.2274  10.3578  10.3578  10.4524  10.4524  10.5185  10.5185
    10.5497  10.5498  10.5613  10.5613  10.5696  10.5696  10.5840  10.5840
    10.5901  10.5901  10.5949  10.5949  10.8713  10.8713  10.8713  10.8714
    12.5286  12.5287  12.6156  12.6157  12.7618  12.7619  12.9624  12.9625
    13.1980  13.1980  13.4350  13.4350  13.6684  13.6684  13.9445  13.9445
    14.2943  14.2943  14.6979  14.6979  15.1169  15.1169

     the Fermi energy is    10.0665 ev

!    total energy              =  -27906.75097479 Ry

     total all-electron energy =  -1368865.210253 Ry
     estimated scf accuracy    <       0.00000092 Ry
     smearing contrib. (-TS)   =      -4.59807117 Ry
     internal energy E=F+TS    =  -27902.15290363 Ry

     The total energy is F=E-TS. E is the sum of the following terms:
     one-electron contribution =  -62284.31844043 Ry
     hartree contribution      =   31571.32372810 Ry
     xc contribution           =   -1154.53976905 Ry
     ewald contribution        =   28896.24998470 Ry
     one-center paw contrib.   =  -24930.86840695 Ry

     convergence has been achieved in  39 iterations

     negative rho (up, down):  4.265E-03 0.000E+00

     Forces acting on atoms (cartesian axes, Ry/au):

     atom    1 type  1   force =     0.00000000   -0.00000226   -0.03202916
     atom    2 type  1   force =     0.00000000    0.00000317   -0.03201009
     atom    3 type  1   force =     0.00000000   -0.00000179    0.00271712
     atom    4 type  1   force =     0.00000000   -0.00000240    0.00268646
     atom    5 type  1   force =     0.00000000   -0.00000097    0.00003199
     atom    6 type  1   force =     0.00000000    0.00000603    0.00003572
     atom    7 type  1   force =     0.00000000    0.00000023   -0.00012560
     atom    8 type  1   force =     0.00000000    0.00000052   -0.00013352
     atom    9 type  1   force =     0.00000000   -0.00000003   -0.00013218
     atom   10 type  1   force =     0.00000000    0.00000456   -0.00013276
     atom   11 type  1   force =     0.00000000   -0.00000002    0.00007939
     atom   12 type  1   force =     0.00000000   -0.00000925    0.00007170
     atom   13 type  1   force =     0.00000000    0.00000031    0.00023396
     atom   14 type  1   force =     0.00000000   -0.00000017    0.00027179
     atom   15 type  1   force =     0.00000000   -0.00000316    0.00028292
     atom   16 type  1   force =     0.00000000    0.00000242    0.00026255
     atom   17 type  1   force =     0.00000000   -0.00000785    0.00020539
     atom   18 type  1   force =     0.00000000    0.00000512    0.00020373
     atom   19 type  1   force =     0.00000000   -0.00000249    0.00019862
     atom   20 type  1   force =     0.00000000    0.00000348    0.00018798
     atom   21 type  1   force =     0.00000000    0.00000655    0.00021433
     atom   22 type  1   force =     0.00000000    0.00000295    0.00021766
     atom   23 type  1   force =     0.00000000    0.00000595    0.00016425
     atom   24 type  1   force =     0.00000000   -0.00000536    0.00017490
     atom   25 type  1   force =     0.00000000   -0.00000032   -0.00006028
     atom   26 type  1   force =     0.00000000   -0.00000242   -0.00005726
     atom   27 type  1   force =     0.00000000   -0.00000002   -0.00035270
     atom   28 type  1   force =     0.00000000   -0.00000464   -0.00035613
     atom   29 type  1   force =     0.00000000   -0.00000317   -0.00051921
     atom   30 type  1   force =     0.00000000   -0.00000329   -0.00052094
     atom   31 type  1   force =     0.00000000   -0.00000570   -0.00040340
     atom   32 type  1   force =     0.00000000   -0.00000004   -0.00040923
     atom   33 type  1   force =     0.00000000    0.00000251   -0.00273067
     atom   34 type  1   force =     0.00000000    0.00000432   -0.00271129
     atom   35 type  1   force =     0.00000000    0.00000498    0.03220875
     atom   36 type  1   force =     0.00000000    0.00000225    0.03223521

     Total force =     0.064484     Total SCF correction =     0.004443

     Writing all to output data dir ./pwscf.save/
 
     init_run     :     38.28s CPU     39.90s WALL (       1 calls)
     electrons    :   4955.65s CPU   5014.62s WALL (       1 calls)
     forces       :     27.85s CPU     28.15s WALL (       1 calls)

     Called by init_run:
     wfcinit      :     37.38s CPU     38.34s WALL (       1 calls)
     potinit      :      0.48s CPU      0.65s WALL (       1 calls)
     hinit0       :      0.27s CPU      0.51s WALL (       1 calls)

     Called by electrons:
     c_bands      :   4473.02s CPU   4525.90s WALL (      40 calls)
     sum_band     :    459.77s CPU    464.09s WALL (      40 calls)
     v_of_rho     :      1.31s CPU      1.52s WALL (      40 calls)
     newd         :      4.56s CPU      5.93s WALL (      40 calls)
     PAW_pot      :     16.40s CPU     16.52s WALL (      40 calls)
     mix_rho      :      0.92s CPU      0.95s WALL (      40 calls)

     Called by c_bands:
     init_us_2    :     67.24s CPU     67.82s WALL (    2870 calls)
     init_us_2:cp :     67.22s CPU     67.81s WALL (    2870 calls)
     cegterg      :   4169.49s CPU   4220.51s WALL (    1400 calls)

     Called by *egterg:
     cdiaghg      :    187.25s CPU    189.16s WALL (    5838 calls)
     h_psi        :   1955.11s CPU   1981.91s WALL (    5908 calls)
     s_psi        :    546.71s CPU    548.68s WALL (    5908 calls)
     g_psi        :      6.93s CPU      6.99s WALL (    4473 calls)

     Called by h_psi:
     h_psi:calbec :    446.09s CPU    447.55s WALL (    5908 calls)
     vloc_psi     :    891.01s CPU    899.06s WALL (    5908 calls)
     add_vuspsi   :    601.86s CPU    607.02s WALL (    5908 calls)

     General routines
     calbec       :    651.27s CPU    653.38s WALL (    7448 calls)
     fft          :      0.74s CPU      1.09s WALL (     452 calls)
     ffts         :      0.05s CPU      0.06s WALL (      40 calls)
     fftw         :    984.98s CPU    994.11s WALL ( 1801280 calls)
 
     Parallel routines
 
     PWSCF        :      1h23m CPU      1h25m WALL

 
   This run was terminated on:  19:28:16  25Mar2024            

=------------------------------------------------------------------------------=
   JOB DONE.
=------------------------------------------------------------------------------=
