MPI startup(): Warning: I_MPI_PMI_LIBRARY will be ignored since the hydra process manager was found
MPI startup(): Warning: I_MPI_PMI_LIBRARY will be ignored since the hydra process manager was found
MPI startup(): Warning: I_MPI_PMI_LIBRARY will be ignored since the hydra process manager was found
MPI startup(): Warning: I_MPI_PMI_LIBRARY will be ignored since the hydra process manager was found
MPI startup(): Warning: I_MPI_PMI_LIBRARY will be ignored since the hydra process manager was found
MPI startup(): Warning: I_MPI_PMI_LIBRARY will be ignored since the hydra process manager was found
MPI startup(): Warning: I_MPI_PMI_LIBRARY will be ignored since the hydra process manager was found
MPI startup(): Warning: I_MPI_PMI_LIBRARY will be ignored since the hydra process manager was found
MPI startup(): Warning: I_MPI_PMI_LIBRARY will be ignored since the hydra process manager was found
MPI startup(): Warning: I_MPI_PMI_LIBRARY will be ignored since the hydra process manager was found
MPI startup(): Warning: I_MPI_PMI_LIBRARY will be ignored since the hydra process manager was found
MPI startup(): Warning: I_MPI_PMI_LIBRARY will be ignored since the hydra process manager was found
MPI startup(): Warning: I_MPI_PMI_LIBRARY will be ignored since the hydra process manager was found
MPI startup(): Warning: I_MPI_PMI_LIBRARY will be ignored since the hydra process manager was found
MPI startup(): Warning: I_MPI_PMI_LIBRARY will be ignored since the hydra process manager was found
MPI startup(): Warning: I_MPI_PMI_LIBRARY will be ignored since the hydra process manager was found
MPI startup(): Warning: I_MPI_PMI_LIBRARY will be ignored since the hydra process manager was found
MPI startup(): Warning: I_MPI_PMI_LIBRARY will be ignored since the hydra process manager was found
MPI startup(): Warning: I_MPI_PMI_LIBRARY will be ignored since the hydra process manager was found
MPI startup(): Warning: I_MPI_PMI_LIBRARY will be ignored since the hydra process manager was found

     Program PWSCF v.7.0 starts on 27Jan2024 at 15:24:33 

     This program is part of the open-source Quantum ESPRESSO suite
     for quantum simulation of materials; please cite
         "P. Giannozzi et al., J. Phys.:Condens. Matter 21 395502 (2009);
         "P. Giannozzi et al., J. Phys.:Condens. Matter 29 465901 (2017);
         "P. Giannozzi et al., J. Chem. Phys. 152 154105 (2020);
          URL http://www.quantum-espresso.org", 
     in publications or presentations arising from this work. More details at
     http://www.quantum-espresso.org/quote

     Parallel version (MPI), running on    20 processors

     MPI processes distributed on     1 nodes
     R & G space division:  proc/nbgrp/npool/nimage =      20
     124630 MiB available memory on the printing compute node when the environment starts
 
     Reading input from elasticBCC0.in
Warning: card &CELL ignored
Warning: card / ignored

     Current dimensions of program PWSCF are:
     Max number of different atomic species (ntypx) = 10
     Max number of k-points (npk) =  40000
     Max angular momentum in pseudopotentials (lmaxx) =  4
     file Au.pbe-n-kjpaw_psl.1.0.0.UPF: wavefunction(s)  6S 5D renormalized

     Subspace diagonalization in iterative solution of the eigenvalue problem:
     one sub-group per band group will be used
     scalapack distributed-memory algorithm (size of sub-group:  4*  4 procs)

 
     Parallelization info
     --------------------
     sticks:   dense  smooth     PW     G-vecs:    dense   smooth      PW
     Min         111     111     31                 3965     3965     597
     Max         112     112     33                 3967     3967     598
     Sum        2231    2231    633                79315    79315   11947
 
     Using Slab Decomposition
 


     bravais-lattice index     =            0
     lattice parameter (alat)  =      11.8420  a.u.
     unit-cell volume          =    1659.6068 (a.u.)^3
     number of atoms/cell      =            2
     number of atomic types    =            1
     number of electrons       =        22.00
     number of Kohn-Sham states=           15
     kinetic-energy cutoff     =      50.0000  Ry
     charge density cutoff     =     200.0000  Ry
     scf convergence threshold =      1.0E-06
     mixing beta               =       0.7000
     number of iterations used =            8  plain     mixing
     Exchange-correlation= SLA  PW   PBX  PBC
                           (   1   4   3   4   0   0   0)

     celldm(1)=  11.841951  celldm(2)=   0.000000  celldm(3)=   0.000000
     celldm(4)=   0.000000  celldm(5)=   0.000000  celldm(6)=   0.000000

     crystal axes: (cart. coord. in units of alat)
               a(1) = (   1.000000   0.000729   0.000119 )  
               a(2) = (   0.000061   0.998301   0.000776 )  
               a(3) = (   0.000707   0.000620   1.001093 )  

     reciprocal axes: (cart. coord. in units 2 pi/alat)
               b(1) = (  1.000000 -0.000060 -0.000706 )  
               b(2) = ( -0.000730  1.001703 -0.000620 )  
               b(3) = ( -0.000119 -0.000776  0.998909 )  


     PseudoPot. # 1 for Au read from file:
     ./Au.pbe-n-kjpaw_psl.1.0.0.UPF
     MD5 check sum: 4db85c736373c707a97ce4c36c2a9d23
     Pseudo is Projector augmented-wave + core cor, Zval = 11.0
     Generated using &quot;atomic&quot; code by A. Dal Corso  v.6.3
     Shape of augmentation charge: PSQ
     Using radial grid of 1279 points,  6 beta functions with: 
                l(1) =   0
                l(2) =   0
                l(3) =   1
                l(4) =   1
                l(5) =   2
                l(6) =   2
     Q(r) pseudized with 0 coefficients 


     atomic species   valence    mass     pseudopotential
        Au            11.00   196.96657     Au( 1.00)

     No symmetry found



   Cartesian axes

     site n.     atom                  positions (alat units)
         1           Au  tau(   1) = (   0.0000000   0.0000000   0.0000000  )
         2           Au  tau(   2) = (   0.4985779   0.4985779   0.4985779  )

     number of k points=   868  Gaussian smearing, width (Ry)=  0.0020

     Number of k-points >= 100: set verbosity='high' to print them.

     Dense  grid:    79315 G-vectors     FFT dimensions: (  54,  54,  54)

     Estimated max dynamical RAM per process >     113.65 MB

     Estimated total dynamical RAM >       2.22 GB

     Initial potential from superposition of free atoms

     starting charge      21.9998, renormalised to      22.0000
     Starting wfcs are   18 randomized atomic wfcs
     Checking if some PAW data can be deallocated... 

     total cpu time spent up to now is        6.0 secs

     Self-consistent Calculation

     iteration #  1     ecut=    50.00 Ry     beta= 0.70
     Davidson diagonalization with overlap
     ethr =  1.00E-02,  avg # of iterations =  2.0

     Threshold (ethr) on eigenvalues was too large:
     Diagonalizing with lowered threshold

     Davidson diagonalization with overlap
     ethr =  3.25E-06,  avg # of iterations =  6.7

     total cpu time spent up to now is       43.5 secs

     total energy              =   -1549.83191721 Ry
     estimated scf accuracy    <       0.00059862 Ry

     iteration #  2     ecut=    50.00 Ry     beta= 0.70
     Davidson diagonalization with overlap
     ethr =  2.72E-06,  avg # of iterations =  2.3

     total cpu time spent up to now is       58.3 secs

     total energy              =   -1549.83180466 Ry
     estimated scf accuracy    <       0.00075568 Ry

     iteration #  3     ecut=    50.00 Ry     beta= 0.70
     Davidson diagonalization with overlap
     ethr =  2.72E-06,  avg # of iterations =  2.2

     total cpu time spent up to now is       70.8 secs

     total energy              =   -1549.83077250 Ry
     estimated scf accuracy    <       0.05183181 Ry

     iteration #  4     ecut=    50.00 Ry     beta= 0.70
     Davidson diagonalization with overlap
     ethr =  2.72E-06,  avg # of iterations =  1.0

     total cpu time spent up to now is       81.4 secs

     total energy              =   -1549.83207752 Ry
     estimated scf accuracy    <       0.00000755 Ry

     iteration #  5     ecut=    50.00 Ry     beta= 0.70
     Davidson diagonalization with overlap
     ethr =  3.43E-08,  avg # of iterations =  4.8

     total cpu time spent up to now is      103.0 secs

     total energy              =   -1549.83208361 Ry
     estimated scf accuracy    <       0.00001433 Ry

     iteration #  6     ecut=    50.00 Ry     beta= 0.70
     Davidson diagonalization with overlap
     ethr =  3.43E-08,  avg # of iterations =  1.0

     total cpu time spent up to now is      113.5 secs

     total energy              =   -1549.83208306 Ry
     estimated scf accuracy    <       0.00000170 Ry

     iteration #  7     ecut=    50.00 Ry     beta= 0.70
     Davidson diagonalization with overlap
     ethr =  7.75E-09,  avg # of iterations =  2.8

     total cpu time spent up to now is      129.0 secs

     End of self-consistent calculation

     Number of k-points >= 100: set verbosity='high' to print the bands.

     the Fermi energy is    -2.9471 ev

!    total energy              =   -1549.83208330 Ry

     total all-electron energy =    -76047.524265 Ry
     estimated scf accuracy    <       0.00000048 Ry
     smearing contrib. (-TS)   =      -0.00030751 Ry
     internal energy E=F+TS    =   -1549.83177579 Ry

     The total energy is F=E-TS. E is the sum of the following terms:
     one-electron contribution =     -85.08195286 Ry
     hartree contribution      =      58.43545562 Ry
     xc contribution           =     -63.81747370 Ry
     ewald contribution        =     -74.38534137 Ry
     one-center paw contrib.   =   -1384.98246348 Ry

     convergence has been achieved in   7 iterations

     Forces acting on atoms (cartesian axes, Ry/au):

     atom    1 type  1   force =     0.00027794    0.00020837    0.00035191
     atom    2 type  1   force =    -0.00027794   -0.00020837   -0.00035191

     Total force =     0.000699     Total SCF correction =     0.000089
     SCF correction compared to forces is large: reduce conv_thr to get better values

     Writing all to output data dir ./pwscf.save/
 
     init_run     :      4.88s CPU      5.10s WALL (       1 calls)
     electrons    :    121.08s CPU    123.08s WALL (       1 calls)
     forces       :      0.76s CPU      0.77s WALL (       1 calls)

     Called by init_run:
     wfcinit      :      4.61s CPU      4.75s WALL (       1 calls)
     potinit      :      0.06s CPU      0.07s WALL (       1 calls)
     hinit0       :      0.15s CPU      0.19s WALL (       1 calls)

     Called by electrons:
     c_bands      :    108.63s CPU    110.36s WALL (       8 calls)
     sum_band     :     12.08s CPU     12.33s WALL (       8 calls)
     v_of_rho     :      0.02s CPU      0.03s WALL (       8 calls)
     newd         :      0.10s CPU      0.11s WALL (       8 calls)
     PAW_pot      :      0.25s CPU      0.27s WALL (       8 calls)
     mix_rho      :      0.00s CPU      0.00s WALL (       8 calls)

     Called by c_bands:
     init_us_2    :      1.41s CPU      1.44s WALL (   15624 calls)
     init_us_2:cp :      1.39s CPU      1.42s WALL (   15624 calls)
     cegterg      :    102.24s CPU    103.84s WALL (    6944 calls)

     Called by *egterg:
     cdiaghg      :     22.74s CPU     23.03s WALL (   25923 calls)
     h_psi        :     63.38s CPU     64.54s WALL (   27659 calls)
     s_psi        :      2.05s CPU      2.08s WALL (   27659 calls)
     g_psi        :      0.30s CPU      0.30s WALL (   19847 calls)

     Called by h_psi:
     h_psi:calbec :      3.11s CPU      3.17s WALL (   27659 calls)
     vloc_psi     :     57.96s CPU     59.02s WALL (   27659 calls)
     add_vuspsi   :      2.04s CPU      2.08s WALL (   27659 calls)

     General routines
     calbec       :      4.37s CPU      4.46s WALL (   38075 calls)
     fft          :      0.02s CPU      0.04s WALL (     100 calls)
     ffts         :      0.00s CPU      0.00s WALL (       8 calls)
     fftw         :     64.07s CPU     65.25s WALL (  722964 calls)
 
     Parallel routines
 
     PWSCF        :   2m 9.61s CPU   2m22.35s WALL

 
   This run was terminated on:  15:26:56  27Jan2024            

=------------------------------------------------------------------------------=
   JOB DONE.
=------------------------------------------------------------------------------=
