MPI startup(): Warning: I_MPI_PMI_LIBRARY will be ignored since the hydra process manager was found
MPI startup(): Warning: I_MPI_PMI_LIBRARY will be ignored since the hydra process manager was found
MPI startup(): Warning: I_MPI_PMI_LIBRARY will be ignored since the hydra process manager was found
MPI startup(): Warning: I_MPI_PMI_LIBRARY will be ignored since the hydra process manager was found
MPI startup(): Warning: I_MPI_PMI_LIBRARY will be ignored since the hydra process manager was found
MPI startup(): Warning: I_MPI_PMI_LIBRARY will be ignored since the hydra process manager was found
MPI startup(): Warning: I_MPI_PMI_LIBRARY will be ignored since the hydra process manager was found
MPI startup(): Warning: I_MPI_PMI_LIBRARY will be ignored since the hydra process manager was found
MPI startup(): Warning: I_MPI_PMI_LIBRARY will be ignored since the hydra process manager was found
MPI startup(): Warning: I_MPI_PMI_LIBRARY will be ignored since the hydra process manager was found
MPI startup(): Warning: I_MPI_PMI_LIBRARY will be ignored since the hydra process manager was found
MPI startup(): Warning: I_MPI_PMI_LIBRARY will be ignored since the hydra process manager was found
MPI startup(): Warning: I_MPI_PMI_LIBRARY will be ignored since the hydra process manager was found
MPI startup(): Warning: I_MPI_PMI_LIBRARY will be ignored since the hydra process manager was found
MPI startup(): Warning: I_MPI_PMI_LIBRARY will be ignored since the hydra process manager was found
MPI startup(): Warning: I_MPI_PMI_LIBRARY will be ignored since the hydra process manager was found
MPI startup(): Warning: I_MPI_PMI_LIBRARY will be ignored since the hydra process manager was found
MPI startup(): Warning: I_MPI_PMI_LIBRARY will be ignored since the hydra process manager was found
MPI startup(): Warning: I_MPI_PMI_LIBRARY will be ignored since the hydra process manager was found
MPI startup(): Warning: I_MPI_PMI_LIBRARY will be ignored since the hydra process manager was found

     Program PWSCF v.7.0 starts on 27Jan2024 at 15:26:57 

     This program is part of the open-source Quantum ESPRESSO suite
     for quantum simulation of materials; please cite
         "P. Giannozzi et al., J. Phys.:Condens. Matter 21 395502 (2009);
         "P. Giannozzi et al., J. Phys.:Condens. Matter 29 465901 (2017);
         "P. Giannozzi et al., J. Chem. Phys. 152 154105 (2020);
          URL http://www.quantum-espresso.org", 
     in publications or presentations arising from this work. More details at
     http://www.quantum-espresso.org/quote

     Parallel version (MPI), running on    20 processors

     MPI processes distributed on     1 nodes
     R & G space division:  proc/nbgrp/npool/nimage =      20
     118464 MiB available memory on the printing compute node when the environment starts
 
     Reading input from elasticBCC1.in
Warning: card &CELL ignored
Warning: card / ignored

     Current dimensions of program PWSCF are:
     Max number of different atomic species (ntypx) = 10
     Max number of k-points (npk) =  40000
     Max angular momentum in pseudopotentials (lmaxx) =  4
     file Au.pbe-n-kjpaw_psl.1.0.0.UPF: wavefunction(s)  6S 5D renormalized

     Subspace diagonalization in iterative solution of the eigenvalue problem:
     one sub-group per band group will be used
     scalapack distributed-memory algorithm (size of sub-group:  4*  4 procs)

 
     Parallelization info
     --------------------
     sticks:   dense  smooth     PW     G-vecs:    dense   smooth      PW
     Min         111     111     31                 3977     3977     599
     Max         112     112     32                 3981     3981     602
     Sum        2233    2233    633                79581    79581   11999
 
     Using Slab Decomposition
 


     bravais-lattice index     =            0
     lattice parameter (alat)  =      11.8531  a.u.
     unit-cell volume          =    1666.0276 (a.u.)^3
     number of atoms/cell      =            2
     number of atomic types    =            1
     number of electrons       =        22.00
     number of Kohn-Sham states=           15
     kinetic-energy cutoff     =      50.0000  Ry
     charge density cutoff     =     200.0000  Ry
     scf convergence threshold =      1.0E-06
     mixing beta               =       0.7000
     number of iterations used =            8  plain     mixing
     Exchange-correlation= SLA  PW   PBX  PBC
                           (   1   4   3   4   0   0   0)

     celldm(1)=  11.853110  celldm(2)=   0.000000  celldm(3)=   0.000000
     celldm(4)=   0.000000  celldm(5)=   0.000000  celldm(6)=   0.000000

     crystal axes: (cart. coord. in units of alat)
               a(1) = (   1.000000   0.000315   0.000700 )  
               a(2) = (   0.000130   0.999351   0.000336 )  
               a(3) = (   0.000643   0.000123   1.001077 )  

     reciprocal axes: (cart. coord. in units 2 pi/alat)
               b(1) = (  1.000001 -0.000130 -0.000643 )  
               b(2) = ( -0.000315  1.000650 -0.000123 )  
               b(3) = ( -0.000699 -0.000336  0.998924 )  


     PseudoPot. # 1 for Au read from file:
     ./Au.pbe-n-kjpaw_psl.1.0.0.UPF
     MD5 check sum: 4db85c736373c707a97ce4c36c2a9d23
     Pseudo is Projector augmented-wave + core cor, Zval = 11.0
     Generated using &quot;atomic&quot; code by A. Dal Corso  v.6.3
     Shape of augmentation charge: PSQ
     Using radial grid of 1279 points,  6 beta functions with: 
                l(1) =   0
                l(2) =   0
                l(3) =   1
                l(4) =   1
                l(5) =   2
                l(6) =   2
     Q(r) pseudized with 0 coefficients 


     atomic species   valence    mass     pseudopotential
        Au            11.00   196.96657     Au( 1.00)

     No symmetry found



   Cartesian axes

     site n.     atom                  positions (alat units)
         1           Au  tau(   1) = (   0.0000000   0.0000000   0.0000000  )
         2           Au  tau(   2) = (   0.4981085   0.4981085   0.4981085  )

     number of k points=   868  Gaussian smearing, width (Ry)=  0.0020

     Number of k-points >= 100: set verbosity='high' to print them.

     Dense  grid:    79581 G-vectors     FFT dimensions: (  54,  54,  54)

     Estimated max dynamical RAM per process >     114.09 MB

     Estimated total dynamical RAM >       2.23 GB

     Initial potential from superposition of free atoms

     starting charge      21.9998, renormalised to      22.0000
     Starting wfcs are   18 randomized atomic wfcs
     Checking if some PAW data can be deallocated... 

     total cpu time spent up to now is        6.1 secs

     Self-consistent Calculation

     iteration #  1     ecut=    50.00 Ry     beta= 0.70
     Davidson diagonalization with overlap
     ethr =  1.00E-02,  avg # of iterations =  2.0

     Threshold (ethr) on eigenvalues was too large:
     Diagonalizing with lowered threshold

     Davidson diagonalization with overlap
     ethr =  3.22E-06,  avg # of iterations =  6.6

     total cpu time spent up to now is       43.9 secs

     total energy              =   -1549.83174126 Ry
     estimated scf accuracy    <       0.00059397 Ry

     iteration #  2     ecut=    50.00 Ry     beta= 0.70
     Davidson diagonalization with overlap
     ethr =  2.70E-06,  avg # of iterations =  2.3

     total cpu time spent up to now is       58.9 secs

     total energy              =   -1549.83163425 Ry
     estimated scf accuracy    <       0.00072902 Ry

     iteration #  3     ecut=    50.00 Ry     beta= 0.70
     Davidson diagonalization with overlap
     ethr =  2.70E-06,  avg # of iterations =  2.2

     total cpu time spent up to now is       71.4 secs

     total energy              =   -1549.83059709 Ry
     estimated scf accuracy    <       0.05216651 Ry

     iteration #  4     ecut=    50.00 Ry     beta= 0.70
     Davidson diagonalization with overlap
     ethr =  2.70E-06,  avg # of iterations =  1.0

     total cpu time spent up to now is       82.1 secs

     total energy              =   -1549.83189973 Ry
     estimated scf accuracy    <       0.00000733 Ry

     iteration #  5     ecut=    50.00 Ry     beta= 0.70
     Davidson diagonalization with overlap
     ethr =  3.33E-08,  avg # of iterations =  4.8

     total cpu time spent up to now is      103.9 secs

     total energy              =   -1549.83190571 Ry
     estimated scf accuracy    <       0.00001362 Ry

     iteration #  6     ecut=    50.00 Ry     beta= 0.70
     Davidson diagonalization with overlap
     ethr =  3.33E-08,  avg # of iterations =  1.0

     total cpu time spent up to now is      114.6 secs

     total energy              =   -1549.83190515 Ry
     estimated scf accuracy    <       0.00000167 Ry

     iteration #  7     ecut=    50.00 Ry     beta= 0.70
     Davidson diagonalization with overlap
     ethr =  7.57E-09,  avg # of iterations =  2.8

     total cpu time spent up to now is      130.3 secs

     End of self-consistent calculation

     Number of k-points >= 100: set verbosity='high' to print the bands.

     the Fermi energy is    -2.9584 ev

!    total energy              =   -1549.83190539 Ry

     total all-electron energy =    -76047.524087 Ry
     estimated scf accuracy    <       0.00000049 Ry
     smearing contrib. (-TS)   =      -0.00030985 Ry
     internal energy E=F+TS    =   -1549.83159554 Ry

     The total energy is F=E-TS. E is the sum of the following terms:
     one-electron contribution =     -85.25648868 Ry
     hartree contribution      =      58.51439866 Ry
     xc contribution           =     -63.81762187 Ry
     ewald contribution        =     -74.28939876 Ry
     one-center paw contrib.   =   -1384.98248489 Ry

     convergence has been achieved in   7 iterations

     Forces acting on atoms (cartesian axes, Ry/au):

     atom    1 type  1   force =     0.00033165    0.00027607    0.00038751
     atom    2 type  1   force =    -0.00033165   -0.00027607   -0.00038751

     Total force =     0.000820     Total SCF correction =     0.000078

     Writing all to output data dir ./pwscf.save/
 
     init_run     :      5.05s CPU      5.27s WALL (       1 calls)
     electrons    :    122.34s CPU    124.33s WALL (       1 calls)
     forces       :      0.79s CPU      0.80s WALL (       1 calls)

     Called by init_run:
     wfcinit      :      4.61s CPU      4.79s WALL (       1 calls)
     potinit      :      0.06s CPU      0.08s WALL (       1 calls)
     hinit0       :      0.30s CPU      0.31s WALL (       1 calls)

     Called by electrons:
     c_bands      :    109.81s CPU    111.53s WALL (       8 calls)
     sum_band     :     12.15s CPU     12.40s WALL (       8 calls)
     v_of_rho     :      0.02s CPU      0.03s WALL (       8 calls)
     newd         :      0.10s CPU      0.11s WALL (       8 calls)
     PAW_pot      :      0.27s CPU      0.28s WALL (       8 calls)
     mix_rho      :      0.00s CPU      0.00s WALL (       8 calls)

     Called by c_bands:
     init_us_2    :      1.41s CPU      1.43s WALL (   15624 calls)
     init_us_2:cp :      1.38s CPU      1.42s WALL (   15624 calls)
     cegterg      :    103.39s CPU    104.98s WALL (    6944 calls)

     Called by *egterg:
     cdiaghg      :     22.47s CPU     22.76s WALL (   25961 calls)
     h_psi        :     63.85s CPU     65.01s WALL (   27697 calls)
     s_psi        :      2.22s CPU      2.26s WALL (   27697 calls)
     g_psi        :      0.29s CPU      0.30s WALL (   19885 calls)

     Called by h_psi:
     h_psi:calbec :      3.34s CPU      3.40s WALL (   27697 calls)
     vloc_psi     :     58.00s CPU     59.04s WALL (   27697 calls)
     add_vuspsi   :      2.24s CPU      2.29s WALL (   27697 calls)

     General routines
     calbec       :      4.69s CPU      4.80s WALL (   38113 calls)
     fft          :      0.02s CPU      0.02s WALL (     100 calls)
     ffts         :      0.00s CPU      0.00s WALL (       8 calls)
     fftw         :     63.78s CPU     64.94s WALL (  723212 calls)
 
     Parallel routines
 
     PWSCF        :   2m10.77s CPU   2m24.07s WALL

 
   This run was terminated on:  15:29:22  27Jan2024            

=------------------------------------------------------------------------------=
   JOB DONE.
=------------------------------------------------------------------------------=
