MPI startup(): Warning: I_MPI_PMI_LIBRARY will be ignored since the hydra process manager was found
MPI startup(): Warning: I_MPI_PMI_LIBRARY will be ignored since the hydra process manager was found
MPI startup(): Warning: I_MPI_PMI_LIBRARY will be ignored since the hydra process manager was found
MPI startup(): Warning: I_MPI_PMI_LIBRARY will be ignored since the hydra process manager was found
MPI startup(): Warning: I_MPI_PMI_LIBRARY will be ignored since the hydra process manager was found
MPI startup(): Warning: I_MPI_PMI_LIBRARY will be ignored since the hydra process manager was found
MPI startup(): Warning: I_MPI_PMI_LIBRARY will be ignored since the hydra process manager was found
MPI startup(): Warning: I_MPI_PMI_LIBRARY will be ignored since the hydra process manager was found
MPI startup(): Warning: I_MPI_PMI_LIBRARY will be ignored since the hydra process manager was found
MPI startup(): Warning: I_MPI_PMI_LIBRARY will be ignored since the hydra process manager was found
MPI startup(): Warning: I_MPI_PMI_LIBRARY will be ignored since the hydra process manager was found
MPI startup(): Warning: I_MPI_PMI_LIBRARY will be ignored since the hydra process manager was found
MPI startup(): Warning: I_MPI_PMI_LIBRARY will be ignored since the hydra process manager was found
MPI startup(): Warning: I_MPI_PMI_LIBRARY will be ignored since the hydra process manager was found
MPI startup(): Warning: I_MPI_PMI_LIBRARY will be ignored since the hydra process manager was found
MPI startup(): Warning: I_MPI_PMI_LIBRARY will be ignored since the hydra process manager was found
MPI startup(): Warning: I_MPI_PMI_LIBRARY will be ignored since the hydra process manager was found
MPI startup(): Warning: I_MPI_PMI_LIBRARY will be ignored since the hydra process manager was found
MPI startup(): Warning: I_MPI_PMI_LIBRARY will be ignored since the hydra process manager was found
MPI startup(): Warning: I_MPI_PMI_LIBRARY will be ignored since the hydra process manager was found

     Program PWSCF v.7.0 starts on 27Jan2024 at 19: 9:54 

     This program is part of the open-source Quantum ESPRESSO suite
     for quantum simulation of materials; please cite
         "P. Giannozzi et al., J. Phys.:Condens. Matter 21 395502 (2009);
         "P. Giannozzi et al., J. Phys.:Condens. Matter 29 465901 (2017);
         "P. Giannozzi et al., J. Chem. Phys. 152 154105 (2020);
          URL http://www.quantum-espresso.org", 
     in publications or presentations arising from this work. More details at
     http://www.quantum-espresso.org/quote

     Parallel version (MPI), running on    20 processors

     MPI processes distributed on     1 nodes
     R & G space division:  proc/nbgrp/npool/nimage =      20
     208285 MiB available memory on the printing compute node when the environment starts
 
     Reading input from elasticBCC78.in
Warning: card &CELL ignored
Warning: card / ignored

     Current dimensions of program PWSCF are:
     Max number of different atomic species (ntypx) = 10
     Max number of k-points (npk) =  40000
     Max angular momentum in pseudopotentials (lmaxx) =  4
     file Au.pbe-n-kjpaw_psl.1.0.0.UPF: wavefunction(s)  6S 5D renormalized

     Subspace diagonalization in iterative solution of the eigenvalue problem:
     one sub-group per band group will be used
     scalapack distributed-memory algorithm (size of sub-group:  4*  4 procs)

 
     Parallelization info
     --------------------
     sticks:   dense  smooth     PW     G-vecs:    dense   smooth      PW
     Min         111     111     31                 3929     3929     590
     Max         112     112     32                 3932     3932     593
     Sum        2221    2221    627                78617    78617   11827
 
     Using Slab Decomposition
 


     bravais-lattice index     =            0
     lattice parameter (alat)  =      11.8290  a.u.
     unit-cell volume          =    1644.8335 (a.u.)^3
     number of atoms/cell      =            2
     number of atomic types    =            1
     number of electrons       =        22.00
     number of Kohn-Sham states=           15
     kinetic-energy cutoff     =      50.0000  Ry
     charge density cutoff     =     200.0000  Ry
     scf convergence threshold =      1.0E-06
     mixing beta               =       0.7000
     number of iterations used =            8  plain     mixing
     Exchange-correlation= SLA  PW   PBX  PBC
                           (   1   4   3   4   0   0   0)

     celldm(1)=  11.829042  celldm(2)=   0.000000  celldm(3)=   0.000000
     celldm(4)=   0.000000  celldm(5)=   0.000000  celldm(6)=   0.000000

     crystal axes: (cart. coord. in units of alat)
               a(1) = (   1.000000   0.000423   0.000584 )  
               a(2) = (   0.000047   0.994871   0.000776 )  
               a(3) = (   0.000133   0.000683   0.998865 )  

     reciprocal axes: (cart. coord. in units 2 pi/alat)
               b(1) = (  1.000000 -0.000047 -0.000133 )  
               b(2) = ( -0.000425  1.005156 -0.000688 )  
               b(3) = ( -0.000584 -0.000781  1.001137 )  


     PseudoPot. # 1 for Au read from file:
     ./Au.pbe-n-kjpaw_psl.1.0.0.UPF
     MD5 check sum: 4db85c736373c707a97ce4c36c2a9d23
     Pseudo is Projector augmented-wave + core cor, Zval = 11.0
     Generated using &quot;atomic&quot; code by A. Dal Corso  v.6.3
     Shape of augmentation charge: PSQ
     Using radial grid of 1279 points,  6 beta functions with: 
                l(1) =   0
                l(2) =   0
                l(3) =   1
                l(4) =   1
                l(5) =   2
                l(6) =   2
     Q(r) pseudized with 0 coefficients 


     atomic species   valence    mass     pseudopotential
        Au            11.00   196.96657     Au( 1.00)

     No symmetry found



   Cartesian axes

     site n.     atom                  positions (alat units)
         1           Au  tau(   1) = (   0.0000000   0.0000000   0.0000000  )
         2           Au  tau(   2) = (   0.4991220   0.4991220   0.4991220  )

     number of k points=   868  Gaussian smearing, width (Ry)=  0.0020

     Number of k-points >= 100: set verbosity='high' to print them.

     Dense  grid:    78617 G-vectors     FFT dimensions: (  54,  54,  54)

     Estimated max dynamical RAM per process >     112.74 MB

     Estimated total dynamical RAM >       2.20 GB

     Initial potential from superposition of free atoms

     starting charge      21.9998, renormalised to      22.0000
     Starting wfcs are   18 randomized atomic wfcs
     Checking if some PAW data can be deallocated... 

     total cpu time spent up to now is        6.2 secs

     Self-consistent Calculation

     iteration #  1     ecut=    50.00 Ry     beta= 0.70
     Davidson diagonalization with overlap
     ethr =  1.00E-02,  avg # of iterations =  2.0

     Threshold (ethr) on eigenvalues was too large:
     Diagonalizing with lowered threshold

     Davidson diagonalization with overlap
     ethr =  3.34E-06,  avg # of iterations =  6.6

     total cpu time spent up to now is       45.7 secs

     total energy              =   -1549.83233517 Ry
     estimated scf accuracy    <       0.00061070 Ry

     iteration #  2     ecut=    50.00 Ry     beta= 0.70
     Davidson diagonalization with overlap
     ethr =  2.78E-06,  avg # of iterations =  2.4

     total cpu time spent up to now is       61.4 secs

     total energy              =   -1549.83219514 Ry
     estimated scf accuracy    <       0.00087587 Ry

     iteration #  3     ecut=    50.00 Ry     beta= 0.70
     Davidson diagonalization with overlap
     ethr =  2.78E-06,  avg # of iterations =  2.3

     total cpu time spent up to now is       74.6 secs

     total energy              =   -1549.83118215 Ry
     estimated scf accuracy    <       0.05141632 Ry

     iteration #  4     ecut=    50.00 Ry     beta= 0.70
     Davidson diagonalization with overlap
     ethr =  2.78E-06,  avg # of iterations =  1.1

     total cpu time spent up to now is       85.6 secs

     total energy              =   -1549.83249972 Ry
     estimated scf accuracy    <       0.00000919 Ry

     iteration #  5     ecut=    50.00 Ry     beta= 0.70
     Davidson diagonalization with overlap
     ethr =  4.18E-08,  avg # of iterations =  4.6

     total cpu time spent up to now is      107.6 secs

     total energy              =   -1549.83250614 Ry
     estimated scf accuracy    <       0.00001536 Ry

     iteration #  6     ecut=    50.00 Ry     beta= 0.70
     Davidson diagonalization with overlap
     ethr =  4.18E-08,  avg # of iterations =  1.0

     total cpu time spent up to now is      118.6 secs

     total energy              =   -1549.83250561 Ry
     estimated scf accuracy    <       0.00000180 Ry

     iteration #  7     ecut=    50.00 Ry     beta= 0.70
     Davidson diagonalization with overlap
     ethr =  8.18E-09,  avg # of iterations =  2.8

     total cpu time spent up to now is      134.9 secs

     End of self-consistent calculation

     Number of k-points >= 100: set verbosity='high' to print the bands.

     the Fermi energy is    -2.9207 ev

!    total energy              =   -1549.83250591 Ry

     total all-electron energy =    -76047.524688 Ry
     estimated scf accuracy    <       0.00000045 Ry
     smearing contrib. (-TS)   =      -0.00030202 Ry
     internal energy E=F+TS    =   -1549.83220389 Ry

     The total energy is F=E-TS. E is the sum of the following terms:
     one-electron contribution =     -84.67760134 Ry
     hartree contribution      =      58.25261587 Ry
     xc contribution           =     -63.81711658 Ry
     ewald contribution        =     -74.60767773 Ry
     one-center paw contrib.   =   -1384.98242411 Ry

     convergence has been achieved in   7 iterations

     Forces acting on atoms (cartesian axes, Ry/au):

     atom    1 type  1   force =     0.00023070   -0.00016752    0.00021584
     atom    2 type  1   force =    -0.00023070    0.00016752   -0.00021584

     Total force =     0.000506     Total SCF correction =     0.000219
     SCF correction compared to forces is large: reduce conv_thr to get better values

     Writing all to output data dir ./pwscf.save/
 
     init_run     :      5.15s CPU      5.41s WALL (       1 calls)
     electrons    :    126.68s CPU    128.76s WALL (       1 calls)
     forces       :      0.73s CPU      0.74s WALL (       1 calls)

     Called by init_run:
     wfcinit      :      4.81s CPU      4.97s WALL (       1 calls)
     potinit      :      0.05s CPU      0.07s WALL (       1 calls)
     hinit0       :      0.23s CPU      0.29s WALL (       1 calls)

     Called by electrons:
     c_bands      :    113.93s CPU    115.74s WALL (       8 calls)
     sum_band     :     12.41s CPU     12.65s WALL (       8 calls)
     v_of_rho     :      0.02s CPU      0.02s WALL (       8 calls)
     newd         :      0.07s CPU      0.08s WALL (       8 calls)
     PAW_pot      :      0.24s CPU      0.26s WALL (       8 calls)
     mix_rho      :      0.00s CPU      0.00s WALL (       8 calls)

     Called by c_bands:
     init_us_2    :      1.39s CPU      1.41s WALL (   15624 calls)
     init_us_2:cp :      1.37s CPU      1.40s WALL (   15624 calls)
     cegterg      :    107.82s CPU    109.51s WALL (    6944 calls)

     Called by *egterg:
     cdiaghg      :     24.49s CPU     24.81s WALL (   25815 calls)
     h_psi        :     66.02s CPU     67.23s WALL (   27551 calls)
     s_psi        :      2.23s CPU      2.27s WALL (   27551 calls)
     g_psi        :      0.29s CPU      0.29s WALL (   19739 calls)

     Called by h_psi:
     h_psi:calbec :      3.36s CPU      3.43s WALL (   27551 calls)
     vloc_psi     :     60.16s CPU     61.25s WALL (   27551 calls)
     add_vuspsi   :      2.22s CPU      2.27s WALL (   27551 calls)

     General routines
     calbec       :      4.70s CPU      4.80s WALL (   37967 calls)
     fft          :      0.02s CPU      0.02s WALL (     100 calls)
     ffts         :      0.00s CPU      0.00s WALL (       8 calls)
     fftw         :     66.22s CPU     67.43s WALL (  719430 calls)
 
     Parallel routines
 
     PWSCF        :   2m15.21s CPU   2m29.70s WALL

 
   This run was terminated on:  19:12:24  27Jan2024            

=------------------------------------------------------------------------------=
   JOB DONE.
=------------------------------------------------------------------------------=
