MPI startup(): Warning: I_MPI_PMI_LIBRARY will be ignored since the hydra process manager was found
MPI startup(): Warning: I_MPI_PMI_LIBRARY will be ignored since the hydra process manager was found
MPI startup(): Warning: I_MPI_PMI_LIBRARY will be ignored since the hydra process manager was found
MPI startup(): Warning: I_MPI_PMI_LIBRARY will be ignored since the hydra process manager was found
MPI startup(): Warning: I_MPI_PMI_LIBRARY will be ignored since the hydra process manager was found
MPI startup(): Warning: I_MPI_PMI_LIBRARY will be ignored since the hydra process manager was found
MPI startup(): Warning: I_MPI_PMI_LIBRARY will be ignored since the hydra process manager was found
MPI startup(): Warning: I_MPI_PMI_LIBRARY will be ignored since the hydra process manager was found
MPI startup(): Warning: I_MPI_PMI_LIBRARY will be ignored since the hydra process manager was found
MPI startup(): Warning: I_MPI_PMI_LIBRARY will be ignored since the hydra process manager was found

     Program PWSCF v.7.0 starts on  5Apr2024 at 12:35:51 

     This program is part of the open-source Quantum ESPRESSO suite
     for quantum simulation of materials; please cite
         "P. Giannozzi et al., J. Phys.:Condens. Matter 21 395502 (2009);
         "P. Giannozzi et al., J. Phys.:Condens. Matter 29 465901 (2017);
         "P. Giannozzi et al., J. Chem. Phys. 152 154105 (2020);
          URL http://www.quantum-espresso.org", 
     in publications or presentations arising from this work. More details at
     http://www.quantum-espresso.org/quote

     Parallel version (MPI), running on    10 processors

     MPI processes distributed on     1 nodes
     R & G space division:  proc/nbgrp/npool/nimage =      10
     204121 MiB available memory on the printing compute node when the environment starts
 
     Reading input from VolumeFCC_5.1.in
Warning: card &CELL ignored
Warning: card / ignored

     Current dimensions of program PWSCF are:
     Max number of different atomic species (ntypx) = 10
     Max number of k-points (npk) =  40000
     Max angular momentum in pseudopotentials (lmaxx) =  4
     file Au.pbe-n-kjpaw_psl.1.0.0.UPF: wavefunction(s)  6S 5D renormalized
     Found identity + (  0.5000  0.5000  0.0000) symmetry
     This is a supercell, fractional translations are disabled
     Message from routine setup:
     using ibrav=0 with symmetry is DISCOURAGED, use correct ibrav instead

     Subspace diagonalization in iterative solution of the eigenvalue problem:
     one sub-group per band group will be used
     scalapack distributed-memory algorithm (size of sub-group:  3*  3 procs)

 
     Parallelization info
     --------------------
     sticks:   dense  smooth     PW     G-vecs:    dense   smooth      PW
     Min          42      42     13                  634      634     119
     Max          43      43     14                  637      637     122
     Sum         421     421    137                 6355     6355    1213
 
     Using Slab Decomposition
 


     bravais-lattice index     =            0
     lattice parameter (alat)  =       5.0993  a.u.
     unit-cell volume          =     132.5933 (a.u.)^3
     number of atoms/cell      =            4
     number of atomic types    =            1
     number of electrons       =        44.00
     number of Kohn-Sham states=           26
     kinetic-energy cutoff     =      50.0000  Ry
     charge density cutoff     =     200.0000  Ry
     scf convergence threshold =      1.0E-06
     mixing beta               =       0.7000
     number of iterations used =            8  plain     mixing
     Exchange-correlation= SLA  PW   PBX  PBC
                           (   1   4   3   4   0   0   0)

     celldm(1)=   5.099261  celldm(2)=   0.000000  celldm(3)=   0.000000
     celldm(4)=   0.000000  celldm(5)=   0.000000  celldm(6)=   0.000000

     crystal axes: (cart. coord. in units of alat)
               a(1) = (   1.000000   0.000000   0.000000 )  
               a(2) = (   0.000000   1.000000   0.000000 )  
               a(3) = (   0.000000   0.000000   1.000000 )  

     reciprocal axes: (cart. coord. in units 2 pi/alat)
               b(1) = (  1.000000  0.000000  0.000000 )  
               b(2) = (  0.000000  1.000000  0.000000 )  
               b(3) = (  0.000000  0.000000  1.000000 )  


     PseudoPot. # 1 for Au read from file:
     ./Au.pbe-n-kjpaw_psl.1.0.0.UPF
     MD5 check sum: 4db85c736373c707a97ce4c36c2a9d23
     Pseudo is Projector augmented-wave + core cor, Zval = 11.0
     Generated using &quot;atomic&quot; code by A. Dal Corso  v.6.3
     Shape of augmentation charge: PSQ
     Using radial grid of 1279 points,  6 beta functions with: 
                l(1) =   0
                l(2) =   0
                l(3) =   1
                l(4) =   1
                l(5) =   2
                l(6) =   2
     Q(r) pseudized with 0 coefficients 


     atomic species   valence    mass     pseudopotential
        Au            11.00   196.96657     Au( 1.00)

     48 Sym. Ops., with inversion, found



   Cartesian axes

     site n.     atom                  positions (alat units)
         1           Au  tau(   1) = (   0.0000000   0.0000000   0.0000000  )
         2           Au  tau(   2) = (   0.5000000   0.5000000   0.0000000  )
         3           Au  tau(   3) = (   0.5000000   0.0000000   0.5000000  )
         4           Au  tau(   4) = (   0.0000000   0.5000000   0.5000000  )

     number of k points=    84  Gaussian smearing, width (Ry)=  0.2000
                       cart. coord. in units 2pi/alat
        k(    1) = (   0.0000000   0.0000000   0.0000000), wk =   0.0011574
        k(    2) = (   0.0000000   0.0000000   0.0833333), wk =   0.0069444
        k(    3) = (   0.0000000   0.0000000   0.1666667), wk =   0.0069444
        k(    4) = (   0.0000000   0.0000000   0.2500000), wk =   0.0069444
        k(    5) = (   0.0000000   0.0000000   0.3333333), wk =   0.0069444
        k(    6) = (   0.0000000   0.0000000   0.4166667), wk =   0.0069444
        k(    7) = (   0.0000000   0.0000000  -0.5000000), wk =   0.0034722
        k(    8) = (   0.0000000   0.0833333   0.0833333), wk =   0.0138889
        k(    9) = (   0.0000000   0.0833333   0.1666667), wk =   0.0277778
        k(   10) = (   0.0000000   0.0833333   0.2500000), wk =   0.0277778
        k(   11) = (   0.0000000   0.0833333   0.3333333), wk =   0.0277778
        k(   12) = (   0.0000000   0.0833333   0.4166667), wk =   0.0277778
        k(   13) = (   0.0000000   0.0833333  -0.5000000), wk =   0.0138889
        k(   14) = (   0.0000000   0.1666667   0.1666667), wk =   0.0138889
        k(   15) = (   0.0000000   0.1666667   0.2500000), wk =   0.0277778
        k(   16) = (   0.0000000   0.1666667   0.3333333), wk =   0.0277778
        k(   17) = (   0.0000000   0.1666667   0.4166667), wk =   0.0277778
        k(   18) = (   0.0000000   0.1666667  -0.5000000), wk =   0.0138889
        k(   19) = (   0.0000000   0.2500000   0.2500000), wk =   0.0138889
        k(   20) = (   0.0000000   0.2500000   0.3333333), wk =   0.0277778
        k(   21) = (   0.0000000   0.2500000   0.4166667), wk =   0.0277778
        k(   22) = (   0.0000000   0.2500000  -0.5000000), wk =   0.0138889
        k(   23) = (   0.0000000   0.3333333   0.3333333), wk =   0.0138889
        k(   24) = (   0.0000000   0.3333333   0.4166667), wk =   0.0277778
        k(   25) = (   0.0000000   0.3333333  -0.5000000), wk =   0.0138889
        k(   26) = (   0.0000000   0.4166667   0.4166667), wk =   0.0138889
        k(   27) = (   0.0000000   0.4166667  -0.5000000), wk =   0.0138889
        k(   28) = (   0.0000000  -0.5000000  -0.5000000), wk =   0.0034722
        k(   29) = (   0.0833333   0.0833333   0.0833333), wk =   0.0092593
        k(   30) = (   0.0833333   0.0833333   0.1666667), wk =   0.0277778
        k(   31) = (   0.0833333   0.0833333   0.2500000), wk =   0.0277778
        k(   32) = (   0.0833333   0.0833333   0.3333333), wk =   0.0277778
        k(   33) = (   0.0833333   0.0833333   0.4166667), wk =   0.0277778
        k(   34) = (   0.0833333   0.0833333  -0.5000000), wk =   0.0138889
        k(   35) = (   0.0833333   0.1666667   0.1666667), wk =   0.0277778
        k(   36) = (   0.0833333   0.1666667   0.2500000), wk =   0.0555556
        k(   37) = (   0.0833333   0.1666667   0.3333333), wk =   0.0555556
        k(   38) = (   0.0833333   0.1666667   0.4166667), wk =   0.0555556
        k(   39) = (   0.0833333   0.1666667  -0.5000000), wk =   0.0277778
        k(   40) = (   0.0833333   0.2500000   0.2500000), wk =   0.0277778
        k(   41) = (   0.0833333   0.2500000   0.3333333), wk =   0.0555556
        k(   42) = (   0.0833333   0.2500000   0.4166667), wk =   0.0555556
        k(   43) = (   0.0833333   0.2500000  -0.5000000), wk =   0.0277778
        k(   44) = (   0.0833333   0.3333333   0.3333333), wk =   0.0277778
        k(   45) = (   0.0833333   0.3333333   0.4166667), wk =   0.0555556
        k(   46) = (   0.0833333   0.3333333  -0.5000000), wk =   0.0277778
        k(   47) = (   0.0833333   0.4166667   0.4166667), wk =   0.0277778
        k(   48) = (   0.0833333   0.4166667  -0.5000000), wk =   0.0277778
        k(   49) = (   0.0833333  -0.5000000  -0.5000000), wk =   0.0069444
        k(   50) = (   0.1666667   0.1666667   0.1666667), wk =   0.0092593
        k(   51) = (   0.1666667   0.1666667   0.2500000), wk =   0.0277778
        k(   52) = (   0.1666667   0.1666667   0.3333333), wk =   0.0277778
        k(   53) = (   0.1666667   0.1666667   0.4166667), wk =   0.0277778
        k(   54) = (   0.1666667   0.1666667  -0.5000000), wk =   0.0138889
        k(   55) = (   0.1666667   0.2500000   0.2500000), wk =   0.0277778
        k(   56) = (   0.1666667   0.2500000   0.3333333), wk =   0.0555556
        k(   57) = (   0.1666667   0.2500000   0.4166667), wk =   0.0555556
        k(   58) = (   0.1666667   0.2500000  -0.5000000), wk =   0.0277778
        k(   59) = (   0.1666667   0.3333333   0.3333333), wk =   0.0277778
        k(   60) = (   0.1666667   0.3333333   0.4166667), wk =   0.0555556
        k(   61) = (   0.1666667   0.3333333  -0.5000000), wk =   0.0277778
        k(   62) = (   0.1666667   0.4166667   0.4166667), wk =   0.0277778
        k(   63) = (   0.1666667   0.4166667  -0.5000000), wk =   0.0277778
        k(   64) = (   0.1666667  -0.5000000  -0.5000000), wk =   0.0069444
        k(   65) = (   0.2500000   0.2500000   0.2500000), wk =   0.0092593
        k(   66) = (   0.2500000   0.2500000   0.3333333), wk =   0.0277778
        k(   67) = (   0.2500000   0.2500000   0.4166667), wk =   0.0277778
        k(   68) = (   0.2500000   0.2500000  -0.5000000), wk =   0.0138889
        k(   69) = (   0.2500000   0.3333333   0.3333333), wk =   0.0277778
        k(   70) = (   0.2500000   0.3333333   0.4166667), wk =   0.0555556
        k(   71) = (   0.2500000   0.3333333  -0.5000000), wk =   0.0277778
        k(   72) = (   0.2500000   0.4166667   0.4166667), wk =   0.0277778
        k(   73) = (   0.2500000   0.4166667  -0.5000000), wk =   0.0277778
        k(   74) = (   0.2500000  -0.5000000  -0.5000000), wk =   0.0069444
        k(   75) = (   0.3333333   0.3333333   0.3333333), wk =   0.0092593
        k(   76) = (   0.3333333   0.3333333   0.4166667), wk =   0.0277778
        k(   77) = (   0.3333333   0.3333333  -0.5000000), wk =   0.0138889
        k(   78) = (   0.3333333   0.4166667   0.4166667), wk =   0.0277778
        k(   79) = (   0.3333333   0.4166667  -0.5000000), wk =   0.0277778
        k(   80) = (   0.3333333  -0.5000000  -0.5000000), wk =   0.0069444
        k(   81) = (   0.4166667   0.4166667   0.4166667), wk =   0.0092593
        k(   82) = (   0.4166667   0.4166667  -0.5000000), wk =   0.0138889
        k(   83) = (   0.4166667  -0.5000000  -0.5000000), wk =   0.0069444
        k(   84) = (  -0.5000000  -0.5000000  -0.5000000), wk =   0.0011574

     Dense  grid:     6355 G-vectors     FFT dimensions: (  24,  24,  24)

     Estimated max dynamical RAM per process >       6.19 MB

     Estimated total dynamical RAM >      61.92 MB

     Initial potential from superposition of free atoms

     starting charge      43.9996, renormalised to      44.0000
     Starting wfcs are   36 randomized atomic wfcs
     Checking if some PAW data can be deallocated... 

     total cpu time spent up to now is        1.2 secs

     Self-consistent Calculation

     iteration #  1     ecut=    50.00 Ry     beta= 0.70
     Davidson diagonalization with overlap
     ethr =  1.00E-02,  avg # of iterations = 10.4

     negative rho (up, down):  2.254E-03 0.000E+00

     total cpu time spent up to now is        3.6 secs

     total energy              =   -3080.23497597 Ry
     estimated scf accuracy    <       1.04886324 Ry

     iteration #  2     ecut=    50.00 Ry     beta= 0.70
     Davidson diagonalization with overlap
     ethr =  2.38E-03,  avg # of iterations =  3.7

     negative rho (up, down):  1.212E-02 0.000E+00

     total cpu time spent up to now is        4.9 secs

     total energy              =   -3080.76168696 Ry
     estimated scf accuracy    <       0.06075291 Ry

     iteration #  3     ecut=    50.00 Ry     beta= 0.70
     Davidson diagonalization with overlap
     c_bands:  2 eigenvalues not converged
     c_bands:  1 eigenvalues not converged
     c_bands:  2 eigenvalues not converged
     c_bands:  2 eigenvalues not converged
     c_bands:  1 eigenvalues not converged
     c_bands:  1 eigenvalues not converged
     c_bands:  1 eigenvalues not converged
     c_bands:  1 eigenvalues not converged
     c_bands:  1 eigenvalues not converged
     ethr =  1.38E-04,  avg # of iterations = 11.4

     negative rho (up, down):  2.324E-02 0.000E+00

     total cpu time spent up to now is        7.6 secs

     total energy              =   -3080.84090730 Ry
     estimated scf accuracy    <       0.00707090 Ry

     iteration #  4     ecut=    50.00 Ry     beta= 0.70
     Davidson diagonalization with overlap
     c_bands:  1 eigenvalues not converged
     c_bands:  2 eigenvalues not converged
     c_bands:  1 eigenvalues not converged
     c_bands:  1 eigenvalues not converged
     c_bands:  2 eigenvalues not converged
     c_bands:  1 eigenvalues not converged
     ethr =  1.61E-05,  avg # of iterations =  8.8

     negative rho (up, down):  2.658E-02 0.000E+00

     total cpu time spent up to now is        9.6 secs

     total energy              =   -3080.84366496 Ry
     estimated scf accuracy    <       0.00146881 Ry

     iteration #  5     ecut=    50.00 Ry     beta= 0.70
     Davidson diagonalization with overlap
     c_bands:  1 eigenvalues not converged
     c_bands:  2 eigenvalues not converged
     c_bands:  1 eigenvalues not converged
     c_bands:  1 eigenvalues not converged
     c_bands:  1 eigenvalues not converged
     ethr =  3.34E-06,  avg # of iterations =  7.0

     negative rho (up, down):  2.540E-02 0.000E+00

     total cpu time spent up to now is       11.4 secs

     total energy              =   -3080.84405870 Ry
     estimated scf accuracy    <       0.00000430 Ry

     iteration #  6     ecut=    50.00 Ry     beta= 0.70
     Davidson diagonalization with overlap
     c_bands:  1 eigenvalues not converged
     ethr =  9.77E-09,  avg # of iterations = 13.3

     negative rho (up, down):  2.535E-02 0.000E+00

     total cpu time spent up to now is       15.1 secs

     End of self-consistent calculation

          k = 0.0000 0.0000 0.0000 (   751 PWs)   bands (ev):

    35.9627  35.9634  35.9634  36.8627  36.8627  36.8627  42.8768  49.1107
    49.1107  49.1107  59.9421  59.9421  69.0678  69.0681  69.0681  71.7717
    71.7717  71.7717  71.7725  71.7725  71.7725  77.1487  77.1487  77.1487
    78.4246  89.0025

          k = 0.0000 0.0000 0.0833 (   775 PWs)   bands (ev):

    36.2263  36.2696  36.2701  37.0002  37.2356  37.2356  43.2625  48.7551
    49.3713  49.3713  59.4215  60.0636  68.2909  68.2911  68.8593  69.5620
    69.5620  70.9394  70.9394  71.7748  71.7756  76.2756  79.0549  79.1139
    79.1139  89.0918

          k = 0.0000 0.0000 0.1667 (   779 PWs)   bands (ev):

    37.0142  37.1694  37.1699  37.4195  38.3532  38.3532  44.3493  47.7795
    50.1458  50.1458  58.0271  60.4245  65.7063  65.7063  66.2056  66.2058
    68.2643  68.8541  68.8541  71.7861  71.7869  73.9287  80.8538  82.2272
    82.2272  89.4028

          k = 0.0000 0.0000 0.2500 (   799 PWs)   bands (ev):

    38.1115  38.2949  38.5652  38.5657  40.1803  40.1803  45.8490  46.3914
    51.4102  51.4102  56.2756  61.0133  61.5293  61.5293  63.3664  63.3666
    66.1659  66.1659  67.3648  70.6432  71.8004  71.8012  83.6110  85.1282
    85.1282  89.6971

          k = 0.0000 0.0000 0.3333 (   792 PWs)   bands (ev):

    39.0617  40.0129  40.2513  40.2519  42.6646  42.6646  44.8042  46.9071
    53.1286  53.1286  55.2561  57.2977  57.2977  60.3930  60.3932  61.8099
    63.2795  63.2795  66.2674  66.8818  71.8158  71.8167  87.1080  87.5003
    87.5003  90.0560

          k = 0.0000 0.0000 0.4167 (   808 PWs)   bands (ev):

    40.2481  41.8001  41.8007  42.0749  43.1812  45.7256  45.7256  46.2418
    53.1641  53.1641  55.2481  55.2481  56.4030  57.9796  57.9798  60.4137
    60.4137  62.7838  62.9975  65.0790  71.8272  71.8280  89.1529  89.1530
    90.2465  90.2477

          k = 0.0000 0.0000-0.5000 (   804 PWs)   bands (ev):

    41.6375  41.6382  42.4792  42.4798  44.2930  44.2935  49.2643  49.2643
    49.2647  49.2647  56.9982  56.9985  57.7032  57.7032  57.7037  57.7037
    59.3298  59.3298  63.8924  63.8931  71.8317  71.8325  90.0276  90.0278
    90.0282  90.0283

          k = 0.0000 0.0833 0.0833 (   776 PWs)   bands (ev):

    36.4351  36.5347  36.5351  37.3736  37.3736  37.7466  43.6129  48.6599
    49.3904  49.6349  59.2459  59.8828  67.5563  67.5567  67.6206  68.4476
    69.3913  69.3918  70.9412  70.9412  71.1936  78.2202  78.2203  79.6575
    80.5847  87.4936

          k = 0.0000 0.0833 0.1667 (   785 PWs)   bands (ev):

    37.0779  37.3210  37.4326  37.7865  38.4836  39.0852  44.6019  47.8372
    50.0604  50.3966  58.0411  60.1831  64.1281  65.2610  65.7490  65.7587
    67.1056  68.7490  68.8503  70.9106  70.9468  75.8744  81.3662  81.3802
    83.3606  86.4732

          k = 0.0000 0.0833 0.2500 (   794 PWs)   bands (ev):

    38.2761  38.4654  38.5990  38.8235  40.2988  41.0544  45.9954  46.5230
    51.3136  51.4906  56.4864  60.1529  60.8610  61.3293  63.1223  63.3636
    64.3001  66.1511  67.6458  70.8684  70.9525  72.6975  84.0241  84.2422
    86.1191  86.1375

          k = 0.0000 0.0833 0.3333 (   793 PWs)   bands (ev):

    39.3983  39.9040  40.3153  40.4968  42.7641  43.5058  44.9943  47.1000
    52.3236  53.0382  56.1407  56.2038  57.2179  60.2960  60.7229  61.2576
    61.8097  63.2507  66.1152  69.2773  70.8800  70.9534  86.2834  86.2907
    87.3749  88.4711

          k = 0.0000 0.0833 0.4167 (   798 PWs)   bands (ev):

    40.5600  41.5876  41.9986  42.3780  43.4208  45.7997  46.2745  46.5484
    52.5262  53.1557  53.3804  55.1705  57.9804  58.0196  58.0366  58.5971
    60.3686  63.0046  63.8670  66.3821  70.9056  70.9468  86.7269  87.1724
    89.8348  90.1220

          k = 0.0000 0.0833-0.5000 (   808 PWs)   bands (ev):

    41.9165  41.9172  42.5203  42.5209  44.6028  44.6033  49.2472  49.2475
    49.3033  49.3037  55.4839  55.4842  57.2731  57.2733  57.6413  57.6417
    60.8517  60.8518  64.4593  64.4599  70.9297  70.9305  87.1538  87.1543
    91.0012  91.0026

          k = 0.0000 0.1667 0.1667 (   782 PWs)   bands (ev):

    37.3388  38.2120  38.2125  38.8736  38.8736  40.7127  45.3239  47.6492
    50.2231  51.0832  57.5854  60.1104  61.9246  61.9252  63.5818  64.4218
    67.3326  67.3327  68.8373  68.8374  69.5678  79.1219  79.1221  82.8903
    84.3142  85.8079

          k = 0.0000 0.1667 0.2500 (   795 PWs)   bands (ev):

    38.1819  39.4818  39.5141  39.5897  40.6497  42.8602  46.4033  46.7768
    51.2021  51.8113  56.5438  57.9963  59.5352  60.5761  60.9598  62.3311
    65.0688  66.1076  66.6448  68.8132  68.8976  76.1220  82.0589  83.1385
    85.2149  86.8783

          k = 0.0000 0.1667 0.3333 (   797 PWs)   bands (ev):

    39.5683  40.3888  41.1918  41.2240  43.0577  45.2876  45.5017  47.5389
    51.4898  52.8512  54.3306  56.7239  56.9152  57.1247  59.9281  62.3384
    62.4543  63.1679  65.1828  68.6828  68.7760  72.8713  82.8694  83.9333
    87.0955  88.1611

          k = 0.0000 0.1667 0.4167 (   792 PWs)   bands (ev):

    41.2713  41.4739  42.5730  43.2564  44.1039  46.0140  47.4418  47.5922
    51.2528  51.3194  53.1021  54.8132  54.9806  58.0352  58.4988  59.6418
    60.2438  63.1611  64.4373  68.6463  68.7280  69.7142  83.2350  84.3616
    88.0291  91.3676

          k = 0.0000 0.1667-0.5000 (   794 PWs)   bands (ev):

    42.6385  42.6390  42.7317  42.7323  45.5098  45.5104  49.3413  49.3415
    49.4077  49.4080  52.7306  52.7308  57.4777  57.4781  57.8427  57.8430
    60.8249  60.8253  66.8683  66.8684  68.6768  68.6776  83.8890  83.8894
    89.5164  89.5168

          k = 0.0000 0.2500 0.2500 (   784 PWs)   bands (ev):

    38.6546  40.8393  40.8397  41.2226  41.2227  45.0966  46.7295  47.0157
    51.5883  52.2719  55.7559  55.7935  55.7942  58.8880  60.9250  62.2467
    64.8735  64.8736  66.0375  66.0376  67.1699  79.2580  79.2583  81.2154
    86.0398  87.0645

          k = 0.0000 0.2500 0.3333 (   791 PWs)   bands (ev):

    39.7033  41.9982  42.4073  42.5308  43.5302  46.1032  47.4423  47.8094
    51.6174  52.4970  52.8421  53.7176  55.7650  56.1780  59.1173  62.5953
    63.0452  63.6809  64.4612  65.9493  66.2377  76.2264  80.4568  81.3862
    86.1044  89.4369

          k = 0.0000 0.2500 0.4167 (   797 PWs)   bands (ev):

    41.2256  42.9435  43.4499  44.5942  45.1113  46.3426  48.6441  49.2798
    49.6953  50.2768  51.8607  52.9043  54.8181  57.3643  57.7377  60.0735
    60.1383  61.7696  65.8620  65.8864  67.1486  73.1380  80.6524  81.9385
    86.9393  90.2003

          k = 0.0000 0.2500-0.5000 (   802 PWs)   bands (ev):

    42.8418  42.8421  44.0089  44.0096  46.9110  46.9116  49.5291  49.5294
    49.7890  49.7890  50.2925  50.2927  57.2835  57.2839  58.1280  58.1283
    59.5328  59.5333  65.8145  65.8152  70.0835  70.0836  81.3699  81.3702
    88.3780  88.3783

          k = 0.0000 0.3333 0.3333 (   796 PWs)   bands (ev):

    40.3937  43.9950  43.9953  44.1521  44.1522  46.4145  47.8009  49.6290
    50.9232  50.9237  52.3788  53.4510  54.3670  54.6856  57.8447  61.7447
    61.7449  62.9111  62.9114  64.3279  67.2341  78.8261  78.8265  79.3046
    86.0222  91.1768

          k = 0.0000 0.3333 0.4167 (   792 PWs)   bands (ev):

    41.6113  44.4638  44.8738  45.8772  46.2000  46.7349  47.8300  49.7545
    49.7884  51.0080  51.1172  52.3604  54.9508  55.5092  56.8239  59.5802
    59.9256  59.9774  62.8214  63.2774  70.2567  76.1499  79.2986  80.0456
    86.7463  89.8706

          k = 0.0000 0.3333-0.5000 (   792 PWs)   bands (ev):

    43.1947  43.1949  45.6071  45.6077  47.5622  47.5622  49.4345  49.4349
    49.5671  49.5673  50.7068  50.7070  57.1981  57.1983  57.5820  57.5824
    57.7384  57.7389  62.8786  62.8791  73.2779  73.2780  79.8735  79.8738
    88.1163  88.1164

          k = 0.0000 0.4167 0.4167 (   796 PWs)   bands (ev):

    42.4780  45.3560  45.3564  46.8093  46.9988  47.0971  47.0973  50.1706
    50.1708  51.1962  52.7072  52.9337  53.7729  55.5251  55.7567  57.9846
    57.9849  59.9236  59.9240  61.3364  73.3143  78.2461  78.2466  79.0334
    87.3835  90.2241

          k = 0.0000 0.4167-0.5000 (   794 PWs)   bands (ev):

    43.7980  43.7981  46.0540  46.0540  47.2624  47.2628  49.3382  49.3382
    51.4647  51.4652  52.0659  52.0661  55.7688  55.7692  56.0684  56.0688
    57.4646  57.4647  60.2867  60.2871  76.0383  76.0384  79.0521  79.0523
    88.6904  88.6907

          k = 0.0000-0.5000-0.5000 (   784 PWs)   bands (ev):

    44.7391  44.7391  44.7396  44.7397  48.5970  48.5973  48.5975  48.5975
    53.5301  53.5305  53.5305  53.5309  54.1449  54.1449  54.1451  54.1461
    58.4237  58.4240  58.4243  58.4243  77.9881  77.9881  77.9884  77.9887
    89.8133  89.8136

          k = 0.0833 0.0833 0.0833 (   781 PWs)   bands (ev):

    36.6821  36.6827  36.6827  37.8958  37.8959  37.8959  43.8985  48.6929
    49.6157  49.6157  59.4067  59.4067  67.0376  67.0380  67.0380  67.6784
    67.6784  67.6789  70.9729  70.9735  70.9735  79.5866  79.5866  79.5866
    80.2206  88.4337

          k = 0.0833 0.0833 0.1667 (   789 PWs)   bands (ev):

    37.3130  37.3133  37.3998  38.3658  39.2383  39.2384  44.6800  48.1299
    50.2698  50.2828  58.1476  59.8849  63.9350  63.9350  65.5223  65.6979
    66.0070  66.0073  70.2793  70.6372  70.6378  77.0646  81.8124  82.2854
    82.2855  87.3859

          k = 0.0833 0.0833 0.2500 (   795 PWs)   bands (ev):

    38.4403  38.5042  38.5046  39.2645  41.1926  41.1927  45.5092  47.3222
    51.3672  51.3928  56.7545  60.0650  60.0650  60.6672  63.0711  63.4777
    63.7430  63.7432  69.1428  70.3560  70.3567  73.6947  84.1429  84.9725
    84.9728  86.9595

          k = 0.0833 0.0833 0.3333 (   793 PWs)   bands (ev):

    39.5514  40.1283  40.1287  40.7760  43.6057  43.6058  44.8979  47.5743
    51.8890  52.8298  56.2038  56.2038  56.8772  60.2018  60.9924  60.9926
    61.2037  61.7294  67.7009  69.9333  70.2236  70.2243  86.5009  86.9127
    86.9139  87.1822

          k = 0.0833 0.0833 0.4167 (   800 PWs)   bands (ev):

    40.7474  41.7905  41.7910  42.7741  43.5128  46.2726  46.2727  46.9731
    52.6339  52.6436  52.6437  54.6168  57.3418  58.5150  58.5153  58.8899
    59.1472  63.0332  66.0865  66.1139  70.1723  70.1730  87.3183  87.3186
    88.2465  88.2469

          k = 0.0833 0.0833-0.5000 (   804 PWs)   bands (ev):

    42.0804  42.0811  42.5897  42.5903  44.9930  44.9936  48.4190  48.4194
    50.1906  50.1909  54.7011  54.7013  56.6626  56.6629  57.4282  57.4285
    62.3993  62.3994  64.5213  64.5219  70.1596  70.1604  87.5101  87.5107
    88.5497  88.5503

          k = 0.0833 0.1667 0.1667 (   794 PWs)   bands (ev):

    37.5545  37.9896  37.9899  39.7148  39.7150  40.8651  44.9241  48.5318
    50.3150  50.9286  57.8823  59.7274  61.8343  61.8349  62.9156  63.6544
    65.0175  65.0175  69.9086  70.0311  70.0314  79.7303  79.7303  82.9126
    83.8275  85.9727

          k = 0.0833 0.1667 0.2500 (   797 PWs)   bands (ev):

    38.3894  39.0035  39.1653  40.5823  41.6192  42.9876  45.1528  48.4080
    51.1647  51.7278  56.9888  57.9868  59.4758  59.6917  60.6511  62.1208
    63.0203  63.7235  69.0367  69.1080  69.2705  76.4371  82.4736  83.5778
    84.0509  87.4844

          k = 0.0833 0.1667 0.3333 (   791 PWs)   bands (ev):

    39.7702  40.1698  40.7837  41.9609  43.9042  44.8080  45.3400  48.5896
    51.3228  52.5159  54.4313  56.1531  57.0538  57.5755  60.1212  60.6503
    61.6393  62.1822  67.4649  68.5660  68.7046  72.9036  83.4423  84.4271
    85.0098  88.4378

          k = 0.0833 0.1667 0.4167 (   795 PWs)   bands (ev):

    41.3717  41.4700  42.3862  43.8229  43.8532  46.2321  47.3627  48.1466
    51.0296  51.7202  52.9686  54.1393  54.7049  58.1732  58.2731  59.2738
    59.8633  64.1539  65.3086  68.3281  68.4109  69.5152  83.8510  84.9778
    86.2811  88.9076

          k = 0.0833 0.1667-0.5000 (   792 PWs)   bands (ev):

    42.6075  42.6081  42.7705  42.7710  46.0651  46.0657  47.8154  47.8157
    51.0487  51.0489  52.5782  52.5784  56.0724  56.0726  57.6951  57.6954
    62.6634  62.6636  66.5734  66.5736  68.2948  68.2955  84.5213  84.5217
    87.9927  87.9931

          k = 0.0833 0.2500 0.2500 (   790 PWs)   bands (ev):

    38.8465  40.1709  40.1711  42.3820  42.3823  45.0082  45.1708  49.0497
    51.3183  52.3630  55.8351  55.8357  56.4061  58.4342  60.1299  61.9110
    62.3627  62.3627  67.8147  68.0403  68.0405  79.3721  79.3723  81.6841
    83.7952  89.7669

          k = 0.0833 0.2500 0.3333 (   790 PWs)   bands (ev):

    39.8828  41.3432  41.8033  43.5892  44.4071  44.8297  47.3617  49.2020
    51.7028  52.3851  52.7189  53.8100  55.8592  56.8185  58.6309  60.2110
    61.1207  64.1377  66.3733  66.7567  66.9996  76.1212  80.9134  81.5099
    84.0945  89.7475

          k = 0.0833 0.2500 0.4167 (   792 PWs)   bands (ev):

    41.3997  42.4848  43.3262  44.3394  45.3200  46.0783  48.6021  49.5614
    49.8508  51.0887  52.0301  53.4264  53.7604  57.3591  57.8655  58.9039
    59.3092  64.1241  66.1642  66.3198  66.8358  72.9071  81.0848  82.2058
    85.0987  88.7026

          k = 0.0833 0.2500-0.5000 (   792 PWs)   bands (ev):

    43.0112  43.0115  43.5114  43.5120  47.4665  47.4670  47.6177  47.6179
    50.5997  50.5997  51.8404  51.8405  55.6527  55.6527  57.5867  57.5870
    61.5160  61.5162  66.0446  66.0452  69.7938  69.7939  81.7486  81.7490
    86.7054  86.7058

          k = 0.0833 0.3333 0.3333 (   786 PWs)   bands (ev):

    40.5485  43.0160  43.0162  44.8807  45.1625  45.1626  49.0692  49.1801
    51.3411  51.3415  52.1558  53.1023  54.9653  56.0178  57.0440  59.4575
    59.4575  65.1253  65.1253  65.1629  66.9148  78.6905  78.6908  79.6432
    84.0493  89.8755

          k = 0.0833 0.3333 0.4167 (   790 PWs)   bands (ev):

    41.7434  44.0608  44.4984  44.8648  45.8252  46.2901  48.5462  49.5324
    50.5257  51.0142  51.6637  53.6446  53.9466  56.0618  57.3165  57.5655
    58.2503  62.8028  64.0768  64.1482  69.9426  75.8891  79.5282  79.9947
    84.8395  88.2470

          k = 0.0833 0.3333-0.5000 (   794 PWs)   bands (ev):

    43.3246  43.3249  44.6522  44.6526  47.6099  47.6100  47.7861  47.7861
    50.5967  50.5971  52.5886  52.5887  55.2441  55.2443  56.7610  56.7614
    60.1533  60.1534  63.7471  63.7476  72.9748  72.9749  79.9746  79.9749
    86.3235  86.3238

          k = 0.0833 0.4167 0.4167 (   796 PWs)   bands (ev):

    42.5543  45.1426  45.3027  45.3032  46.0407  46.0409  47.8881  49.4219
    51.4563  51.4566  52.5256  54.1571  54.6070  54.6925  56.5504  56.5504
    57.3165  61.7412  61.7413  62.3294  72.9941  78.0023  78.0027  79.0743
    85.4675  88.5632

          k = 0.0833 0.4167-0.5000 (   796 PWs)   bands (ev):

    43.8077  43.8078  45.2358  45.2359  47.0993  47.0996  47.9926  47.9927
    52.1885  52.1889  53.2084  53.2087  54.9758  54.9762  55.5764  55.5767
    59.2038  59.2038  61.4589  61.4593  75.7256  75.7257  78.9190  78.9192
    86.8388  86.8389

          k = 0.0833-0.5000-0.5000 (   792 PWs)   bands (ev):

    44.5325  44.5325  44.5331  44.5331  47.7327  47.7332  47.7332  47.7332
    53.2067  53.2067  53.2068  53.2077  54.9683  54.9687  54.9687  54.9690
    59.6114  59.6118  59.6119  59.6119  77.7132  77.7132  77.7134  77.7138
    88.0111  88.0113

          k = 0.1667 0.1667 0.1667 (   802 PWs)   bands (ev):

    38.1820  38.1825  38.1825  41.3360  41.3363  41.3363  44.4465  50.2226
    50.6089  50.6089  58.7406  58.7406  61.1820  61.1820  61.1826  61.9441
    61.9445  61.9445  70.3095  70.3100  70.3100  81.2712  81.2715  81.2715
    82.6691  87.7447

          k = 0.1667 0.1667 0.2500 (   790 PWs)   bands (ev):

    38.9888  38.9891  39.1393  42.1663  43.3764  43.3766  44.1893  50.0868
    51.1433  51.8668  57.9046  57.9047  57.9409  58.8826  59.9461  60.0766
    61.0235  61.0240  69.5271  69.5275  70.1086  77.6956  82.4533  82.8975
    82.8978  87.0264

          k = 0.1667 0.1667 0.3333 (   791 PWs)   bands (ev):

    40.2840  40.3527  40.3530  43.4237  43.9373  45.4852  45.4855  50.0305
    51.4885  51.9521  54.7183  54.7184  56.4228  57.9470  59.1119  59.8149
    59.8154  61.7778  68.4571  68.4577  69.1598  73.7403  82.8566  83.9834
    83.9839  87.0718

          k = 0.1667 0.1667 0.4167 (   793 PWs)   bands (ev):

    41.4540  42.0504  42.0508  43.4007  45.1472  46.7272  46.7276  49.5310
    50.6931  52.8019  52.8022  53.0516  54.0866  56.0847  58.1649  58.1653
    62.0804  63.7118  67.6155  67.7121  67.7127  69.6937  83.9817  84.7642
    84.7647  86.9351

          k = 0.1667 0.1667-0.5000 (   782 PWs)   bands (ev):

    42.5310  42.5316  43.1230  43.1235  46.5514  46.5517  47.2588  47.2593
    52.1017  52.1017  52.6700  52.6702  54.4374  54.4374  57.1616  57.1620
    65.7217  65.7220  65.7416  65.7417  67.4674  67.4680  85.2144  85.2148
    86.6386  86.6394

          k = 0.1667 0.2500 0.2500 (   790 PWs)   bands (ev):

    39.3963  39.9008  39.9011  43.6404  44.0496  44.0498  45.3904  50.6061
    50.8693  53.3029  55.9394  55.9400  57.2817  57.9786  58.4307  59.2370
    59.2370  61.0020  68.9860  69.5627  69.5629  79.6838  79.6839  81.5302
    82.1752  87.6259

          k = 0.1667 0.2500 0.3333 (   790 PWs)   bands (ev):

    40.3909  40.9732  41.2352  43.3735  45.0549  45.7011  47.1110  50.1242
    51.3085  53.3853  53.4866  54.1096  55.1411  57.2405  57.4827  58.5916
    58.9536  63.2385  67.8784  68.2972  68.7468  75.9784  81.4430  81.5439
    81.6537  87.8749

          k = 0.1667 0.2500 0.4167 (   792 PWs)   bands (ev):

    41.8877  41.9855  42.9562  43.1573  45.8843  46.4270  47.2792  49.3803
    51.7755  52.6433  52.7895  52.8198  54.2632  55.3462  56.4654  57.5143
    61.5826  65.9425  66.8753  66.9860  67.1197  72.3433  81.8118  82.3360
    82.4530  86.2497

          k = 0.1667 0.2500-0.5000 (   790 PWs)   bands (ev):

    42.7362  42.7368  43.5062  43.5066  45.8273  45.8275  48.0394  48.0397
    51.8059  51.8062  53.7480  53.7481  54.0201  54.0202  56.2176  56.2180
    64.4702  64.4703  66.5720  66.5725  68.9798  68.9799  82.2692  82.2697
    84.1010  84.1011

          k = 0.1667 0.3333 0.3333 (   794 PWs)   bands (ev):

    40.9687  42.2199  42.2202  43.1249  46.0166  46.0166  48.1378  49.8542
    50.8830  52.4879  52.4881  55.3848  55.3972  55.6228  56.9173  56.9174
    58.3356  66.0035  66.8461  67.4596  67.4597  78.2066  78.2067  80.1970
    81.2496  87.6769

          k = 0.1667 0.3333 0.4167 (   790 PWs)   bands (ev):

    42.0732  42.9372  43.1083  43.9379  45.2433  46.6361  47.6657  48.9208
    51.2487  52.1046  52.8621  54.4670  55.0560  55.3550  55.9051  56.5218
    60.2300  65.6190  65.7442  66.1364  69.0345  75.1137  79.5487  79.8049
    81.9380  85.5831

          k = 0.1667 0.3333-0.5000 (   790 PWs)   bands (ev):

    43.1500  43.1504  43.6018  43.6019  45.9238  45.9239  47.7049  47.7050
    51.8414  51.8416  53.9425  53.9429  54.5889  54.5893  56.1225  56.1226
    63.0345  63.0345  65.4055  65.4059  72.0895  72.0896  79.8798  79.8802
    83.4656  83.4659

          k = 0.1667 0.4167 0.4167 (   795 PWs)   bands (ev):

    42.6570  43.2159  43.9103  43.9103  45.9437  45.9439  47.4835  48.3564
    50.9745  52.4257  52.4261  53.0912  56.1054  56.1056  56.9027  57.0431
    59.7790  64.2991  64.2992  64.3635  72.0494  77.1587  77.1589  78.8571
    82.4497  85.8501

          k = 0.1667 0.4167-0.5000 (   790 PWs)   bands (ev):

    43.4864  43.4866  43.5404  43.5404  46.5262  46.5265  47.2663  47.2667
    51.5329  51.5331  52.5794  52.5799  56.5756  56.5761  57.1327  57.1327
    61.8279  61.8279  63.6576  63.6580  74.7625  74.7626  78.2700  78.2703
    83.8664  83.8666

          k = 0.1667-0.5000-0.5000 (   788 PWs)   bands (ev):

    43.5509  43.5509  43.5512  43.5513  47.0215  47.0219  47.0219  47.0222
    51.6277  51.6277  51.6277  51.6285  57.7254  57.7258  57.7258  57.7260
    61.9036  61.9040  61.9040  61.9041  76.7736  76.7736  76.7736  76.7742
    85.1120  85.1123

          k = 0.2500 0.2500 0.2500 (   784 PWs)   bands (ev):

    40.2185  40.2189  40.2189  42.7774  45.7494  45.7498  45.7498  50.6243
    50.6243  55.5353  55.8810  55.8810  55.8816  56.5514  56.5517  56.5517
    60.0357  60.0357  69.7664  69.7669  69.7669  80.0815  80.0821  80.0821
    80.1423  87.7082

          k = 0.2500 0.2500 0.3333 (   791 PWs)   bands (ev):

    41.1170  41.1172  41.1303  42.3601  46.2674  46.7356  46.7360  50.0230
    50.7198  54.3150  54.3153  54.6875  54.7846  56.1755  56.2874  56.2879
    61.1526  62.3425  68.8447  68.8451  69.6948  76.3673  79.8247  80.4718
    80.4723  86.8074

          k = 0.2500 0.2500 0.4167 (   788 PWs)   bands (ev):

    41.8490  42.2436  42.5346  42.5348  46.0580  46.0584  47.0170  49.1103
    51.1949  53.2597  54.0626  54.0630  54.0666  55.0936  56.2633  56.2636
    64.4801  64.7092  67.6136  67.6140  68.6780  72.3518  80.5420  80.8177
    80.8183  84.3839

          k = 0.2500 0.2500-0.5000 (   792 PWs)   bands (ev):

    42.1768  42.1772  44.2789  44.2793  44.3582  44.3584  48.0271  48.0272
    52.0489  52.0491  54.2198  54.2203  54.3679  54.3684  56.1877  56.1878
    66.9141  66.9143  67.0421  67.0425  68.3376  68.3377  80.9720  80.9726
    82.1395  82.1397

          k = 0.2500 0.3333 0.3333 (   787 PWs)   bands (ev):

    41.4930  41.7964  41.7966  41.8263  46.4958  46.4958  47.0562  49.9381
    50.0180  53.2515  53.2515  53.6621  55.7523  55.7526  56.4529  58.5784
    60.8682  64.6569  68.4211  69.0197  69.0199  77.3679  77.3681  79.2076
    79.3671  86.2383

          k = 0.2500 0.3333 0.4167 (   790 PWs)   bands (ev):

    41.7189  42.0522  42.3114  42.8170  45.6370  46.3618  46.8370  48.9541
    50.3049  52.0399  52.7160  52.7775  56.0249  57.1362  57.7135  58.0064
    63.1077  67.4148  67.6519  67.7350  68.0244  73.9823  78.2012  78.8372
    79.7152  83.5473

          k = 0.2500 0.3333-0.5000 (   788 PWs)   bands (ev):

    41.8926  41.8929  43.2333  43.2334  45.2692  45.2696  47.7980  47.7982
    51.0054  51.0056  52.5919  52.5924  56.8459  56.8464  58.0806  58.0807
    65.9000  65.9001  66.9593  66.9597  70.7487  70.7488  78.6061  78.6066
    81.2344  81.2345

          k = 0.2500 0.4167 0.4167 (   797 PWs)   bands (ev):

    41.5969  42.3433  42.3736  42.3736  46.3934  46.3935  46.4757  48.6628
    49.7666  51.3427  51.3429  51.5093  58.2505  58.2506  59.3483  60.1814
    62.4108  66.4944  66.6808  66.6809  70.5641  75.6044  75.6044  77.5296
    80.0657  83.8111

          k = 0.2500 0.4167-0.5000 (   788 PWs)   bands (ev):

    41.8487  41.8488  42.4711  42.4712  46.3207  46.3210  47.6011  47.6014
    50.2736  50.2738  51.0885  51.0890  59.4627  59.4632  59.7352  59.7352
    64.5354  64.5354  65.8986  65.8990  73.1748  73.1750  76.6613  76.6617
    81.5238  81.5239

          k = 0.2500-0.5000-0.5000 (   788 PWs)   bands (ev):

    42.0288  42.0288  42.0290  42.0290  47.1908  47.1910  47.1910  47.1915
    50.2120  50.2120  50.2120  50.2127  60.7186  60.7189  60.7189  60.7191
    64.3819  64.3822  64.3822  64.3824  75.0442  75.0445  75.0445  75.0449
    82.8680  82.8681

          k = 0.3333 0.3333 0.3333 (   789 PWs)   bands (ev):

    41.0646  41.7516  41.7518  41.7518  46.5313  46.5315  46.5315  49.5876
    49.5876  52.1209  52.1212  52.1212  57.4043  57.4043  57.4045  61.7405
    63.4637  63.4637  69.3081  69.3086  69.3086  76.6517  76.6524  76.6524
    78.2895  85.7294

          k = 0.3333 0.3333 0.4167 (   790 PWs)   bands (ev):

    40.8294  41.4852  41.9610  41.9611  46.1802  46.1804  46.9202  48.8557
    49.5974  50.8928  51.2799  51.2803  58.4916  59.3719  59.3720  61.1457
    65.9151  66.1354  68.5014  68.5018  69.1528  73.2810  76.4214  76.4219
    78.5962  82.5585

          k = 0.3333 0.3333-0.5000 (   792 PWs)   bands (ev):

    41.0384  41.0386  42.1115  42.1116  45.9282  45.9285  47.8650  47.8653
    50.0392  50.0394  51.0381  51.0386  59.7421  59.7427  60.2980  60.2981
    67.8997  67.9001  67.9302  67.9302  69.7375  69.7377  76.4026  76.4031
    80.0801  80.0802

          k = 0.3333 0.4167 0.4167 (   785 PWs)   bands (ev):

    40.4752  41.2144  41.2144  41.4338  46.6382  46.9136  46.9137  48.7918
    48.9759  50.1048  50.1049  50.1981  60.9322  60.9322  61.4461  63.5510
    64.9745  68.1930  68.4599  68.4600  68.7705  73.7256  73.7258  75.1307
    78.7430  82.6045

          k = 0.3333 0.4167-0.5000 (   790 PWs)   bands (ev):

    40.6339  40.6341  41.1980  41.1980  46.8579  46.8582  47.9181  47.9184
    49.3155  49.3158  49.8227  49.8232  62.2791  62.2791  62.4515  62.4521
    67.0151  67.0151  67.7233  67.7238  71.2474  71.2477  74.3866  74.3871
    80.1577  80.1577

          k = 0.3333-0.5000-0.5000 (   780 PWs)   bands (ev):

    40.6911  40.6911  40.6911  40.6912  47.6634  47.6634  47.6634  47.6640
    49.1435  49.1436  49.1436  49.1442  63.5985  63.5988  63.5988  63.5990
    66.6431  66.6435  66.6435  66.6437  72.8422  72.8425  72.8425  72.8429
    81.3783  81.3783

          k = 0.4167 0.4167 0.4167 (   789 PWs)   bands (ev):

    39.9219  40.4998  40.4998  40.4998  47.3549  47.3550  47.3550  48.6256
    48.6256  49.2527  49.2530  49.2530  63.3443  63.3443  63.3443  66.5156
    67.1773  67.1773  69.0023  69.0028  69.0028  72.4448  72.4454  72.4454
    78.6372  81.9776

          k = 0.4167 0.4167-0.5000 (   790 PWs)   bands (ev):

    39.9462  39.9463  40.2596  40.2597  47.5471  47.5474  48.1101  48.1104
    48.7206  48.7209  48.9344  48.9348  64.5415  64.5416  65.1109  65.1115
    68.6366  68.6371  68.6380  68.6381  69.7276  69.7280  72.1961  72.1965
    79.7988  79.7988

          k = 0.4167-0.5000-0.5000 (   796 PWs)   bands (ev):

    39.8236  39.8236  39.8236  39.8237  48.0916  48.0916  48.0917  48.0923
    48.4847  48.4848  48.4848  48.4854  66.1707  66.1712  66.1712  66.1714
    68.2844  68.2847  68.2847  68.2850  70.6454  70.6457  70.6457  70.6460
    80.4263  80.4263

          k =-0.5000-0.5000-0.5000 (   840 PWs)   bands (ev):

    39.5235  39.5235  39.5235  39.5236  48.2619  48.2619  48.2619  48.2620
    48.2620  48.2620  48.2626  48.2626  68.0585  68.0596  68.0596  68.0596
    68.8948  68.8948  68.8948  68.8953  68.8953  68.8953  68.8954  68.8954
    80.0740  80.0740

     the Fermi energy is    76.8255 ev

!    total energy              =   -3080.84410868 Ry

     total all-electron energy =   -152076.228473 Ry
     estimated scf accuracy    <       0.00000014 Ry
     smearing contrib. (-TS)   =      -0.11677197 Ry
     internal energy E=F+TS    =   -3080.72733671 Ry

     The total energy is F=E-TS. E is the sum of the following terms:
     one-electron contribution =     267.69696655 Ry
     hartree contribution      =       5.90758429 Ry
     xc contribution           =    -143.09261814 Ry
     ewald contribution        =    -435.17546101 Ry
     one-center paw contrib.   =   -2776.06380841 Ry

     convergence has been achieved in   6 iterations

     negative rho (up, down):  2.535E-02 0.000E+00

     Forces acting on atoms (cartesian axes, Ry/au):

     atom    1 type  1   force =     0.00000000    0.00000000    0.00000000
     atom    2 type  1   force =     0.00000000    0.00000000    0.00000000
     atom    3 type  1   force =     0.00000000   -0.00000000   -0.00000000
     atom    4 type  1   force =     0.00000000    0.00000000   -0.00000000

     Total force =     0.000000     Total SCF correction =     0.000000

     Writing all to output data dir ./pwscf.save/
 
     init_run     :      0.47s CPU      0.50s WALL (       1 calls)
     electrons    :     13.44s CPU     13.89s WALL (       1 calls)
     forces       :      0.07s CPU      0.07s WALL (       1 calls)

     Called by init_run:
     wfcinit      :      0.32s CPU      0.34s WALL (       1 calls)
     potinit      :      0.11s CPU      0.12s WALL (       1 calls)
     hinit0       :      0.03s CPU      0.04s WALL (       1 calls)

     Called by electrons:
     c_bands      :     12.44s CPU     12.79s WALL (       6 calls)
     sum_band     :      0.52s CPU      0.54s WALL (       6 calls)
     v_of_rho     :      0.01s CPU      0.01s WALL (       7 calls)
     newd         :      0.01s CPU      0.01s WALL (       7 calls)
     PAW_pot      :      0.56s CPU      0.60s WALL (       7 calls)
     mix_rho      :      0.00s CPU      0.00s WALL (       6 calls)

     Called by c_bands:
     init_us_2    :      0.03s CPU      0.03s WALL (    1176 calls)
     init_us_2:cp :      0.03s CPU      0.03s WALL (    1176 calls)
     cegterg      :     12.26s CPU     12.60s WALL (     504 calls)

     Called by *egterg:
     cdiaghg      :      6.42s CPU      6.53s WALL (    5096 calls)
     h_psi        :      3.91s CPU      4.09s WALL (    5180 calls)
     s_psi        :      0.18s CPU      0.19s WALL (    5180 calls)
     g_psi        :      0.02s CPU      0.02s WALL (    4592 calls)

     Called by h_psi:
     h_psi:calbec :      0.38s CPU      0.40s WALL (    5180 calls)
     vloc_psi     :      3.30s CPU      3.45s WALL (    5180 calls)
     add_vuspsi   :      0.20s CPU      0.21s WALL (    5180 calls)

     General routines
     calbec       :      0.46s CPU      0.49s WALL (    6020 calls)
     fft          :      0.00s CPU      0.00s WALL (      88 calls)
     ffts         :      0.00s CPU      0.00s WALL (       6 calls)
     fftw         :      3.41s CPU      3.57s WALL (  142752 calls)
 
     Parallel routines
 
     PWSCF        :     14.64s CPU     16.46s WALL

 
   This run was terminated on:  12:36: 8   5Apr2024            

=------------------------------------------------------------------------------=
   JOB DONE.
=------------------------------------------------------------------------------=
