MPI startup(): Warning: I_MPI_PMI_LIBRARY will be ignored since the hydra process manager was found
MPI startup(): Warning: I_MPI_PMI_LIBRARY will be ignored since the hydra process manager was found
MPI startup(): Warning: I_MPI_PMI_LIBRARY will be ignored since the hydra process manager was found
MPI startup(): Warning: I_MPI_PMI_LIBRARY will be ignored since the hydra process manager was found
MPI startup(): Warning: I_MPI_PMI_LIBRARY will be ignored since the hydra process manager was found
MPI startup(): Warning: I_MPI_PMI_LIBRARY will be ignored since the hydra process manager was found
MPI startup(): Warning: I_MPI_PMI_LIBRARY will be ignored since the hydra process manager was found
MPI startup(): Warning: I_MPI_PMI_LIBRARY will be ignored since the hydra process manager was found
MPI startup(): Warning: I_MPI_PMI_LIBRARY will be ignored since the hydra process manager was found
MPI startup(): Warning: I_MPI_PMI_LIBRARY will be ignored since the hydra process manager was found

     Program PWSCF v.7.0 starts on  5Apr2024 at 12:35:52 

     This program is part of the open-source Quantum ESPRESSO suite
     for quantum simulation of materials; please cite
         "P. Giannozzi et al., J. Phys.:Condens. Matter 21 395502 (2009);
         "P. Giannozzi et al., J. Phys.:Condens. Matter 29 465901 (2017);
         "P. Giannozzi et al., J. Chem. Phys. 152 154105 (2020);
          URL http://www.quantum-espresso.org", 
     in publications or presentations arising from this work. More details at
     http://www.quantum-espresso.org/quote

     Parallel version (MPI), running on    10 processors

     MPI processes distributed on     1 nodes
     R & G space division:  proc/nbgrp/npool/nimage =      10
     225883 MiB available memory on the printing compute node when the environment starts
 
     Reading input from VolumeFCC_9.6.in
Warning: card &CELL ignored
Warning: card / ignored

     Current dimensions of program PWSCF are:
     Max number of different atomic species (ntypx) = 10
     Max number of k-points (npk) =  40000
     Max angular momentum in pseudopotentials (lmaxx) =  4
     file Au.pbe-n-kjpaw_psl.1.0.0.UPF: wavefunction(s)  6S 5D renormalized
     Found identity + ( -0.5000 -0.5000  0.0000) symmetry
     This is a supercell, fractional translations are disabled
     Message from routine setup:
     using ibrav=0 with symmetry is DISCOURAGED, use correct ibrav instead

     Subspace diagonalization in iterative solution of the eigenvalue problem:
     one sub-group per band group will be used
     scalapack distributed-memory algorithm (size of sub-group:  3*  3 procs)

 
     Parallelization info
     --------------------
     sticks:   dense  smooth     PW     G-vecs:    dense   smooth      PW
     Min         147     147     42                 4221     4221     666
     Max         149     149     44                 4222     4222     669
     Sum        1473    1473    429                42211    42211    6667
 
     Using Slab Decomposition
 


     bravais-lattice index     =            0
     lattice parameter (alat)  =       9.5986  a.u.
     unit-cell volume          =     884.3514 (a.u.)^3
     number of atoms/cell      =            4
     number of atomic types    =            1
     number of electrons       =        44.00
     number of Kohn-Sham states=           26
     kinetic-energy cutoff     =      50.0000  Ry
     charge density cutoff     =     200.0000  Ry
     scf convergence threshold =      1.0E-06
     mixing beta               =       0.7000
     number of iterations used =            8  plain     mixing
     Exchange-correlation= SLA  PW   PBX  PBC
                           (   1   4   3   4   0   0   0)

     celldm(1)=   9.598609  celldm(2)=   0.000000  celldm(3)=   0.000000
     celldm(4)=   0.000000  celldm(5)=   0.000000  celldm(6)=   0.000000

     crystal axes: (cart. coord. in units of alat)
               a(1) = (   1.000000   0.000000   0.000000 )  
               a(2) = (   0.000000   1.000000   0.000000 )  
               a(3) = (   0.000000   0.000000   1.000000 )  

     reciprocal axes: (cart. coord. in units 2 pi/alat)
               b(1) = (  1.000000  0.000000  0.000000 )  
               b(2) = (  0.000000  1.000000  0.000000 )  
               b(3) = (  0.000000  0.000000  1.000000 )  


     PseudoPot. # 1 for Au read from file:
     ./Au.pbe-n-kjpaw_psl.1.0.0.UPF
     MD5 check sum: 4db85c736373c707a97ce4c36c2a9d23
     Pseudo is Projector augmented-wave + core cor, Zval = 11.0
     Generated using &quot;atomic&quot; code by A. Dal Corso  v.6.3
     Shape of augmentation charge: PSQ
     Using radial grid of 1279 points,  6 beta functions with: 
                l(1) =   0
                l(2) =   0
                l(3) =   1
                l(4) =   1
                l(5) =   2
                l(6) =   2
     Q(r) pseudized with 0 coefficients 


     atomic species   valence    mass     pseudopotential
        Au            11.00   196.96657     Au( 1.00)

     48 Sym. Ops., with inversion, found



   Cartesian axes

     site n.     atom                  positions (alat units)
         1           Au  tau(   1) = (   0.0000000   0.0000000   0.0000000  )
         2           Au  tau(   2) = (   0.5000000   0.5000000   0.0000000  )
         3           Au  tau(   3) = (   0.5000000   0.0000000   0.5000000  )
         4           Au  tau(   4) = (   0.0000000   0.5000000   0.5000000  )

     number of k points=    84  Gaussian smearing, width (Ry)=  0.2000
                       cart. coord. in units 2pi/alat
        k(    1) = (   0.0000000   0.0000000   0.0000000), wk =   0.0011574
        k(    2) = (   0.0000000   0.0000000   0.0833333), wk =   0.0069444
        k(    3) = (   0.0000000   0.0000000   0.1666667), wk =   0.0069444
        k(    4) = (   0.0000000   0.0000000   0.2500000), wk =   0.0069444
        k(    5) = (   0.0000000   0.0000000   0.3333333), wk =   0.0069444
        k(    6) = (   0.0000000   0.0000000   0.4166667), wk =   0.0069444
        k(    7) = (   0.0000000   0.0000000  -0.5000000), wk =   0.0034722
        k(    8) = (   0.0000000   0.0833333   0.0833333), wk =   0.0138889
        k(    9) = (   0.0000000   0.0833333   0.1666667), wk =   0.0277778
        k(   10) = (   0.0000000   0.0833333   0.2500000), wk =   0.0277778
        k(   11) = (   0.0000000   0.0833333   0.3333333), wk =   0.0277778
        k(   12) = (   0.0000000   0.0833333   0.4166667), wk =   0.0277778
        k(   13) = (   0.0000000   0.0833333  -0.5000000), wk =   0.0138889
        k(   14) = (   0.0000000   0.1666667   0.1666667), wk =   0.0138889
        k(   15) = (   0.0000000   0.1666667   0.2500000), wk =   0.0277778
        k(   16) = (   0.0000000   0.1666667   0.3333333), wk =   0.0277778
        k(   17) = (   0.0000000   0.1666667   0.4166667), wk =   0.0277778
        k(   18) = (   0.0000000   0.1666667  -0.5000000), wk =   0.0138889
        k(   19) = (   0.0000000   0.2500000   0.2500000), wk =   0.0138889
        k(   20) = (   0.0000000   0.2500000   0.3333333), wk =   0.0277778
        k(   21) = (   0.0000000   0.2500000   0.4166667), wk =   0.0277778
        k(   22) = (   0.0000000   0.2500000  -0.5000000), wk =   0.0138889
        k(   23) = (   0.0000000   0.3333333   0.3333333), wk =   0.0138889
        k(   24) = (   0.0000000   0.3333333   0.4166667), wk =   0.0277778
        k(   25) = (   0.0000000   0.3333333  -0.5000000), wk =   0.0138889
        k(   26) = (   0.0000000   0.4166667   0.4166667), wk =   0.0138889
        k(   27) = (   0.0000000   0.4166667  -0.5000000), wk =   0.0138889
        k(   28) = (   0.0000000  -0.5000000  -0.5000000), wk =   0.0034722
        k(   29) = (   0.0833333   0.0833333   0.0833333), wk =   0.0092593
        k(   30) = (   0.0833333   0.0833333   0.1666667), wk =   0.0277778
        k(   31) = (   0.0833333   0.0833333   0.2500000), wk =   0.0277778
        k(   32) = (   0.0833333   0.0833333   0.3333333), wk =   0.0277778
        k(   33) = (   0.0833333   0.0833333   0.4166667), wk =   0.0277778
        k(   34) = (   0.0833333   0.0833333  -0.5000000), wk =   0.0138889
        k(   35) = (   0.0833333   0.1666667   0.1666667), wk =   0.0277778
        k(   36) = (   0.0833333   0.1666667   0.2500000), wk =   0.0555556
        k(   37) = (   0.0833333   0.1666667   0.3333333), wk =   0.0555556
        k(   38) = (   0.0833333   0.1666667   0.4166667), wk =   0.0555556
        k(   39) = (   0.0833333   0.1666667  -0.5000000), wk =   0.0277778
        k(   40) = (   0.0833333   0.2500000   0.2500000), wk =   0.0277778
        k(   41) = (   0.0833333   0.2500000   0.3333333), wk =   0.0555556
        k(   42) = (   0.0833333   0.2500000   0.4166667), wk =   0.0555556
        k(   43) = (   0.0833333   0.2500000  -0.5000000), wk =   0.0277778
        k(   44) = (   0.0833333   0.3333333   0.3333333), wk =   0.0277778
        k(   45) = (   0.0833333   0.3333333   0.4166667), wk =   0.0555556
        k(   46) = (   0.0833333   0.3333333  -0.5000000), wk =   0.0277778
        k(   47) = (   0.0833333   0.4166667   0.4166667), wk =   0.0277778
        k(   48) = (   0.0833333   0.4166667  -0.5000000), wk =   0.0277778
        k(   49) = (   0.0833333  -0.5000000  -0.5000000), wk =   0.0069444
        k(   50) = (   0.1666667   0.1666667   0.1666667), wk =   0.0092593
        k(   51) = (   0.1666667   0.1666667   0.2500000), wk =   0.0277778
        k(   52) = (   0.1666667   0.1666667   0.3333333), wk =   0.0277778
        k(   53) = (   0.1666667   0.1666667   0.4166667), wk =   0.0277778
        k(   54) = (   0.1666667   0.1666667  -0.5000000), wk =   0.0138889
        k(   55) = (   0.1666667   0.2500000   0.2500000), wk =   0.0277778
        k(   56) = (   0.1666667   0.2500000   0.3333333), wk =   0.0555556
        k(   57) = (   0.1666667   0.2500000   0.4166667), wk =   0.0555556
        k(   58) = (   0.1666667   0.2500000  -0.5000000), wk =   0.0277778
        k(   59) = (   0.1666667   0.3333333   0.3333333), wk =   0.0277778
        k(   60) = (   0.1666667   0.3333333   0.4166667), wk =   0.0555556
        k(   61) = (   0.1666667   0.3333333  -0.5000000), wk =   0.0277778
        k(   62) = (   0.1666667   0.4166667   0.4166667), wk =   0.0277778
        k(   63) = (   0.1666667   0.4166667  -0.5000000), wk =   0.0277778
        k(   64) = (   0.1666667  -0.5000000  -0.5000000), wk =   0.0069444
        k(   65) = (   0.2500000   0.2500000   0.2500000), wk =   0.0092593
        k(   66) = (   0.2500000   0.2500000   0.3333333), wk =   0.0277778
        k(   67) = (   0.2500000   0.2500000   0.4166667), wk =   0.0277778
        k(   68) = (   0.2500000   0.2500000  -0.5000000), wk =   0.0138889
        k(   69) = (   0.2500000   0.3333333   0.3333333), wk =   0.0277778
        k(   70) = (   0.2500000   0.3333333   0.4166667), wk =   0.0555556
        k(   71) = (   0.2500000   0.3333333  -0.5000000), wk =   0.0277778
        k(   72) = (   0.2500000   0.4166667   0.4166667), wk =   0.0277778
        k(   73) = (   0.2500000   0.4166667  -0.5000000), wk =   0.0277778
        k(   74) = (   0.2500000  -0.5000000  -0.5000000), wk =   0.0069444
        k(   75) = (   0.3333333   0.3333333   0.3333333), wk =   0.0092593
        k(   76) = (   0.3333333   0.3333333   0.4166667), wk =   0.0277778
        k(   77) = (   0.3333333   0.3333333  -0.5000000), wk =   0.0138889
        k(   78) = (   0.3333333   0.4166667   0.4166667), wk =   0.0277778
        k(   79) = (   0.3333333   0.4166667  -0.5000000), wk =   0.0277778
        k(   80) = (   0.3333333  -0.5000000  -0.5000000), wk =   0.0069444
        k(   81) = (   0.4166667   0.4166667   0.4166667), wk =   0.0092593
        k(   82) = (   0.4166667   0.4166667  -0.5000000), wk =   0.0138889
        k(   83) = (   0.4166667  -0.5000000  -0.5000000), wk =   0.0069444
        k(   84) = (  -0.5000000  -0.5000000  -0.5000000), wk =   0.0011574

     Dense  grid:    42211 G-vectors     FFT dimensions: (  45,  45,  45)

     Estimated max dynamical RAM per process >      34.65 MB

     Estimated total dynamical RAM >     346.47 MB

     Initial potential from superposition of free atoms

     starting charge      43.9996, renormalised to      44.0000
     Starting wfcs are   36 randomized atomic wfcs
     Checking if some PAW data can be deallocated... 

     total cpu time spent up to now is        4.0 secs

     Self-consistent Calculation

     iteration #  1     ecut=    50.00 Ry     beta= 0.70
     Davidson diagonalization with overlap
     ethr =  1.00E-02,  avg # of iterations =  2.1

     Threshold (ethr) on eigenvalues was too large:
     Diagonalizing with lowered threshold

     Davidson diagonalization with overlap
     ethr =  7.17E-04,  avg # of iterations =  2.8

     total cpu time spent up to now is        8.9 secs

     total energy              =   -3100.42829569 Ry
     estimated scf accuracy    <       0.33645172 Ry

     iteration #  2     ecut=    50.00 Ry     beta= 0.70
     Davidson diagonalization with overlap
     ethr =  7.65E-04,  avg # of iterations =  2.1

     total cpu time spent up to now is       12.0 secs

     total energy              =   -3100.55395980 Ry
     estimated scf accuracy    <       0.16262374 Ry

     iteration #  3     ecut=    50.00 Ry     beta= 0.70
     Davidson diagonalization with overlap
     ethr =  3.70E-04,  avg # of iterations =  1.7

     total cpu time spent up to now is       14.2 secs

     total energy              =   -3100.57765378 Ry
     estimated scf accuracy    <       0.00741191 Ry

     iteration #  4     ecut=    50.00 Ry     beta= 0.70
     Davidson diagonalization with overlap
     ethr =  1.68E-05,  avg # of iterations =  5.2

     total cpu time spent up to now is       18.4 secs

     total energy              =   -3100.58189620 Ry
     estimated scf accuracy    <       0.00228844 Ry

     iteration #  5     ecut=    50.00 Ry     beta= 0.70
     Davidson diagonalization with overlap
     ethr =  5.20E-06,  avg # of iterations =  6.3

     total cpu time spent up to now is       23.5 secs

     total energy              =   -3100.57632761 Ry
     estimated scf accuracy    <       0.02960804 Ry

     iteration #  6     ecut=    50.00 Ry     beta= 0.70
     Davidson diagonalization with overlap
     ethr =  5.20E-06,  avg # of iterations =  4.3

     total cpu time spent up to now is       27.7 secs

     total energy              =   -3100.58139635 Ry
     estimated scf accuracy    <       0.00029231 Ry

     iteration #  7     ecut=    50.00 Ry     beta= 0.70
     Davidson diagonalization with overlap
     ethr =  6.64E-07,  avg # of iterations =  6.0

     total cpu time spent up to now is       32.5 secs

     total energy              =   -3100.58159017 Ry
     estimated scf accuracy    <       0.00003686 Ry

     iteration #  8     ecut=    50.00 Ry     beta= 0.70
     Davidson diagonalization with overlap
     c_bands:  1 eigenvalues not converged
     ethr =  8.38E-08,  avg # of iterations =  7.6

     total cpu time spent up to now is       37.9 secs

     total energy              =   -3100.58161920 Ry
     estimated scf accuracy    <       0.00004858 Ry

     iteration #  9     ecut=    50.00 Ry     beta= 0.70
     Davidson diagonalization with overlap
     ethr =  8.38E-08,  avg # of iterations =  3.2

     total cpu time spent up to now is       41.4 secs

     total energy              =   -3100.58165423 Ry
     estimated scf accuracy    <       0.00005256 Ry

     iteration # 10     ecut=    50.00 Ry     beta= 0.70
     Davidson diagonalization with overlap
     ethr =  8.38E-08,  avg # of iterations =  1.0

     total cpu time spent up to now is       43.4 secs

     total energy              =   -3100.58164954 Ry
     estimated scf accuracy    <       0.00003895 Ry

     iteration # 11     ecut=    50.00 Ry     beta= 0.70
     Davidson diagonalization with overlap
     ethr =  8.38E-08,  avg # of iterations =  1.0

     total cpu time spent up to now is       45.4 secs

     total energy              =   -3100.58164015 Ry
     estimated scf accuracy    <       0.00002770 Ry

     iteration # 12     ecut=    50.00 Ry     beta= 0.70
     Davidson diagonalization with overlap
     ethr =  6.29E-08,  avg # of iterations =  1.0

     total cpu time spent up to now is       47.4 secs

     total energy              =   -3100.58164084 Ry
     estimated scf accuracy    <       0.00000737 Ry

     iteration # 13     ecut=    50.00 Ry     beta= 0.70
     Davidson diagonalization with overlap
     ethr =  1.67E-08,  avg # of iterations =  1.3

     total cpu time spent up to now is       49.5 secs

     total energy              =   -3100.58164068 Ry
     estimated scf accuracy    <       0.00000514 Ry

     iteration # 14     ecut=    50.00 Ry     beta= 0.70
     Davidson diagonalization with overlap
     ethr =  1.17E-08,  avg # of iterations =  1.4

     total cpu time spent up to now is       51.6 secs

     total energy              =   -3100.58164066 Ry
     estimated scf accuracy    <       0.00000334 Ry

     iteration # 15     ecut=    50.00 Ry     beta= 0.70
     Davidson diagonalization with overlap
     ethr =  7.59E-09,  avg # of iterations =  1.4

     total cpu time spent up to now is       53.6 secs

     total energy              =   -3100.58163916 Ry
     estimated scf accuracy    <       0.00000256 Ry

     iteration # 16     ecut=    50.00 Ry     beta= 0.70
     Davidson diagonalization with overlap
     ethr =  5.82E-09,  avg # of iterations =  3.8

     total cpu time spent up to now is       56.8 secs

     End of self-consistent calculation

          k = 0.0000 0.0000 0.0000 (  5257 PWs)   bands (ev):

     0.3368   1.6399   1.6404   1.6404   1.6749   1.6749   1.6749   2.2584
     2.2584   2.2584   2.6778   2.6778   3.0067   3.0067   3.0069   3.1199
     3.1199   3.1199   3.1202   3.1202   3.1202   7.0455   7.0455   7.0459
     7.6128   7.6128

          k = 0.0000 0.0000 0.0833 (  5297 PWs)   bands (ev):

     0.3827   1.6516   1.6594   1.6597   1.6843   1.6911   1.6911   2.2478
     2.2704   2.2704   2.6672   2.6832   2.9925   2.9926   3.0010   3.0787
     3.0787   3.1017   3.1017   3.1199   3.1202   6.2529   7.0379   7.0382
     7.6971   7.6971

          k = 0.0000 0.0000 0.1667 (  5265 PWs)   bands (ev):

     0.5192   1.6836   1.7119   1.7149   1.7153   1.7398   1.7398   2.2171
     2.3059   2.3059   2.6371   2.6992   2.9508   2.9509   2.9644   2.9644
     2.9840   3.0490   3.0490   3.1199   3.1203   5.3144   7.0170   7.0173
     7.9396   7.9396

          k = 0.0000 0.0000 0.2500 (  5270 PWs)   bands (ev):

     0.7416   1.7291   1.7561   1.7991   1.7994   1.8203   1.8203   2.1685
     2.3637   2.3637   2.5941   2.7247   2.8004   2.8004   2.8856   2.8857
     2.9572   2.9680   2.9680   3.1200   3.1204   4.4562   6.9877   6.9880
     8.3153   8.3153

          k = 0.0000 0.0000 0.3333 (  5254 PWs)   bands (ev):

     1.0380   1.7724   1.8144   1.8971   1.8975   1.9313   1.9313   2.1059
     2.4416   2.4416   2.5535   2.6117   2.6117   2.7581   2.8064   2.8065
     2.8672   2.8672   2.9225   3.1201   3.1204   3.7020   6.9576   6.9579
     8.7958   8.7958

          k = 0.0000 0.0000 0.4167 (  5278 PWs)   bands (ev):

     1.3744   1.7760   1.8831   1.9833   1.9837   2.0340   2.0708   2.0708
     2.4186   2.4186   2.5363   2.5363   2.5535   2.7339   2.7340   2.7560
     2.7560   2.7972   2.8823   3.0881   3.1201   3.1205   6.9350   6.9354
     9.3560   9.3560

          k = 0.0000 0.0000-0.5000 (  5294 PWs)   bands (ev):

     1.6574   1.6579   1.9578   1.9582   2.0197   2.0201   2.2352   2.2352
     2.2352   2.2352   2.6431   2.6431   2.6431   2.6431   2.6926   2.6928
     2.7025   2.7025   2.8394   2.8398   3.1202   3.1205   6.9267   6.9270
     9.9746   9.9748

          k = 0.0000 0.0833 0.0833 (  5301 PWs)   bands (ev):

     0.4282   1.6695   1.6709   1.6712   1.7003   1.7003   1.7158   2.2458
     2.2741   2.2816   2.6648   2.6815   2.9789   2.9814   2.9814   3.0521
     3.0649   3.0653   3.1017   3.1017   3.1066   6.2910   6.2912   7.0286
     7.7801   8.5146

          k = 0.0000 0.0833 0.1667 (  5272 PWs)   bands (ev):

     0.5632   1.7035   1.7069   1.7270   1.7274   1.7484   1.7801   2.2197
     2.3058   2.3144   2.6391   2.6966   2.9050   2.9389   2.9444   2.9479
     2.9849   3.0303   3.0488   3.1003   3.1016   5.3701   6.3895   7.0015
     8.0192   8.6211

          k = 0.0000 0.0833 0.2500 (  5260 PWs)   bands (ev):

     0.7829   1.7499   1.7707   1.7743   1.8118   1.8278   1.8729   2.1731
     2.3628   2.3658   2.6009   2.7253   2.7555   2.7897   2.8747   2.8761
     2.9063   2.9676   2.9870   3.0993   3.1013   4.5258   6.5116   6.9599
     8.3906   8.8116

          k = 0.0000 0.0833 0.3333 (  5267 PWs)   bands (ev):

     1.0752   1.7948   1.8277   1.8672   1.9106   1.9374   1.9829   2.1122
     2.4224   2.4405   2.5747   2.5790   2.6058   2.7640   2.7740   2.7999
     2.8225   2.8665   2.9401   3.0993   3.1010   3.7892   6.6249   6.9085
     8.8670   9.0917

          k = 0.0000 0.0833 0.4167 (  5273 PWs)   bands (ev):

     1.4059   1.8006   1.8948   1.9686   1.9967   2.0422   2.0748   2.0987
     2.3925   2.4167   2.4549   2.5351   2.6358   2.6477   2.7314   2.7450
     2.7550   2.8119   2.8865   3.0997   3.1006   3.2071   6.7162   6.8513
     9.4237   9.4517

          k = 0.0000 0.0833-0.5000 (  5294 PWs)   bands (ev):

     1.6844   1.6848   1.9678   1.9682   2.0263   2.0267   2.2295   2.2295
     2.2366   2.2366   2.5179   2.5180   2.6420   2.6420   2.7061   2.7062
     2.7857   2.7858   2.8884   2.8885   3.1000   3.1003   6.7886   6.7889
     9.8690   9.8695

          k = 0.0000 0.1667 0.1667 (  5265 PWs)   bands (ev):

     0.6936   1.7227   1.7606   1.7610   1.7736   1.7736   1.8581   2.2132
     2.3199   2.3391   2.6303   2.7059   2.8287   2.8290   2.8802   2.9034
     2.9867   2.9867   3.0482   3.0482   3.0670   5.5205   5.5207   6.9538
     8.2495   9.6426

          k = 0.0000 0.1667 0.2500 (  5290 PWs)   bands (ev):

     0.9049   1.7703   1.8099   1.8140   1.8478   1.8500   1.9579   2.1805
     2.3666   2.3746   2.6045   2.6667   2.7301   2.7435   2.7504   2.8473
     2.9232   2.9659   2.9662   3.0471   3.0501   4.7101   5.7302   6.8724
     8.6097   9.6387

          k = 0.0000 0.1667 0.3333 (  5277 PWs)   bands (ev):

     1.1835   1.8475   1.8595   1.8671   1.9493   1.9551   2.0658   2.1283
     2.3987   2.4402   2.4909   2.5852   2.6012   2.6119   2.7792   2.8045
     2.8439   2.8645   2.9244   3.0443   3.0459   4.0029   5.9646   6.7555
     9.0749   9.6399

          k = 0.0000 0.1667 0.4167 (  5269 PWs)   bands (ev):

     1.4958   1.8714   1.9295   1.9473   2.0350   2.0651   2.0865   2.1592
     2.3297   2.3892   2.4098   2.4844   2.5332   2.6659   2.7212   2.7526
     2.7629   2.8617   2.8978   3.0429   3.0445   3.4418   6.1984   6.6021
     9.6220   9.6688

          k = 0.0000 0.1667-0.5000 (  5296 PWs)   bands (ev):

     1.7601   1.7605   1.9969   1.9973   2.0387   2.0390   2.2243   2.2243
     2.2401   2.2402   2.3970   2.3971   2.6395   2.6396   2.7110   2.7111
     2.7719   2.7722   3.0432   3.0435   3.0778   3.0778   6.4143   6.4146
     9.7600   9.7604

          k = 0.0000 0.2500 0.2500 (  5287 PWs)   bands (ev):

     1.1002   1.7963   1.8854   1.8854   1.9012   1.9016   2.0589   2.1743
     2.3903   2.3924   2.5583   2.5586   2.5866   2.6675   2.8008   2.8033
     2.9152   2.9153   2.9642   2.9643   3.0031   4.9656   4.9658   6.7181
     8.9551  10.2048

          k = 0.0000 0.2500 0.3333 (  5282 PWs)   bands (ev):

     1.3526   1.8521   1.9315   1.9588   1.9830   2.0091   2.1446   2.1610
     2.3881   2.3940   2.4400   2.4507   2.5417   2.5808   2.7434   2.8443
     2.8619   2.8793   2.9046   2.9621   2.9759   4.2834   5.2611   6.4948
     9.4053   9.8972

          k = 0.0000 0.2500 0.4167 (  5280 PWs)   bands (ev):

     1.6286   1.9360   1.9778   1.9853   2.0930   2.0977   2.1040   2.2355
     2.2543   2.3365   2.3582   2.3937   2.5358   2.6335   2.6977   2.7501
     2.7652   2.8147   2.9604   2.9641   3.0600   3.7222   5.5778   6.2148
     9.7681   9.9391

          k = 0.0000 0.2500-0.5000 (  5280 PWs)   bands (ev):

     1.8661   1.8664   2.0395   2.0396   2.0422   2.0426   2.2435   2.2435
     2.2452   2.2454   2.3147   2.3147   2.6384   2.6384   2.7037   2.7037
     2.7254   2.7257   2.9602   2.9605   3.3151   3.3151   5.9013   5.9016
     9.7961   9.7965

          k = 0.0000 0.3333 0.3333 (  5315 PWs)   bands (ev):

     1.5613   1.8828   2.0187   2.0187   2.0787   2.0790   2.1476   2.2551
     2.2807   2.2810   2.4012   2.4663   2.4858   2.5499   2.6955   2.8140
     2.8142   2.8597   2.8597   2.9182   3.0579   4.6058   4.6060   6.1458
     9.7482   9.8396

          k = 0.0000 0.3333 0.4167 (  5283 PWs)   bands (ev):

     1.7757   1.9406   2.0587   2.0898   2.1246   2.1305   2.1347   2.2099
     2.2297   2.3184   2.3616   2.3701   2.5521   2.5768   2.6566   2.7382
     2.7499   2.7510   2.8599   2.8827   3.2771   4.0416   4.9621   5.7499
     9.7856  10.2932

          k = 0.0000 0.3333-0.5000 (  5280 PWs)   bands (ev):

     1.9605   1.9607   2.0257   2.0258   2.0980   2.0983   2.2425   2.2425
     2.2963   2.2964   2.3005   2.3008   2.6437   2.6437   2.6621   2.6623
     2.6721   2.6721   2.8656   2.8659   3.5965   3.5965   5.3469   5.3472
     9.9767   9.9770

          k = 0.0000 0.4167 0.4167 (  5284 PWs)   bands (ev):

     1.9029   1.9649   2.0769   2.0773   2.1437   2.1438   2.1518   2.2764
     2.2767   2.3069   2.3858   2.4030   2.5354   2.5931   2.6087   2.6770
     2.6773   2.7564   2.7564   2.8171   3.5615   4.4044   4.4047   5.2697
     9.9661  10.7131

          k = 0.0000 0.4167-0.5000 (  5276 PWs)   bands (ev):

     1.9989   1.9990   2.0115   2.0115   2.1551   2.1554   2.2307   2.2308
     2.3595   2.3597   2.3730   2.3734   2.5911   2.5913   2.6122   2.6122
     2.6632   2.6633   2.7760   2.7762   3.9341   3.9342   4.8149   4.8151
    10.2812  10.2815

          k = 0.0000-0.5000-0.5000 (  5280 PWs)   bands (ev):

     2.0046   2.0046   2.0050   2.0050   2.2018   2.2020   2.2020   2.2022
     2.4207   2.4212   2.4212   2.4214   2.5535   2.5535   2.5538   2.5540
     2.7060   2.7062   2.7062   2.7064   4.3394   4.3394   4.3395   4.3399
    10.6964  10.6968

          k = 0.0833 0.0833 0.0833 (  5284 PWs)   bands (ev):

     0.4730   1.6800   1.6804   1.6804   1.7256   1.7258   1.7258   2.2455
     2.2842   2.2842   2.6716   2.6716   2.9665   2.9665   2.9666   3.0315
     3.0315   3.0317   3.0959   3.0962   3.0962   6.3262   6.3262   6.3265
     8.5462   8.5462

          k = 0.0833 0.0833 0.1667 (  5268 PWs)   bands (ev):

     0.6063   1.7101   1.7165   1.7167   1.7551   1.7906   1.7907   2.2241
     2.3123   2.3143   2.6445   2.6917   2.8975   2.8976   2.9293   2.9554
     2.9555   2.9716   3.0672   3.0902   3.0904   5.4235   6.4161   6.4163
     8.6451   8.6451

          k = 0.0833 0.0833 0.2500 (  5274 PWs)   bands (ev):

     0.8229   1.7528   1.7831   1.7833   1.8018   1.8835   1.8836   2.1804
     2.3633   2.3644   2.6109   2.7237   2.7487   2.7487   2.8680   2.8769
     2.8874   2.8874   3.0258   3.0864   3.0867   4.5915   6.5241   6.5243
     8.8178   8.8179

          k = 0.0833 0.0833 0.3333 (  5282 PWs)   bands (ev):

     1.1097   1.7971   1.8594   1.8757   1.8759   1.9921   1.9923   2.1224
     2.4138   2.4294   2.5718   2.5718   2.6067   2.7525   2.7657   2.7874
     2.8103   2.8104   2.9768   3.0843   3.0846   3.8659   6.6156   6.6159
     9.0586   9.0587

          k = 0.0833 0.0833 0.4167 (  5274 PWs)   bands (ev):

     1.4325   1.8095   1.9206   1.9788   1.9791   2.0558   2.1008   2.1009
     2.3967   2.3967   2.4294   2.5099   2.6053   2.6954   2.6974   2.7381
     2.7382   2.8150   2.9235   3.0832   3.0835   3.2881   6.6725   6.6728
     9.3214   9.3217

          k = 0.0833 0.0833-0.5000 (  5276 PWs)   bands (ev):

     1.7018   1.7023   1.9863   1.9867   2.0339   2.0343   2.1848   2.1849
     2.2774   2.2774   2.4755   2.4756   2.6004   2.6005   2.7058   2.7059
     2.8685   2.8688   2.9064   2.9065   3.0829   3.0832   6.6913   6.6916
     9.4607   9.4611

          k = 0.0833 0.1667 0.1667 (  5273 PWs)   bands (ev):

     0.7341   1.7307   1.7434   1.7436   1.8219   1.8221   1.8693   2.2233
     2.3235   2.3359   2.6423   2.6975   2.8239   2.8242   2.8569   2.8813
     2.9265   2.9265   3.0654   3.0654   3.0697   5.5683   5.5685   6.4806
     8.7166   9.5996

          k = 0.0833 0.1667 0.2500 (  5279 PWs)   bands (ev):

     0.9402   1.7767   1.7818   1.8074   1.8720   1.9156   1.9688   2.1964
     2.3633   2.3707   2.6222   2.6636   2.7214   2.7254   2.7367   2.8342
     2.8594   2.8814   3.0311   3.0527   3.0544   4.7682   5.7708   6.5442
     8.8291   9.5288

          k = 0.0833 0.1667 0.3333 (  5274 PWs)   bands (ev):

     1.2097   1.8218   1.8525   1.8985   1.9335   2.0211   2.0738   2.1503
     2.3945   2.4218   2.4940   2.5607   2.6039   2.6379   2.7690   2.7739
     2.7972   2.8166   2.9860   3.0421   3.0447   4.0638   5.9952   6.5650
     8.9594   9.4208

          k = 0.0833 0.1667 0.4167 (  5274 PWs)   bands (ev):

     1.5065   1.8369   1.9520   1.9929   2.0062   2.0961   2.1066   2.1522
     2.3522   2.3811   2.4078   2.4718   2.4933   2.6713   2.7159   2.7354
     2.7450   2.8892   2.9277   3.0371   3.0388   3.4922   6.2115   6.5159
     9.0763   9.2959

          k = 0.0833 0.1667-0.5000 (  5274 PWs)   bands (ev):

     1.7475   1.7479   2.0430   2.0434   2.0477   2.0480   2.1443   2.1443
     2.3175   2.3175   2.3846   2.3847   2.5773   2.5774   2.6999   2.6999
     2.8502   2.8504   3.0361   3.0364   3.0941   3.0942   6.3929   6.3932
     9.1804   9.1808

          k = 0.0833 0.2500 0.2500 (  5284 PWs)   bands (ev):

     1.1264   1.8001   1.8406   1.8407   1.9679   1.9681   2.0680   2.2022
     2.3804   2.3867   2.5578   2.5582   2.6121   2.6492   2.7719   2.7945
     2.8341   2.8341   3.0142   3.0142   3.0174   5.0170   5.0172   6.5255
     8.8343  10.1962

          k = 0.0833 0.2500 0.3333 (  5281 PWs)   bands (ev):

     1.3626   1.8529   1.8729   1.9261   2.0351   2.0715   2.1626   2.1849
     2.3931   2.4003   2.4222   2.4420   2.5333   2.6244   2.7187   2.7528
     2.7900   2.8955   2.9656   2.9902   2.9923   4.3349   5.3077   6.4187
     8.8572   9.8135

          k = 0.0833 0.2500 0.4167 (  5282 PWs)   bands (ev):

     1.6109   1.8811   1.9331   2.0317   2.1004   2.1177   2.1562   2.2071
     2.3151   2.3379   2.3567   2.4242   2.4840   2.6572   2.6759   2.7050
     2.7297   2.9001   2.9747   2.9767   3.0561   3.7619   5.6188   6.2101
     8.9550   9.4517

          k = 0.0833 0.2500-0.5000 (  5286 PWs)   bands (ev):

     1.8051   1.8055   2.0336   2.0337   2.1334   2.1338   2.1446   2.1448
     2.3109   2.3109   2.3576   2.3576   2.5639   2.5640   2.6777   2.6778
     2.8114   2.8116   2.9705   2.9708   3.3314   3.3314   5.9296   5.9299
     9.1561   9.1565

          k = 0.0833 0.3333 0.3333 (  5283 PWs)   bands (ev):

     1.5445   1.8781   1.9452   1.9453   2.1419   2.1421   2.2058   2.2370
     2.3073   2.3077   2.4119   2.4355   2.4861   2.6106   2.6620   2.7254
     2.7255   2.9334   2.9335   2.9427   3.0512   4.6535   4.6538   6.1473
     8.8688  10.2487

          k = 0.0833 0.3333 0.4167 (  5285 PWs)   bands (ev):

     1.7211   1.9279   1.9329   2.0180   2.1479   2.2063   2.2259   2.2358
     2.2443   2.3139   2.3863   2.4492   2.4793   2.6224   2.6392   2.6654
     2.6824   2.8603   2.9063   2.9092   3.2796   4.0798   5.0093   5.7856
     9.0364   9.7509

          k = 0.0833 0.3333-0.5000 (  5278 PWs)   bands (ev):

     1.8586   1.8588   1.9957   1.9957   2.1760   2.1762   2.2059   2.2061
     2.3127   2.3128   2.4025   2.4027   2.5519   2.5520   2.6338   2.6338
     2.7663   2.7665   2.8965   2.8968   3.6168   3.6168   5.3928   5.3931
     9.3391   9.3395

          k = 0.0833 0.4167 0.4167 (  5292 PWs)   bands (ev):

     1.8185   1.9385   1.9671   1.9672   2.1842   2.1843   2.2199   2.2395
     2.3537   2.3539   2.4553   2.4703   2.4829   2.5703   2.6120   2.6122
     2.6647   2.8261   2.8262   2.8520   3.5750   4.4456   4.4459   5.3168
     9.2888  10.1634

          k = 0.0833 0.4167-0.5000 (  5286 PWs)   bands (ev):

     1.8993   1.8995   1.9598   1.9598   2.2022   2.2024   2.2097   2.2099
     2.4139   2.4141   2.4541   2.4544   2.5367   2.5370   2.5742   2.5743
     2.7355   2.7357   2.8199   2.8201   3.9623   3.9624   4.8607   4.8610
     9.6722   9.6725

          k = 0.0833-0.5000-0.5000 (  5300 PWs)   bands (ev):

     1.9297   1.9297   1.9299   1.9300   2.2108   2.2109   2.2109   2.2111
     2.5022   2.5026   2.5026   2.5028   2.5072   2.5072   2.5074   2.5076
     2.7544   2.7545   2.7545   2.7547   4.3775   4.3775   4.3776   4.3779
    10.1224  10.1225

          k = 0.1667 0.1667 0.1667 (  5263 PWs)   bands (ev):

     0.8533   1.7526   1.7529   1.7529   1.9026   1.9029   1.9029   2.2435
     2.3357   2.3357   2.6764   2.6764   2.7894   2.7894   2.7897   2.8253
     2.8253   2.8254   3.0690   3.0691   3.0691   5.6988   5.6988   5.6991
     9.4595   9.4595

          k = 0.1667 0.1667 0.2500 (  5274 PWs)   bands (ev):

     1.0428   1.7829   1.7936   1.7938   1.9569   2.0015   2.0017   2.2406
     2.3592   2.3633   2.6494   2.6494   2.6611   2.6852   2.7273   2.7512
     2.7899   2.7900   3.0547   3.0554   3.0556   4.9285   5.8798   5.8800
     9.2201   9.2204

          k = 0.1667 0.1667 0.3333 (  5275 PWs)   bands (ev):

     1.2837   1.8099   1.8639   1.8641   2.0266   2.0978   2.0980   2.2138
     2.3853   2.3963   2.5028   2.5028   2.5556   2.6695   2.7082   2.7468
     2.7469   2.7889   3.0238   3.0366   3.0368   4.2332   6.0704   6.0707
     8.9375   8.9378

          k = 0.1667 0.1667 0.4167 (  5279 PWs)   bands (ev):

     1.5363   1.8100   1.9587   1.9589   2.1004   2.1367   2.1370   2.1840
     2.3609   2.4087   2.4087   2.4237   2.4478   2.5880   2.6946   2.6946
     2.8550   2.8807   2.9775   3.0223   3.0225   3.6454   6.2220   6.2223
     8.7073   8.7076

          k = 0.1667 0.1667-0.5000 (  5262 PWs)   bands (ev):

     1.7304   1.7308   2.0568   2.0568   2.0748   2.0751   2.1551   2.1555
     2.3474   2.3474   2.3970   2.3971   2.5125   2.5126   2.6662   2.6662
     2.9196   2.9198   3.0172   3.0175   3.1910   3.1910   6.2815   6.2818
     8.6178   8.6182

          k = 0.1667 0.2500 0.2500 (  5280 PWs)   bands (ev):

     1.2008   1.8084   1.8138   1.8140   2.0554   2.0556   2.0951   2.2857
     2.3596   2.3784   2.5541   2.5544   2.5999   2.6725   2.7057   2.7191
     2.7192   2.7707   3.0409   3.0481   3.0482   5.1619   5.1621   6.0218
     8.8128   9.6356

          k = 0.1667 0.2500 0.3333 (  5270 PWs)   bands (ev):

     1.3917   1.8248   1.8505   1.8714   2.1276   2.1373   2.1682   2.2880
     2.3798   2.4081   2.4385   2.4507   2.5155   2.6356   2.6608   2.6917
     2.7122   2.8687   3.0170   3.0236   3.0253   4.4841   5.4391   6.1358
     8.4556   9.1224

          k = 0.1667 0.2500 0.4167 (  5271 PWs)   bands (ev):

     1.5804   1.8051   1.9150   1.9447   2.1349   2.1668   2.2115   2.2816
     2.3575   2.3713   2.4216   2.4236   2.4806   2.5528   2.6234   2.6527
     2.8218   2.9793   2.9959   3.0011   3.0549   3.8874   5.7295   6.1391
     8.2867   8.6803

          k = 0.1667 0.2500-0.5000 (  5272 PWs)   bands (ev):

     1.7266   1.7269   1.9768   1.9769   2.1118   2.1121   2.2967   2.2971
     2.2997   2.2997   2.4693   2.4694   2.4800   2.4801   2.6144   2.6145
     2.9139   2.9141   2.9892   2.9894   3.4007   3.4007   5.9869   5.9872
     8.3756   8.3760

          k = 0.1667 0.3333 0.3333 (  5279 PWs)   bands (ev):

     1.5146   1.8579   1.8595   1.8596   2.1865   2.1866   2.2057   2.3030
     2.3770   2.3926   2.3928   2.4984   2.5313   2.5905   2.6192   2.6193
     2.6997   2.9875   2.9995   2.9995   3.0333   4.7943   4.7945   6.0920
     8.1697   9.4610

          k = 0.1667 0.3333 0.4167 (  5279 PWs)   bands (ev):

     1.6343   1.8157   1.8817   1.8971   2.1612   2.1898   2.2314   2.2870
     2.3861   2.3939   2.4431   2.5163   2.5473   2.5502   2.5540   2.6025
     2.7752   2.9517   2.9587   2.9680   3.2973   4.1995   5.1477   5.8679
     8.1868   8.9048

          k = 0.1667 0.3333-0.5000 (  5268 PWs)   bands (ev):

     1.7380   1.7382   1.9054   1.9054   2.1548   2.1551   2.2627   2.2627
     2.4058   2.4060   2.5019   2.5022   2.5090   2.5091   2.5806   2.5807
     2.8767   2.8768   2.9493   2.9495   3.6908   3.6909   5.5220   5.5223
     8.4617   8.4620

          k = 0.1667 0.4167 0.4167 (  5282 PWs)   bands (ev):

     1.6956   1.8316   1.8317   1.8600   2.1979   2.2016   2.2017   2.2705
     2.3948   2.4466   2.4468   2.4958   2.5814   2.5814   2.6125   2.6227
     2.7591   2.9141   2.9142   2.9163   3.6276   4.5727   4.5729   5.4513
     8.3828   9.2936

          k = 0.1667 0.4167-0.5000 (  5282 PWs)   bands (ev):

     1.7623   1.7624   1.8457   1.8457   2.1945   2.1947   2.2411   2.2412
     2.4180   2.4181   2.4680   2.4682   2.6096   2.6099   2.6256   2.6258
     2.8352   2.8354   2.8940   2.8941   4.0565   4.0567   4.9982   4.9985
     8.7726   8.7729

          k = 0.1667-0.5000-0.5000 (  5292 PWs)   bands (ev):

     1.7981   1.7981   1.7982   1.7984   2.2230   2.2231   2.2231   2.2234
     2.4306   2.4306   2.4307   2.4309   2.6611   2.6614   2.6614   2.6616
     2.8362   2.8363   2.8363   2.8365   4.4970   4.4970   4.4970   4.4974
     9.2313   9.2317

          k = 0.2500 0.2500 0.2500 (  5286 PWs)   bands (ev):

     1.3106   1.8123   1.8124   1.8124   2.1386   2.1390   2.1390   2.3479
     2.3479   2.4401   2.5343   2.5343   2.5345   2.6267   2.6267   2.6267
     2.7477   2.7477   3.0523   3.0524   3.0524   5.3771   5.3771   5.3774
     9.0064   9.0065

          k = 0.2500 0.2500 0.3333 (  5277 PWs)   bands (ev):

     1.4377   1.7986   1.8330   1.8331   2.1801   2.1803   2.1937   2.3302
     2.3524   2.4755   2.5016   2.5016   2.5475   2.5479   2.5943   2.5944
     2.8265   2.8274   3.0353   3.0354   3.0440   4.7181   5.6293   5.6295
     8.4298   8.4301

          k = 0.2500 0.2500 0.4167 (  5284 PWs)   bands (ev):

     1.5636   1.7538   1.8658   1.8658   2.1575   2.1578   2.2464   2.3076
     2.3757   2.4505   2.4760   2.5149   2.5150   2.5253   2.5834   2.5835
     2.9012   3.0111   3.0113   3.0145   3.1312   4.1052   5.8611   5.8614
     7.9951   7.9955

          k = 0.2500 0.2500-0.5000 (  5286 PWs)   bands (ev):

     1.6731   1.6733   1.8845   1.8845   2.1340   2.1343   2.2826   2.2826
     2.4174   2.4176   2.4743   2.4746   2.5356   2.5357   2.5758   2.5759
     2.9655   2.9656   2.9993   2.9995   3.5693   3.5693   5.9650   5.9653
     7.8222   7.8226

          k = 0.2500 0.3333 0.3333 (  5280 PWs)   bands (ev):

     1.4980   1.7907   1.7907   1.8114   2.1923   2.2019   2.2019   2.3237
     2.3349   2.4793   2.4793   2.5113   2.5576   2.5576   2.5869   2.7309
     2.7901   3.0224   3.0236   3.0345   3.0346   5.0193   5.0195   5.8213
     7.8621   8.6758

          k = 0.2500 0.3333 0.4167 (  5280 PWs)   bands (ev):

     1.5697   1.7253   1.7934   1.8022   2.1795   2.1807   2.2322   2.2981
     2.3457   2.4269   2.4630   2.4722   2.5829   2.6306   2.6519   2.6989
     2.8853   3.0010   3.0091   3.0104   3.3790   4.4106   5.3641   5.8845
     7.5692   8.0960

          k = 0.2500 0.3333-0.5000 (  5274 PWs)   bands (ev):

     1.6480   1.6482   1.7982   1.7982   2.1695   2.1698   2.2659   2.2659
     2.3780   2.3782   2.4595   2.4597   2.6363   2.6366   2.6727   2.6728
     2.9614   2.9615   2.9912   2.9913   3.8542   3.8543   5.6969   5.6972
     7.6814   7.6818

          k = 0.2500 0.4167 0.4167 (  5274 PWs)   bands (ev):

     1.5994   1.7172   1.7173   1.7561   2.1976   2.2155   2.2155   2.2837
     2.3345   2.4020   2.4022   2.4197   2.6973   2.6974   2.7323   2.8166
     2.8488   2.9749   2.9826   2.9826   3.7603   4.7913   4.7915   5.6407
     7.5724   8.4447

          k = 0.2500 0.4167-0.5000 (  5284 PWs)   bands (ev):

     1.6500   1.6502   1.7277   1.7278   2.2063   2.2065   2.2532   2.2533
     2.3561   2.3562   2.3973   2.3975   2.7583   2.7584   2.7652   2.7654
     2.9268   2.9269   2.9596   2.9597   4.2413   4.2415   5.2232   5.2235
     7.9163   7.9167

          k = 0.2500-0.5000-0.5000 (  5292 PWs)   bands (ev):

     1.6774   1.6774   1.6774   1.6776   2.2359   2.2360   2.2360   2.2363
     2.3603   2.3603   2.3604   2.3606   2.8159   2.8160   2.8160   2.8162
     2.9136   2.9137   2.9137   2.9139   4.7096   4.7097   4.7097   4.7101
     8.3647   8.3647

          k = 0.3333 0.3333 0.3333 (  5298 PWs)   bands (ev):

     1.5054   1.7415   1.7415   1.7416   2.2039   2.2041   2.2041   2.3131
     2.3131   2.4380   2.4380   2.4380   2.6485   2.6485   2.6485   2.8743
     2.8743   3.0397   3.0398   3.0398   3.1969   5.3101   5.3101   5.3103
     7.9700   7.9702

          k = 0.3333 0.3333 0.4167 (  5291 PWs)   bands (ev):

     1.5380   1.6639   1.7124   1.7125   2.1991   2.1993   2.2310   2.2911
     2.3132   2.3777   2.4012   2.4013   2.7140   2.7413   2.7414   2.8409
     2.9460   3.0240   3.0241   3.0320   3.6210   4.7153   5.6162   5.6164
     7.4102   7.4106

          k = 0.3333 0.3333-0.5000 (  5276 PWs)   bands (ev):

     1.5927   1.5929   1.7029   1.7029   2.1959   2.1961   2.2623   2.2624
     2.3350   2.3352   2.3898   2.3899   2.7802   2.7804   2.7810   2.7811
     2.9999   3.0001   3.0112   3.0114   4.1383   4.1385   5.7773   5.7776
     7.1639   7.1643

          k = 0.3333 0.4167 0.4167 (  5293 PWs)   bands (ev):

     1.5396   1.6321   1.6322   1.6574   2.2154   2.2283   2.2283   2.2836
     2.2938   2.3451   2.3452   2.3546   2.8209   2.8209   2.8342   2.9262
     2.9438   3.0152   3.0223   3.0223   4.0286   5.0990   5.0992   5.7448
     7.0197   7.6740

          k = 0.3333 0.4167-0.5000 (  5286 PWs)   bands (ev):

     1.5723   1.5724   1.6301   1.6302   2.2244   2.2246   2.2585   2.2586
     2.3080   2.3081   2.3359   2.3360   2.8722   2.8723   2.8876   2.8878
     2.9933   2.9934   3.0048   3.0049   4.5385   4.5387   5.5073   5.5076
     7.1712   7.1716

          k = 0.3333-0.5000-0.5000 (  5300 PWs)   bands (ev):

     1.5855   1.5855   1.5855   1.5857   2.2480   2.2481   2.2481   2.2484
     2.3058   2.3058   2.3059   2.3061   2.9341   2.9341   2.9341   2.9344
     2.9753   2.9753   2.9753   2.9755   5.0205   5.0206   5.0206   5.0210
     7.5734   7.5735

          k = 0.4167 0.4167 0.4167 (  5301 PWs)   bands (ev):

     1.5175   1.5799   1.5799   1.5800   2.2382   2.2384   2.2384   2.2751
     2.2751   2.3066   2.3067   2.3067   2.9143   2.9144   2.9144   2.9852
     2.9852   3.0313   3.0314   3.0314   4.4379   5.4608   5.4608   5.4611
     7.0317   7.0318

          k = 0.4167 0.4167-0.5000 (  5296 PWs)   bands (ev):

     1.5317   1.5318   1.5623   1.5624   2.2425   2.2428   2.2594   2.2595
     2.2795   2.2797   2.2927   2.2928   2.9565   2.9566   2.9680   2.9682
     3.0211   3.0213   3.0237   3.0238   4.9429   4.9431   5.6852   5.6854
     6.7134   6.7138

          k = 0.4167-0.5000-0.5000 (  5316 PWs)   bands (ev):

     1.5287   1.5287   1.5287   1.5289   2.2567   2.2568   2.2568   2.2570
     2.2715   2.2715   2.2716   2.2719   3.0050   3.0050   3.0050   3.0053
     3.0147   3.0147   3.0147   3.0150   5.4024   5.4025   5.4025   5.4030
     6.9015   6.9019

          k =-0.5000-0.5000-0.5000 (  5232 PWs)   bands (ev):

     1.5095   1.5095   1.5095   1.5098   2.2599   2.2599   2.2599   2.2600
     2.2600   2.2600   2.2602   2.2602   3.0283   3.0283   3.0283   3.0283
     3.0283   3.0283   3.0286   3.0286   5.6580   5.6580   5.6580   5.6585
     6.5494   6.5499

     the Fermi energy is     5.8263 ev

!    total energy              =   -3100.58164018 Ry

     total all-electron energy =   -152095.966004 Ry
     estimated scf accuracy    <       0.00000009 Ry
     smearing contrib. (-TS)   =      -0.89189655 Ry
     internal energy E=F+TS    =   -3099.68974363 Ry

     The total energy is F=E-TS. E is the sum of the following terms:
     one-electron contribution =     -27.82721003 Ry
     hartree contribution      =      56.32407197 Ry
     xc contribution           =    -127.07409888 Ry
     ewald contribution        =    -231.18696367 Ry
     one-center paw contrib.   =   -2769.92554302 Ry

     convergence has been achieved in  16 iterations

     Forces acting on atoms (cartesian axes, Ry/au):

     atom    1 type  1   force =     0.00000000    0.00000000    0.00000000
     atom    2 type  1   force =     0.00000000    0.00000000    0.00000000
     atom    3 type  1   force =     0.00000000    0.00000000    0.00000000
     atom    4 type  1   force =     0.00000000    0.00000000    0.00000000

     Total force =     0.000000     Total SCF correction =     0.000000

     Writing all to output data dir ./pwscf.save/
 
     init_run     :      1.20s CPU      1.94s WALL (       1 calls)
     electrons    :     51.02s CPU     52.94s WALL (       1 calls)
     forces       :      0.29s CPU      0.42s WALL (       1 calls)

     Called by init_run:
     wfcinit      :      0.96s CPU      0.97s WALL (       1 calls)
     potinit      :      0.07s CPU      0.46s WALL (       1 calls)
     hinit0       :      0.08s CPU      0.20s WALL (       1 calls)

     Called by electrons:
     c_bands      :     44.44s CPU     45.02s WALL (      17 calls)
     sum_band     :      5.22s CPU      5.43s WALL (      17 calls)
     v_of_rho     :      0.21s CPU      1.60s WALL (      17 calls)
     newd         :      0.18s CPU      0.26s WALL (      17 calls)
     PAW_pot      :      0.97s CPU      0.99s WALL (      17 calls)
     mix_rho      :      0.01s CPU      0.01s WALL (      17 calls)

     Called by c_bands:
     init_us_2    :      0.32s CPU      0.32s WALL (    3024 calls)
     init_us_2:cp :      0.31s CPU      0.32s WALL (    3024 calls)
     cegterg      :     42.09s CPU     42.64s WALL (    1428 calls)

     Called by *egterg:
     cdiaghg      :      8.04s CPU      8.11s WALL (    5744 calls)
     h_psi        :     26.93s CPU     27.34s WALL (    5912 calls)
     s_psi        :      1.05s CPU      1.06s WALL (    5912 calls)
     g_psi        :      0.11s CPU      0.11s WALL (    4400 calls)

     Called by h_psi:
     h_psi:calbec :      1.71s CPU      1.74s WALL (    5912 calls)
     vloc_psi     :     24.10s CPU     24.47s WALL (    5912 calls)
     add_vuspsi   :      1.06s CPU      1.07s WALL (    5912 calls)

     General routines
     calbec       :      2.33s CPU      2.36s WALL (    7676 calls)
     fft          :      0.37s CPU      2.09s WALL (     199 calls)
     ffts         :      0.08s CPU      0.17s WALL (      17 calls)
     fftw         :     26.66s CPU     27.09s WALL (  267042 calls)
 
     Parallel routines
 
     PWSCF        :     55.95s CPU   1m 1.13s WALL

 
   This run was terminated on:  12:36:53   5Apr2024            

=------------------------------------------------------------------------------=
   JOB DONE.
=------------------------------------------------------------------------------=
