MPI startup(): Warning: I_MPI_PMI_LIBRARY will be ignored since the hydra process manager was found
MPI startup(): Warning: I_MPI_PMI_LIBRARY will be ignored since the hydra process manager was found
MPI startup(): Warning: I_MPI_PMI_LIBRARY will be ignored since the hydra process manager was found
MPI startup(): Warning: I_MPI_PMI_LIBRARY will be ignored since the hydra process manager was found
MPI startup(): Warning: I_MPI_PMI_LIBRARY will be ignored since the hydra process manager was found
MPI startup(): Warning: I_MPI_PMI_LIBRARY will be ignored since the hydra process manager was found
MPI startup(): Warning: I_MPI_PMI_LIBRARY will be ignored since the hydra process manager was found
MPI startup(): Warning: I_MPI_PMI_LIBRARY will be ignored since the hydra process manager was found
MPI startup(): Warning: I_MPI_PMI_LIBRARY will be ignored since the hydra process manager was found
MPI startup(): Warning: I_MPI_PMI_LIBRARY will be ignored since the hydra process manager was found

     Program PWSCF v.7.0 starts on  5Apr2024 at 12:35:51 

     This program is part of the open-source Quantum ESPRESSO suite
     for quantum simulation of materials; please cite
         "P. Giannozzi et al., J. Phys.:Condens. Matter 21 395502 (2009);
         "P. Giannozzi et al., J. Phys.:Condens. Matter 29 465901 (2017);
         "P. Giannozzi et al., J. Chem. Phys. 152 154105 (2020);
          URL http://www.quantum-espresso.org", 
     in publications or presentations arising from this work. More details at
     http://www.quantum-espresso.org/quote

     Parallel version (MPI), running on    10 processors

     MPI processes distributed on     1 nodes
     R & G space division:  proc/nbgrp/npool/nimage =      10
     204146 MiB available memory on the printing compute node when the environment starts
 
     Reading input from VolumeFCC_5.2.in
Warning: card &CELL ignored
Warning: card / ignored

     Current dimensions of program PWSCF are:
     Max number of different atomic species (ntypx) = 10
     Max number of k-points (npk) =  40000
     Max angular momentum in pseudopotentials (lmaxx) =  4
     file Au.pbe-n-kjpaw_psl.1.0.0.UPF: wavefunction(s)  6S 5D renormalized
     Found identity + ( -0.5000 -0.5000  0.0000) symmetry
     This is a supercell, fractional translations are disabled
     Message from routine setup:
     using ibrav=0 with symmetry is DISCOURAGED, use correct ibrav instead

     Subspace diagonalization in iterative solution of the eigenvalue problem:
     one sub-group per band group will be used
     scalapack distributed-memory algorithm (size of sub-group:  3*  3 procs)

 
     Parallelization info
     --------------------
     sticks:   dense  smooth     PW     G-vecs:    dense   smooth      PW
     Min          42      42     14                  666      666     129
     Max          44      44     16                  669      669     132
     Sum         429     429    145                 6667     6667    1309
 
     Using Slab Decomposition
 


     bravais-lattice index     =            0
     lattice parameter (alat)  =       5.1992  a.u.
     unit-cell volume          =     140.5469 (a.u.)^3
     number of atoms/cell      =            4
     number of atomic types    =            1
     number of electrons       =        44.00
     number of Kohn-Sham states=           26
     kinetic-energy cutoff     =      50.0000  Ry
     charge density cutoff     =     200.0000  Ry
     scf convergence threshold =      1.0E-06
     mixing beta               =       0.7000
     number of iterations used =            8  plain     mixing
     Exchange-correlation= SLA  PW   PBX  PBC
                           (   1   4   3   4   0   0   0)

     celldm(1)=   5.199246  celldm(2)=   0.000000  celldm(3)=   0.000000
     celldm(4)=   0.000000  celldm(5)=   0.000000  celldm(6)=   0.000000

     crystal axes: (cart. coord. in units of alat)
               a(1) = (   1.000000   0.000000   0.000000 )  
               a(2) = (   0.000000   1.000000   0.000000 )  
               a(3) = (   0.000000   0.000000   1.000000 )  

     reciprocal axes: (cart. coord. in units 2 pi/alat)
               b(1) = (  1.000000  0.000000  0.000000 )  
               b(2) = (  0.000000  1.000000  0.000000 )  
               b(3) = (  0.000000  0.000000  1.000000 )  


     PseudoPot. # 1 for Au read from file:
     ./Au.pbe-n-kjpaw_psl.1.0.0.UPF
     MD5 check sum: 4db85c736373c707a97ce4c36c2a9d23
     Pseudo is Projector augmented-wave + core cor, Zval = 11.0
     Generated using &quot;atomic&quot; code by A. Dal Corso  v.6.3
     Shape of augmentation charge: PSQ
     Using radial grid of 1279 points,  6 beta functions with: 
                l(1) =   0
                l(2) =   0
                l(3) =   1
                l(4) =   1
                l(5) =   2
                l(6) =   2
     Q(r) pseudized with 0 coefficients 


     atomic species   valence    mass     pseudopotential
        Au            11.00   196.96657     Au( 1.00)

     48 Sym. Ops., with inversion, found



   Cartesian axes

     site n.     atom                  positions (alat units)
         1           Au  tau(   1) = (   0.0000000   0.0000000   0.0000000  )
         2           Au  tau(   2) = (   0.5000000   0.5000000   0.0000000  )
         3           Au  tau(   3) = (   0.5000000   0.0000000   0.5000000  )
         4           Au  tau(   4) = (   0.0000000   0.5000000   0.5000000  )

     number of k points=    84  Gaussian smearing, width (Ry)=  0.2000
                       cart. coord. in units 2pi/alat
        k(    1) = (   0.0000000   0.0000000   0.0000000), wk =   0.0011574
        k(    2) = (   0.0000000   0.0000000   0.0833333), wk =   0.0069444
        k(    3) = (   0.0000000   0.0000000   0.1666667), wk =   0.0069444
        k(    4) = (   0.0000000   0.0000000   0.2500000), wk =   0.0069444
        k(    5) = (   0.0000000   0.0000000   0.3333333), wk =   0.0069444
        k(    6) = (   0.0000000   0.0000000   0.4166667), wk =   0.0069444
        k(    7) = (   0.0000000   0.0000000  -0.5000000), wk =   0.0034722
        k(    8) = (   0.0000000   0.0833333   0.0833333), wk =   0.0138889
        k(    9) = (   0.0000000   0.0833333   0.1666667), wk =   0.0277778
        k(   10) = (   0.0000000   0.0833333   0.2500000), wk =   0.0277778
        k(   11) = (   0.0000000   0.0833333   0.3333333), wk =   0.0277778
        k(   12) = (   0.0000000   0.0833333   0.4166667), wk =   0.0277778
        k(   13) = (   0.0000000   0.0833333  -0.5000000), wk =   0.0138889
        k(   14) = (   0.0000000   0.1666667   0.1666667), wk =   0.0138889
        k(   15) = (   0.0000000   0.1666667   0.2500000), wk =   0.0277778
        k(   16) = (   0.0000000   0.1666667   0.3333333), wk =   0.0277778
        k(   17) = (   0.0000000   0.1666667   0.4166667), wk =   0.0277778
        k(   18) = (   0.0000000   0.1666667  -0.5000000), wk =   0.0138889
        k(   19) = (   0.0000000   0.2500000   0.2500000), wk =   0.0138889
        k(   20) = (   0.0000000   0.2500000   0.3333333), wk =   0.0277778
        k(   21) = (   0.0000000   0.2500000   0.4166667), wk =   0.0277778
        k(   22) = (   0.0000000   0.2500000  -0.5000000), wk =   0.0138889
        k(   23) = (   0.0000000   0.3333333   0.3333333), wk =   0.0138889
        k(   24) = (   0.0000000   0.3333333   0.4166667), wk =   0.0277778
        k(   25) = (   0.0000000   0.3333333  -0.5000000), wk =   0.0138889
        k(   26) = (   0.0000000   0.4166667   0.4166667), wk =   0.0138889
        k(   27) = (   0.0000000   0.4166667  -0.5000000), wk =   0.0138889
        k(   28) = (   0.0000000  -0.5000000  -0.5000000), wk =   0.0034722
        k(   29) = (   0.0833333   0.0833333   0.0833333), wk =   0.0092593
        k(   30) = (   0.0833333   0.0833333   0.1666667), wk =   0.0277778
        k(   31) = (   0.0833333   0.0833333   0.2500000), wk =   0.0277778
        k(   32) = (   0.0833333   0.0833333   0.3333333), wk =   0.0277778
        k(   33) = (   0.0833333   0.0833333   0.4166667), wk =   0.0277778
        k(   34) = (   0.0833333   0.0833333  -0.5000000), wk =   0.0138889
        k(   35) = (   0.0833333   0.1666667   0.1666667), wk =   0.0277778
        k(   36) = (   0.0833333   0.1666667   0.2500000), wk =   0.0555556
        k(   37) = (   0.0833333   0.1666667   0.3333333), wk =   0.0555556
        k(   38) = (   0.0833333   0.1666667   0.4166667), wk =   0.0555556
        k(   39) = (   0.0833333   0.1666667  -0.5000000), wk =   0.0277778
        k(   40) = (   0.0833333   0.2500000   0.2500000), wk =   0.0277778
        k(   41) = (   0.0833333   0.2500000   0.3333333), wk =   0.0555556
        k(   42) = (   0.0833333   0.2500000   0.4166667), wk =   0.0555556
        k(   43) = (   0.0833333   0.2500000  -0.5000000), wk =   0.0277778
        k(   44) = (   0.0833333   0.3333333   0.3333333), wk =   0.0277778
        k(   45) = (   0.0833333   0.3333333   0.4166667), wk =   0.0555556
        k(   46) = (   0.0833333   0.3333333  -0.5000000), wk =   0.0277778
        k(   47) = (   0.0833333   0.4166667   0.4166667), wk =   0.0277778
        k(   48) = (   0.0833333   0.4166667  -0.5000000), wk =   0.0277778
        k(   49) = (   0.0833333  -0.5000000  -0.5000000), wk =   0.0069444
        k(   50) = (   0.1666667   0.1666667   0.1666667), wk =   0.0092593
        k(   51) = (   0.1666667   0.1666667   0.2500000), wk =   0.0277778
        k(   52) = (   0.1666667   0.1666667   0.3333333), wk =   0.0277778
        k(   53) = (   0.1666667   0.1666667   0.4166667), wk =   0.0277778
        k(   54) = (   0.1666667   0.1666667  -0.5000000), wk =   0.0138889
        k(   55) = (   0.1666667   0.2500000   0.2500000), wk =   0.0277778
        k(   56) = (   0.1666667   0.2500000   0.3333333), wk =   0.0555556
        k(   57) = (   0.1666667   0.2500000   0.4166667), wk =   0.0555556
        k(   58) = (   0.1666667   0.2500000  -0.5000000), wk =   0.0277778
        k(   59) = (   0.1666667   0.3333333   0.3333333), wk =   0.0277778
        k(   60) = (   0.1666667   0.3333333   0.4166667), wk =   0.0555556
        k(   61) = (   0.1666667   0.3333333  -0.5000000), wk =   0.0277778
        k(   62) = (   0.1666667   0.4166667   0.4166667), wk =   0.0277778
        k(   63) = (   0.1666667   0.4166667  -0.5000000), wk =   0.0277778
        k(   64) = (   0.1666667  -0.5000000  -0.5000000), wk =   0.0069444
        k(   65) = (   0.2500000   0.2500000   0.2500000), wk =   0.0092593
        k(   66) = (   0.2500000   0.2500000   0.3333333), wk =   0.0277778
        k(   67) = (   0.2500000   0.2500000   0.4166667), wk =   0.0277778
        k(   68) = (   0.2500000   0.2500000  -0.5000000), wk =   0.0138889
        k(   69) = (   0.2500000   0.3333333   0.3333333), wk =   0.0277778
        k(   70) = (   0.2500000   0.3333333   0.4166667), wk =   0.0555556
        k(   71) = (   0.2500000   0.3333333  -0.5000000), wk =   0.0277778
        k(   72) = (   0.2500000   0.4166667   0.4166667), wk =   0.0277778
        k(   73) = (   0.2500000   0.4166667  -0.5000000), wk =   0.0277778
        k(   74) = (   0.2500000  -0.5000000  -0.5000000), wk =   0.0069444
        k(   75) = (   0.3333333   0.3333333   0.3333333), wk =   0.0092593
        k(   76) = (   0.3333333   0.3333333   0.4166667), wk =   0.0277778
        k(   77) = (   0.3333333   0.3333333  -0.5000000), wk =   0.0138889
        k(   78) = (   0.3333333   0.4166667   0.4166667), wk =   0.0277778
        k(   79) = (   0.3333333   0.4166667  -0.5000000), wk =   0.0277778
        k(   80) = (   0.3333333  -0.5000000  -0.5000000), wk =   0.0069444
        k(   81) = (   0.4166667   0.4166667   0.4166667), wk =   0.0092593
        k(   82) = (   0.4166667   0.4166667  -0.5000000), wk =   0.0138889
        k(   83) = (   0.4166667  -0.5000000  -0.5000000), wk =   0.0069444
        k(   84) = (  -0.5000000  -0.5000000  -0.5000000), wk =   0.0011574

     Dense  grid:     6667 G-vectors     FFT dimensions: (  24,  24,  24)

     Estimated max dynamical RAM per process >       6.44 MB

     Estimated total dynamical RAM >      64.38 MB

     Initial potential from superposition of free atoms

     starting charge      43.9996, renormalised to      44.0000
     Starting wfcs are   36 randomized atomic wfcs
     Checking if some PAW data can be deallocated... 

     total cpu time spent up to now is        1.2 secs

     Self-consistent Calculation

     iteration #  1     ecut=    50.00 Ry     beta= 0.70
     Davidson diagonalization with overlap
     ethr =  1.00E-02,  avg # of iterations =  9.1

     total cpu time spent up to now is        3.5 secs

     total energy              =   -3083.14432059 Ry
     estimated scf accuracy    <       0.92505147 Ry

     iteration #  2     ecut=    50.00 Ry     beta= 0.70
     Davidson diagonalization with overlap
     ethr =  2.10E-03,  avg # of iterations =  4.3

     negative rho (up, down):  6.584E-03 0.000E+00

     total cpu time spent up to now is        5.0 secs

     total energy              =   -3083.62688568 Ry
     estimated scf accuracy    <       0.04775986 Ry

     iteration #  3     ecut=    50.00 Ry     beta= 0.70
     Davidson diagonalization with overlap
     c_bands:  1 eigenvalues not converged
     c_bands:  1 eigenvalues not converged
     c_bands:  1 eigenvalues not converged
     c_bands:  1 eigenvalues not converged
     c_bands:  1 eigenvalues not converged
     c_bands:  1 eigenvalues not converged
     c_bands:  1 eigenvalues not converged
     ethr =  1.09E-04,  avg # of iterations = 11.6

     negative rho (up, down):  1.160E-02 0.000E+00

     total cpu time spent up to now is        7.9 secs

     total energy              =   -3083.69196253 Ry
     estimated scf accuracy    <       0.00651777 Ry

     iteration #  4     ecut=    50.00 Ry     beta= 0.70
     Davidson diagonalization with overlap
     c_bands:  1 eigenvalues not converged
     c_bands:  1 eigenvalues not converged
     c_bands:  1 eigenvalues not converged
     ethr =  1.48E-05,  avg # of iterations =  7.2

     negative rho (up, down):  1.233E-02 0.000E+00

     total cpu time spent up to now is        9.8 secs

     total energy              =   -3083.69419768 Ry
     estimated scf accuracy    <       0.00124536 Ry

     iteration #  5     ecut=    50.00 Ry     beta= 0.70
     Davidson diagonalization with overlap
     c_bands:  1 eigenvalues not converged
     c_bands:  1 eigenvalues not converged
     c_bands:  1 eigenvalues not converged
     c_bands:  1 eigenvalues not converged
     c_bands:  1 eigenvalues not converged
     c_bands:  1 eigenvalues not converged
     c_bands:  1 eigenvalues not converged
     ethr =  2.83E-06,  avg # of iterations =  7.1

     negative rho (up, down):  1.209E-02 0.000E+00

     total cpu time spent up to now is       11.7 secs

     total energy              =   -3083.69449308 Ry
     estimated scf accuracy    <       0.00000625 Ry

     iteration #  6     ecut=    50.00 Ry     beta= 0.70
     Davidson diagonalization with overlap
     ethr =  1.42E-08,  avg # of iterations = 12.1

     negative rho (up, down):  1.201E-02 0.000E+00

     total cpu time spent up to now is       15.3 secs

     End of self-consistent calculation

          k = 0.0000 0.0000 0.0000 (   847 PWs)   bands (ev):

    34.1256  34.1266  34.1266  35.0294  35.0294  35.0294  39.3739  46.4600
    46.4600  46.4600  56.4651  56.4651  64.8392  64.8396  64.8396  67.3391
    67.3391  67.3391  67.3402  67.3402  67.3402  71.6372  71.6372  71.6372
    75.0448  84.0381

          k = 0.0000 0.0000 0.0833 (   835 PWs)   bands (ev):

    34.3704  34.4115  34.4122  35.1626  35.3763  35.3763  39.7247  46.1331
    46.6981  46.6981  55.9955  56.5775  64.1282  64.1285  64.6501  65.0850
    65.0850  66.5690  66.5690  67.3433  67.3444  70.7915  73.6979  73.6979
    75.6338  84.1144

          k = 0.0000 0.0000 0.1667 (   832 PWs)   bands (ev):

    35.0943  35.2401  35.2408  35.5576  36.3995  36.3995  40.7191  45.2336
    47.4066  47.4066  54.7275  56.9111  61.4068  61.4068  62.2144  62.2146
    64.1094  64.6331  64.6331  67.3530  67.3541  68.5334  76.7803  76.7803
    77.3184  84.3325

          k = 0.0000 0.0000 0.2500 (   844 PWs)   bands (ev):

    36.2077  36.2659  36.5223  36.5230  38.0648  38.0648  42.1300  43.9482
    48.5645  48.5645  53.0879  57.4552  57.5177  57.5177  59.6022  59.6024
    62.1377  62.1377  63.2901  65.4041  67.3663  67.3674  79.6350  79.6350
    79.9081  84.7150

          k = 0.0000 0.0000 0.3333 (   836 PWs)   bands (ev):

    37.0995  37.8284  38.0675  38.0683  40.3221  40.3221  42.4729  43.3198
    50.1381  50.1381  51.9280  53.6260  53.6260  56.8662  56.8664  58.1905
    59.4659  59.4659  61.8647  62.2875  67.3801  67.3812  81.9974  81.9974
    83.2012  84.9159

          k = 0.0000 0.0000 0.4167 (   836 PWs)   bands (ev):

    38.2122  39.4800  39.4808  39.6847  40.9607  43.0988  43.0988  43.1517
    49.8533  49.8533  52.0797  52.0797  52.5331  54.6511  54.6513  56.8228
    56.8228  58.2670  59.0885  61.1987  67.3897  67.3908  83.6973  83.6974
    85.0014  85.0015

          k = 0.0000 0.0000-0.5000 (   820 PWs)   bands (ev):

    39.5179  39.5188  40.0965  40.0974  41.6268  41.6276  46.3088  46.3088
    46.3093  46.3093  53.7535  53.7538  54.3311  54.3311  54.3317  54.3317
    54.9642  54.9642  60.1087  60.1098  67.3932  67.3943  84.6667  84.6668
    84.6675  84.6676

          k = 0.0000 0.0833 0.0833 (   835 PWs)   bands (ev):

    34.5741  34.6549  34.6556  35.5059  35.5059  35.8328  40.0494  46.0392
    46.7209  46.9330  55.8381  56.4162  63.3951  63.3957  63.5130  63.9660
    64.9729  64.9734  66.5707  66.5707  66.8184  72.8384  72.8385  75.1622
    76.1973  82.5769

          k = 0.0000 0.0833 0.1667 (   835 PWs)   bands (ev):

    35.1790  35.3779  35.4826  35.8941  36.5214  37.0434  40.9719  45.2781
    47.3346  47.6132  54.7418  56.6952  60.0785  60.9566  61.6631  61.8018
    62.9007  64.4129  64.6297  66.5567  66.5760  70.6031  75.9492  77.8114
    77.8815  81.5738

          k = 0.0000 0.0833 0.2500 (   833 PWs)   bands (ev):

    36.2870  36.5320  36.5479  36.7617  38.1757  38.8295  42.2995  44.0613
    48.4820  48.6105  53.2748  56.3484  57.3145  57.3197  59.3762  59.4032
    60.3458  62.1250  63.3855  66.5124  66.5807  67.6337  78.7733  80.2961
    80.6014  81.1861

          k = 0.0000 0.0833 0.3333 (   839 PWs)   bands (ev):

    37.4072  37.7798  38.1113  38.2965  40.4152  41.0515  42.6398  43.4969
    49.4140  50.0604  52.6862  52.7313  53.5435  56.7767  56.9084  57.5761
    58.1910  59.4411  61.8599  64.5784  66.5198  66.5816  80.8416  81.2773
    82.9160  83.4538

          k = 0.0000 0.0833 0.4167 (   838 PWs)   bands (ev):

    38.4962  39.3149  39.6711  39.9691  41.1729  43.1679  43.4260  43.5612
    49.2905  49.8418  50.1804  52.0130  54.1920  54.3752  54.6876  55.1720
    56.7841  59.2819  59.5259  62.2113  66.5410  66.5756  81.6191  81.8227
    84.6074  85.6912

          k = 0.0000 0.0833-0.5000 (   834 PWs)   bands (ev):

    39.7671  39.7680  40.1538  40.1546  41.9164  41.9172  46.2730  46.2734
    46.3443  46.3448  51.9993  51.9996  53.9937  53.9940  54.2780  54.2786
    56.7058  56.7058  60.5871  60.5879  66.5610  66.5621  81.9264  81.9271
    85.5803  85.5811

          k = 0.0000 0.1667 0.1667 (   836 PWs)   bands (ev):

    35.4370  36.1994  36.2001  36.8874  36.8874  38.5032  41.6960  45.0851
    47.4973  48.1812  54.3321  56.6299  58.0414  58.0422  59.3443  60.5692
    63.0691  63.0692  64.6184  64.6185  65.3483  73.8042  73.8044  79.2283
    79.5130  80.2495

          k = 0.0000 0.1667 0.2500 (   837 PWs)   bands (ev):

    36.2257  37.3660  37.4699  37.4883  38.5049  40.4383  42.7789  44.2709
    48.3972  48.8153  53.3397  54.3846  55.8096  56.5730  57.3950  58.6447
    60.9813  62.0876  62.3930  64.5976  64.7278  70.9860  76.6706  78.3669
    81.4178  82.8312

          k = 0.0000 0.1667 0.3333 (   842 PWs)   bands (ev):

    37.5072  38.3088  38.9282  38.9764  40.6896  42.6200  43.0856  43.9383
    48.6468  49.9055  50.9900  53.2390  53.2971  53.5483  56.4368  58.4876
    58.7349  59.3707  60.9880  64.5134  64.5660  67.9962  78.0629  78.5784
    83.1306  84.2033

          k = 0.0000 0.1667 0.4167 (   842 PWs)   bands (ev):

    39.0714  39.3253  40.2265  40.7965  41.7830  43.3669  44.2115  44.6903
    48.1860  48.2921  49.7810  51.3796  51.8530  54.6969  54.7670  56.0571
    56.6780  59.0577  60.4968  64.4669  64.5258  65.1580  78.3399  79.1611
    83.9631  86.9553

          k = 0.0000 0.1667-0.5000 (   834 PWs)   bands (ev):

    40.3114  40.3121  40.5010  40.5019  42.7702  42.7710  46.3067  46.3069
    46.4376  46.4381  49.4624  49.4626  54.1394  54.1399  54.4795  54.4798
    56.8669  56.8674  62.6412  62.6415  64.4855  64.4865  78.8593  78.8599
    85.3168  85.3180

          k = 0.0000 0.2500 0.2500 (   846 PWs)   bands (ev):

    36.6752  38.6248  38.6254  39.0420  39.0421  42.4341  43.4987  44.1972
    48.7704  49.1129  52.3416  52.3424  52.6582  54.9899  57.3488  58.5170
    60.7435  60.7436  62.0283  62.0284  63.1673  74.0136  74.0140  76.5380
    82.1392  83.1674

          k = 0.0000 0.2500 0.3333 (   843 PWs)   bands (ev):

    37.6544  39.7684  40.0850  40.1822  41.1313  43.6031  44.3837  44.5237
    48.5824  49.2877  49.9239  50.3982  52.5209  52.5286  55.6882  58.6536
    59.2676  59.5954  60.4864  61.9552  62.2998  71.1811  75.7919  76.1389
    82.1494  85.4230

          k = 0.0000 0.2500 0.4167 (   844 PWs)   bands (ev):

    39.0643  40.6530  41.0820  42.0699  42.6769  43.6722  45.2143  46.1582
    47.0057  47.1905  48.6483  49.5814  51.7288  53.8170  54.4087  56.4355
    56.5368  57.8030  61.8868  61.9496  62.8978  68.3350  75.9191  76.8557
    82.8890  86.5385

          k = 0.0000 0.2500-0.5000 (   824 PWs)   bands (ev):

    40.5533  40.5538  41.6485  41.6494  44.1237  44.1245  46.5445  46.5449
    46.6593  46.6593  47.1979  47.1981  53.9816  53.9821  54.6807  54.6811
    55.7464  55.7471  61.8602  61.8611  65.5507  65.5508  76.4926  76.4931
    84.1951  84.1955

          k = 0.0000 0.3333 0.3333 (   848 PWs)   bands (ev):

    38.3059  41.5767  41.5771  41.7128  41.7130  43.8509  44.6620  46.4496
    47.7936  47.7943  48.9481  50.5057  51.1539  51.3764  54.5191  57.8138
    57.8142  59.1597  59.1600  60.5664  62.9766  73.7031  73.7036  74.6929
    82.0194  86.4072

          k = 0.0000 0.3333 0.4167 (   837 PWs)   bands (ev):

    39.4404  42.0811  42.3866  43.3677  43.6297  44.0362  44.9333  46.6248
    46.6738  47.7616  47.7664  49.0670  51.8838  52.1721  53.5586  55.8521
    56.1575  56.4243  59.0994  59.5834  65.7306  71.1836  74.6333  75.0176
    82.6498  85.4238

          k = 0.0000 0.3333-0.5000 (   834 PWs)   bands (ev):

    40.9126  40.9130  43.0715  43.0723  45.0028  45.0028  46.1725  46.1731
    46.5728  46.5730  47.4596  47.4598  53.9337  53.9341  54.1118  54.1123
    54.1123  54.1131  59.1822  59.1829  68.5116  68.5117  75.0507  75.0511
    83.8803  83.8808

          k = 0.0000 0.4167 0.4167 (   842 PWs)   bands (ev):

    40.2503  42.9389  42.9394  44.1467  44.3161  44.3721  44.3724  46.9694
    46.9696  48.0125  49.1118  49.1984  50.8174  52.3971  52.6490  54.3428
    54.3433  56.4550  56.4555  57.8138  68.5614  73.2497  73.2504  74.3122
    83.1857  85.5969

          k = 0.0000 0.4167-0.5000 (   844 PWs)   bands (ev):

    41.4765  41.4766  43.5394  43.5394  44.5325  44.5331  46.3617  46.3618
    48.1338  48.1345  48.6676  48.6680  52.3247  52.3253  52.6899  52.6905
    54.2157  54.2158  56.8264  56.8270  71.1245  71.1246  74.1777  74.1780
    84.3262  84.3266

          k = 0.0000-0.5000-0.5000 (   840 PWs)   bands (ev):

    42.3346  42.3346  42.3353  42.3354  45.7040  45.7045  45.7047  45.7047
    49.7530  49.7536  49.7536  49.7541  51.1433  51.1433  51.1436  51.1450
    55.1218  55.1222  55.1226  55.1226  73.0449  73.0449  73.0454  73.0458
    85.2243  85.2247

          k = 0.0833 0.0833 0.0833 (   829 PWs)   bands (ev):

    34.8047  34.8056  34.8056  35.9718  35.9719  35.9719  40.3314  46.0337
    46.9264  46.9264  55.9865  55.9865  62.9790  62.9794  62.9794  63.2543
    63.2543  63.2550  66.6056  66.6064  66.6064  74.2019  74.2019  74.2019
    76.7244  83.4613

          k = 0.0833 0.0833 0.1667 (   837 PWs)   bands (ev):

    35.3972  35.3978  35.4735  36.4034  37.1850  37.1851  41.1232  45.4664
    47.4945  47.5362  54.8408  56.4277  59.8655  59.8655  61.4151  61.5818
    61.8879  61.8883  65.9533  66.3033  66.3041  71.7791  76.8550  76.8552
    78.2185  82.4227

          k = 0.0833 0.0833 0.2500 (   826 PWs)   bands (ev):

    36.4604  36.4986  36.4991  37.2085  38.9584  38.9585  42.1813  44.4908
    48.5018  48.5284  53.5149  56.2495  56.2496  57.1484  58.9689  59.6872
    59.8298  59.8302  64.9051  66.0438  66.0447  68.5749  79.5079  79.5082
    80.4160  81.9470

          k = 0.0833 0.0833 0.3333 (   841 PWs)   bands (ev):

    37.5251  37.9887  37.9893  38.5589  41.1453  41.1455  42.3686  44.1138
    49.0292  49.8671  52.6771  52.6772  53.3939  56.2946  57.3308  57.3311
    57.5793  58.1253  63.5864  65.0466  65.9175  65.9185  81.6266  81.6277
    81.9284  81.9288

          k = 0.0833 0.0833 0.4167 (   840 PWs)   bands (ev):

    38.6516  39.5077  39.5084  40.3538  41.2143  43.5630  43.5632  43.8504
    49.3924  49.3926  49.4890  51.5057  53.6364  55.0970  55.0973  55.2719
    55.4394  59.3215  61.4933  62.1381  65.8676  65.8687  82.1251  82.1256
    82.8993  82.9001

          k = 0.0833 0.0833-0.5000 (   838 PWs)   bands (ev):

    39.8964  39.8973  40.2336  40.2344  42.2997  42.3005  45.5265  45.5269
    47.1231  47.1235  51.2224  51.2227  53.3860  53.3863  54.1268  54.1271
    58.1490  58.1491  60.6833  60.6841  65.8548  65.8558  82.2451  82.2457
    83.2880  83.2888

          k = 0.0833 0.1667 0.1667 (   837 PWs)   bands (ev):

    35.6380  36.0267  36.0272  37.6245  37.6247  38.6463  41.5495  45.6600
    47.5801  48.0487  54.6059  56.2861  57.9318  57.9326  58.7334  59.8648
    60.9603  60.9604  65.6508  65.7210  65.7213  74.3975  74.3976  78.5862
    79.2619  80.8387

          k = 0.0833 0.1667 0.2500 (   833 PWs)   bands (ev):

    36.4171  36.9759  37.1119  38.4186  39.3551  40.5591  42.0808  45.3481
    48.3482  48.7186  53.7433  54.3648  55.7260  55.8341  57.1238  58.3698
    59.1381  59.7493  64.7637  64.9221  65.0311  71.2712  77.0823  78.7376
    80.3409  81.9074

          k = 0.0833 0.1667 0.3333 (   837 PWs)   bands (ev):

    37.6937  38.0686  38.5998  39.6719  41.4281  42.1553  42.6732  45.2171
    48.4838  49.5874  51.0793  52.5992  53.4488  54.0632  56.5353  56.9804
    57.8412  58.5045  63.2553  64.4165  64.5175  67.9878  78.6000  79.0470
    81.2091  83.3475

          k = 0.0833 0.1667 0.4167 (   842 PWs)   bands (ev):

    39.1919  39.2570  40.0755  41.3854  41.4181  43.5359  44.4928  44.9785
    48.0692  48.5524  49.6683  51.0666  51.2433  54.7839  54.8200  55.7155
    56.0234  60.2601  61.1624  64.1861  64.2496  64.9422  78.9235  79.7404
    82.3579  83.7284

          k = 0.0833 0.1667-0.5000 (   838 PWs)   bands (ev):

    40.3329  40.3337  40.4427  40.4434  43.3454  43.3461  44.9510  44.9514
    47.8792  47.8796  49.2875  49.2877  52.8222  52.8224  54.3386  54.3390
    58.6123  58.6125  62.3766  62.3769  64.1467  64.1476  79.4571  79.4577
    83.9163  84.3395

          k = 0.0833 0.2500 0.2500 (   840 PWs)   bands (ev):

    36.8517  38.0458  38.0462  40.0638  40.0641  42.1236  42.5091  45.9358
    48.5202  49.1128  52.3717  52.3726  53.2571  54.5789  56.6199  58.2198
    58.4937  58.4937  63.7509  63.8434  63.8436  74.1258  74.1261  76.9700
    80.0719  84.0669

          k = 0.0833 0.2500 0.3333 (   841 PWs)   bands (ev):

    37.8181  39.1310  39.5475  41.1846  41.9089  42.1307  44.4593  46.0906
    48.6224  49.4031  49.4944  50.4761  52.2682  53.4958  55.2046  56.5351
    57.3243  60.1987  62.2374  62.7790  62.9146  71.0779  76.2181  76.2614
    80.3081  84.7265

          k = 0.0833 0.2500 0.4167 (   835 PWs)   bands (ev):

    39.2240  40.1808  40.9752  41.8099  42.7888  43.4023  45.5719  46.4179
    46.9609  47.9528  48.7942  50.0407  50.6996  54.0406  54.4063  55.2747
    55.6771  60.1014  62.2182  62.3174  62.6153  68.1134  76.3246  77.1060
    81.2060  84.4612

          k = 0.0833 0.2500-0.5000 (   838 PWs)   bands (ev):

    40.7127  40.7132  41.1072  41.1080  44.7401  44.7403  44.7640  44.7647
    47.4329  47.4330  48.5826  48.5828  52.4056  52.4056  54.1811  54.1816
    57.6602  57.6605  62.0863  62.0871  65.2813  65.2815  76.8467  76.8472
    82.6663  82.6668

          k = 0.0833 0.3333 0.3333 (   848 PWs)   bands (ev):

    38.4441  40.6584  40.6588  42.1916  42.6467  42.6469  46.0606  46.2147
    48.1896  48.1902  49.3118  49.4749  51.4068  52.8955  53.7850  55.8004
    55.8005  61.1246  61.1247  61.3273  62.6884  73.5819  73.5824  75.0082
    80.2184  85.2061

          k = 0.0833 0.3333 0.4167 (   838 PWs)   bands (ev):

    39.5548  41.5837  42.1106  42.2241  43.1504  43.7722  45.8571  46.3981
    47.3761  47.8631  48.4438  50.4142  50.4496  52.8586  53.8511  54.1733
    54.6640  58.9343  60.2870  60.3186  65.4450  70.9459  74.8465  74.9741
    80.9127  83.9580

          k = 0.0833 0.3333-0.5000 (   836 PWs)   bands (ev):

    41.0241  41.0244  42.0806  42.0812  44.8863  44.8864  45.0612  45.0614
    47.3815  47.3820  49.2726  49.2727  51.9539  51.9542  53.3476  53.3482
    56.4843  56.4844  59.9764  59.9770  68.2351  68.2352  75.1446  75.1450
    82.2501  82.2505

          k = 0.0833 0.4167 0.4167 (   843 PWs)   bands (ev):

    40.3049  42.4673  42.7662  42.7667  43.4519  43.4521  45.2758  46.3241
    48.2751  48.2755  49.6597  50.3366  50.9456  51.6321  53.0649  53.0650
    54.0924  58.0474  58.0475  58.7232  68.2722  73.0335  73.0340  74.3500
    81.4438  84.1291

          k = 0.0833 0.4167-0.5000 (   836 PWs)   bands (ev):

    41.4547  41.4548  42.5993  42.5994  44.5237  44.5241  45.0994  45.0996
    49.0488  49.0493  49.9549  49.9553  51.4698  51.4704  52.0872  52.0876
    55.7468  55.7468  57.8863  57.8869  70.8449  70.8451  74.0609  74.0612
    82.6499  82.6501

          k = 0.0833-0.5000-0.5000 (   848 PWs)   bands (ev):

    42.0690  42.0690  42.0697  42.0697  44.9342  44.9349  44.9349  44.9350
    50.2777  50.2777  50.2778  50.2789  51.1389  51.1395  51.1395  51.1398
    56.2147  56.2153  56.2154  56.2154  72.8031  72.8031  72.8034  72.8039
    83.6262  83.6265

          k = 0.1667 0.1667 0.1667 (   832 PWs)   bands (ev):

    36.2186  36.2193  36.2193  39.0857  39.0861  39.0861  41.3670  46.8529
    47.8458  47.8458  55.3964  55.3964  57.1392  57.1392  57.1399  58.2884
    58.2888  58.2888  65.9991  65.9998  65.9998  75.9450  75.9454  75.9454
    79.0545  82.7043

          k = 0.1667 0.1667 0.2500 (   835 PWs)   bands (ev):

    36.9688  36.9692  37.1035  39.8589  40.9274  40.9277  41.3281  46.9998
    48.3318  48.5822  54.2393  54.2394  54.6118  55.0184  56.4424  56.6244
    57.3053  57.3059  65.2909  65.2915  65.8002  72.4896  77.6835  77.6841
    78.8368  81.8449

          k = 0.1667 0.1667 0.3333 (   843 PWs)   bands (ev):

    38.1559  38.2291  38.2296  41.0268  41.2738  42.8249  42.8253  46.8948
    48.3694  49.0710  51.3300  51.3302  52.7460  54.5946  55.4264  56.1720
    56.1725  58.1842  64.3181  64.3188  64.9268  68.7297  78.9399  78.9406
    79.1798  81.7316

          k = 0.1667 0.1667 0.4167 (   844 PWs)   bands (ev):

    39.2241  39.7972  39.7978  40.9167  42.6242  43.9399  43.9404  46.5689
    47.5535  49.5289  49.5292  50.0798  50.5886  52.8745  54.6951  54.6956
    57.9717  59.9536  63.5164  63.6370  63.6377  64.9331  79.7574  79.7581
    80.1962  81.6475

          k = 0.1667 0.1667-0.5000 (   828 PWs)   bands (ev):

    40.1876  40.1883  40.7962  40.7968  43.7781  43.7784  44.5635  44.5642
    48.7681  48.7682  49.3293  49.3296  51.3553  51.3553  53.8326  53.8332
    61.2803  61.2804  61.7888  61.7892  63.4115  63.4123  80.1678  80.1689
    81.4467  81.4473

          k = 0.1667 0.2500 0.2500 (   840 PWs)   bands (ev):

    37.3547  37.8048  37.8051  40.9101  41.5686  41.5689  42.7302  47.7243
    48.1010  49.5425  52.4324  52.4332  53.5312  54.7050  55.0558  55.6549
    55.6549  57.4238  64.8090  65.2931  65.2934  74.4745  74.4746  77.3004
    77.9444  82.1259

          k = 0.1667 0.2500 0.3333 (   843 PWs)   bands (ev):

    38.2771  38.7755  39.0318  40.7437  42.5318  43.0617  44.2617  47.3496
    48.4822  49.8279  50.1173  50.7260  51.6850  53.8290  54.0681  55.0138
    55.4309  59.4114  63.8026  64.1367  64.5064  70.9409  76.2853  76.8824
    77.9200  82.9465

          k = 0.1667 0.2500 0.4167 (   833 PWs)   bands (ev):

    39.6623  39.6713  40.6235  40.6280  43.2053  43.8559  44.4154  46.7207
    48.5993  49.3393  49.5699  49.5777  50.8376  52.1003  53.1423  54.0194
    57.7289  61.8138  62.8288  62.8868  63.0782  67.5560  77.0144  77.2937
    78.7324  82.4702

          k = 0.1667 0.2500-0.5000 (   834 PWs)   bands (ev):

    40.3069  40.3076  41.1791  41.1796  43.0936  43.0938  45.4261  45.4265
    48.5199  48.5203  50.5687  50.5688  50.6295  50.6296  52.9177  52.9183
    60.4288  60.4289  62.5981  62.5987  64.5135  64.5137  77.3680  77.3686
    80.2310  80.2314

          k = 0.1667 0.3333 0.3333 (   838 PWs)   bands (ev):

    38.8137  39.9012  39.9015  40.5291  43.4254  43.4255  45.1635  47.1227
    48.1291  49.2944  49.2948  51.4348  52.0086  52.2692  53.4538  53.4539
    55.0342  61.8689  62.8619  63.3118  63.3119  73.1707  73.1709  75.5200
    77.6048  83.7605

          k = 0.1667 0.3333 0.4167 (   834 PWs)   bands (ev):

    39.8246  40.4875  40.5414  41.4372  42.7388  44.1019  44.7618  46.2878
    48.4417  48.9784  49.6896  51.3358  51.3955  51.9601  52.2306  53.0056
    56.6147  61.5628  61.8514  62.1273  64.6195  70.2437  74.6091  75.1139
    78.2043  81.4703

          k = 0.1667 0.3333-0.5000 (   836 PWs)   bands (ev):

    40.6189  40.6194  41.2141  41.2142  43.2398  43.2400  45.1576  45.1578
    48.8797  48.8801  50.7964  50.7969  51.0865  51.0870  52.5024  52.5025
    59.1505  59.1506  61.5103  61.5109  67.4264  67.4265  75.0855  75.0860
    79.5789  79.5791

          k = 0.1667 0.4167 0.4167 (   837 PWs)   bands (ev):

    40.3310  40.6336  41.3000  41.3000  43.5098  43.5100  44.6325  45.7530
    48.2189  49.4408  49.4413  50.1555  52.4603  52.4605  52.9024  53.2068
    56.3652  60.3975  60.3976  60.5879  67.4194  72.2976  72.2980  74.1695
    78.6219  81.6013

          k = 0.1667 0.4167-0.5000 (   842 PWs)   bands (ev):

    40.8943  40.8945  41.0664  41.0665  43.8840  43.8845  44.7413  44.7417
    48.7070  48.7074  49.6611  49.6618  52.7589  52.7596  53.2824  53.2825
    58.1426  58.1427  59.9014  59.9020  69.9885  69.9887  73.5013  73.5018
    79.8629  79.8633

          k = 0.1667-0.5000-0.5000 (   844 PWs)   bands (ev):

    40.9960  40.9960  40.9964  40.9964  44.4324  44.4329  44.4329  44.4334
    48.8164  48.8164  48.8164  48.8175  53.7312  53.7317  53.7317  53.7319
    58.3246  58.3251  58.3251  58.3252  71.9855  71.9855  71.9856  71.9863
    80.9125  80.9128

          k = 0.2500 0.2500 0.2500 (   847 PWs)   bands (ev):

    38.0963  38.0968  38.0968  40.1547  43.0983  43.0989  43.0989  47.8684
    47.8684  51.3815  52.2507  52.2507  52.2516  53.3220  53.3225  53.3225
    56.5964  56.5964  65.5057  65.5063  65.5063  75.0138  75.0145  75.0145
    76.6201  82.6095

          k = 0.2500 0.2500 0.3333 (   842 PWs)   bands (ev):

    38.8982  38.9165  38.9169  39.8082  43.6432  43.9806  43.9810  47.3214
    47.9506  51.0559  51.0562  51.1510  51.6913  52.2138  52.8347  52.8353
    57.3606  58.7127  64.6679  64.6684  65.4287  71.3771  75.5827  75.5834
    76.2867  82.3780

          k = 0.2500 0.2500 0.4167 (   834 PWs)   bands (ev):

    39.4950  39.7408  40.2043  40.2047  43.3820  43.3824  44.4316  46.4810
    48.3839  50.2845  50.5655  50.9085  50.9090  51.4302  52.6818  52.6822
    60.2099  60.8782  63.5541  63.5547  64.4982  67.5346  76.0387  76.0394
    76.9160  80.3792

          k = 0.2500 0.2500-0.5000 (   836 PWs)   bands (ev):

    39.7293  39.7299  41.7094  41.7097  41.9312  41.9318  45.4475  45.4477
    49.1688  49.1690  50.6809  50.6816  51.2619  51.2627  52.5051  52.5053
    62.8906  62.8907  63.0421  63.0426  63.7536  63.7537  76.2266  76.2273
    78.3602  78.3605

          k = 0.2500 0.3333 0.3333 (   839 PWs)   bands (ev):

    39.2403  39.3258  39.4733  39.4736  43.8682  43.8682  44.2702  47.2315
    47.3220  50.2256  50.2257  50.6684  52.1896  52.1899  52.7766  54.3333
    57.3658  60.6803  64.2914  64.7989  64.7992  72.4992  72.4994  74.6828
    75.6703  81.7718

          k = 0.2500 0.3333 0.4167 (   841 PWs)   bands (ev):

    39.2405  39.6203  39.9440  40.3322  43.1555  43.7001  44.3034  46.3347
    47.5745  49.1542  49.7571  49.8414  52.3911  53.4005  53.9008  54.1015
    59.2408  63.3645  63.3781  63.6290  63.8458  69.2277  73.4819  74.2351
    76.0930  79.5026

          k = 0.2500 0.3333-0.5000 (   840 PWs)   bands (ev):

    39.4228  39.4232  40.6761  40.6763  42.8451  42.8456  45.2532  45.2535
    48.2125  48.2128  49.6502  49.6509  53.1199  53.1206  54.2242  54.2243
    61.8314  61.8315  62.9526  62.9531  66.1899  66.1900  73.9896  73.9903
    77.4434  77.4438

          k = 0.2500 0.4167 0.4167 (   837 PWs)   bands (ev):

    39.1246  39.8577  39.8577  39.9048  43.8789  43.9376  43.9378  46.0509
    47.0952  48.5172  48.5175  48.6936  54.4083  54.4084  55.3589  55.9728
    58.7874  62.5366  62.6152  62.6153  66.0791  70.9438  70.9439  72.9984
    76.3431  79.6085

          k = 0.2500 0.4167-0.5000 (   842 PWs)   bands (ev):

    39.3606  39.3608  39.9527  39.9528  43.8366  43.8371  45.0698  45.0703
    47.5506  47.5510  48.2951  48.2958  55.4764  55.4772  55.7082  55.7082
    60.6307  60.6308  61.9653  61.9659  68.5756  68.5759  72.1026  72.1032
    77.5952  77.5955

          k = 0.2500-0.5000-0.5000 (   856 PWs)   bands (ev):

    39.5273  39.5273  39.5275  39.5276  44.6643  44.6645  44.6645  44.6652
    47.5038  47.5038  47.5038  47.5047  56.5428  56.5433  56.5433  56.5435
    60.6002  60.6007  60.6007  60.6009  70.4727  70.4729  70.4729  70.4736
    78.7136  78.7139

          k = 0.3333 0.3333 0.3333 (   838 PWs)   bands (ev):

    38.6266  39.3774  39.3777  39.3777  43.9346  43.9348  43.9348  46.9178
    46.9178  49.2456  49.2461  49.2461  53.6613  53.6613  53.6616  57.1231
    59.7484  59.7484  65.0886  65.0893  65.0893  71.9940  71.9948  71.9948
    74.7678  81.2571

          k = 0.3333 0.3333 0.4167 (   845 PWs)   bands (ev):

    38.4151  39.0541  39.5012  39.5013  43.6872  43.6876  44.4075  46.2469
    46.9212  48.1121  48.4650  48.4656  54.6717  55.4459  55.4460  57.0389
    61.8269  61.9909  64.3561  64.3566  64.9408  68.6667  71.9228  71.9235
    74.9884  78.4707

          k = 0.3333 0.3333-0.5000 (   848 PWs)   bands (ev):

    38.6166  38.6169  39.5995  39.5996  43.5049  43.5054  45.3234  45.3238
    47.3256  47.3259  48.2350  48.2357  55.8211  55.8218  56.2714  56.2715
    63.8175  63.8181  63.8276  63.8276  65.2092  65.2096  71.9615  71.9622
    76.2791  76.2792

          k = 0.3333 0.4167 0.4167 (   845 PWs)   bands (ev):

    38.0874  38.7742  38.7742  38.9840  44.1441  44.4279  44.4280  46.1779
    46.3577  47.3866  47.3867  47.4802  56.9045  56.9045  57.3370  59.1479
    61.1383  64.0804  64.2909  64.2911  64.4518  69.2684  69.2685  70.7546
    75.0347  78.3948

          k = 0.3333 0.4167-0.5000 (   848 PWs)   bands (ev):

    38.2336  38.2338  38.7515  38.7516  44.3764  44.3768  45.3726  45.3730
    46.6640  46.6643  47.1301  47.1307  58.0970  58.0971  58.3019  58.3026
    62.9287  62.9288  63.6448  63.6454  66.8202  66.8206  70.0213  70.0220
    76.2286  76.2287

          k = 0.3333-0.5000-0.5000 (   840 PWs)   bands (ev):

    38.2830  38.2830  38.2831  38.2832  45.1273  45.1273  45.1273  45.1282
    46.5120  46.5121  46.5121  46.5130  59.2787  59.2793  59.2793  59.2795
    62.6676  62.6680  62.6680  62.6683  68.4644  68.4647  68.4647  68.4653
    77.2416  77.2417

          k = 0.4167 0.4167 0.4167 (   858 PWs)   bands (ev):

    37.5773  38.1080  38.1080  38.1080  44.8448  44.8451  44.8451  46.0296
    46.0296  46.6053  46.6057  46.6057  59.1435  59.1436  59.1436  61.8361
    63.1491  63.1491  64.8100  64.8106  64.8106  68.1169  68.1175  68.1175
    74.8480  77.7622

          k = 0.4167 0.4167-0.5000 (   860 PWs)   bands (ev):

    37.5973  37.5974  37.8836  37.8837  45.0264  45.0268  45.5540  45.5544
    46.1146  46.1150  46.3125  46.3130  60.2397  60.2399  60.8188  60.8196
    64.4771  64.4771  64.4803  64.4808  65.3905  65.3910  67.9084  67.9089
    75.8192  75.8192

          k = 0.4167-0.5000-0.5000 (   860 PWs)   bands (ev):

    37.4829  37.4829  37.4830  37.4831  45.5331  45.5331  45.5332  45.5340
    45.9001  45.9002  45.9002  45.9010  61.7691  61.7698  61.7698  61.7700
    64.1596  64.1601  64.1601  64.1604  66.3529  66.3532  66.3532  66.3537
    76.3379  76.3380

          k =-0.5000-0.5000-0.5000 (   840 PWs)   bands (ev):

    37.2099  37.2099  37.2099  37.2101  45.6942  45.6942  45.6942  45.6943
    45.6943  45.6943  45.6951  45.6951  63.5374  63.5389  63.5389  63.5389
    64.7128  64.7128  64.7128  64.7135  64.7135  64.7135  64.7137  64.7137
    76.0149  76.0150

     the Fermi energy is    72.0123 ev

!    total energy              =   -3083.69453280 Ry

     total all-electron energy =   -152079.078897 Ry
     estimated scf accuracy    <       0.00000079 Ry
     smearing contrib. (-TS)   =      -0.11518246 Ry
     internal energy E=F+TS    =   -3083.57935035 Ry

     The total energy is F=E-TS. E is the sum of the following terms:
     one-electron contribution =     254.16975339 Ry
     hartree contribution      =       6.38452181 Ry
     xc contribution           =    -141.86793007 Ry
     ewald contribution        =    -426.80670214 Ry
     one-center paw contrib.   =   -2775.45899334 Ry

     convergence has been achieved in   6 iterations

     negative rho (up, down):  1.201E-02 0.000E+00

     Forces acting on atoms (cartesian axes, Ry/au):

     atom    1 type  1   force =     0.00000000    0.00000000    0.00000000
     atom    2 type  1   force =     0.00000000    0.00000000   -0.00000000
     atom    3 type  1   force =     0.00000000    0.00000000    0.00000000
     atom    4 type  1   force =     0.00000000    0.00000000    0.00000000

     Total force =     0.000000     Total SCF correction =     0.000000

     Writing all to output data dir ./pwscf.save/

 %%%%%%%%%%%%%%%%%%%%%%%%%%%%%%%%%%%%%%%%%%%%%%%%%%%%%%%%%%%%%%%%%%%%%%%%%%%%%%
     Error in routine write_rhog (1):
     error opening file ./pwscf.save/charge-density
 %%%%%%%%%%%%%%%%%%%%%%%%%%%%%%%%%%%%%%%%%%%%%%%%%%%%%%%%%%%%%%%%%%%%%%%%%%%%%%

     stopping ...

 %%%%%%%%%%%%%%%%%%%%%%%%%%%%%%%%%%%%%%%%%%%%%%%%%%%%%%%%%%%%%%%%%%%%%%%%%%%%%%
     Error in routine write_rhog (1):
     error opening file ./pwscf.save/charge-density
 %%%%%%%%%%%%%%%%%%%%%%%%%%%%%%%%%%%%%%%%%%%%%%%%%%%%%%%%%%%%%%%%%%%%%%%%%%%%%%

     stopping ...

 %%%%%%%%%%%%%%%%%%%%%%%%%%%%%%%%%%%%%%%%%%%%%%%%%%%%%%%%%%%%%%%%%%%%%%%%%%%%%%
     Error in routine write_rhog (1):
     error opening file ./pwscf.save/charge-density
 %%%%%%%%%%%%%%%%%%%%%%%%%%%%%%%%%%%%%%%%%%%%%%%%%%%%%%%%%%%%%%%%%%%%%%%%%%%%%%

     stopping ...

 %%%%%%%%%%%%%%%%%%%%%%%%%%%%%%%%%%%%%%%%%%%%%%%%%%%%%%%%%%%%%%%%%%%%%%%%%%%%%%
     Error in routine write_rhog (1):
     error opening file ./pwscf.save/charge-density
 %%%%%%%%%%%%%%%%%%%%%%%%%%%%%%%%%%%%%%%%%%%%%%%%%%%%%%%%%%%%%%%%%%%%%%%%%%%%%%

     stopping ...

 %%%%%%%%%%%%%%%%%%%%%%%%%%%%%%%%%%%%%%%%%%%%%%%%%%%%%%%%%%%%%%%%%%%%%%%%%%%%%%
     Error in routine write_rhog (1):
     error opening file ./pwscf.save/charge-density
 %%%%%%%%%%%%%%%%%%%%%%%%%%%%%%%%%%%%%%%%%%%%%%%%%%%%%%%%%%%%%%%%%%%%%%%%%%%%%%

     stopping ...

 %%%%%%%%%%%%%%%%%%%%%%%%%%%%%%%%%%%%%%%%%%%%%%%%%%%%%%%%%%%%%%%%%%%%%%%%%%%%%%
     Error in routine write_rhog (1):
     error opening file ./pwscf.save/charge-density
 %%%%%%%%%%%%%%%%%%%%%%%%%%%%%%%%%%%%%%%%%%%%%%%%%%%%%%%%%%%%%%%%%%%%%%%%%%%%%%

     stopping ...

 %%%%%%%%%%%%%%%%%%%%%%%%%%%%%%%%%%%%%%%%%%%%%%%%%%%%%%%%%%%%%%%%%%%%%%%%%%%%%%
     Error in routine write_rhog (1):
     error opening file ./pwscf.save/charge-density
 %%%%%%%%%%%%%%%%%%%%%%%%%%%%%%%%%%%%%%%%%%%%%%%%%%%%%%%%%%%%%%%%%%%%%%%%%%%%%%

     stopping ...

 %%%%%%%%%%%%%%%%%%%%%%%%%%%%%%%%%%%%%%%%%%%%%%%%%%%%%%%%%%%%%%%%%%%%%%%%%%%%%%
     Error in routine write_rhog (1):
     error opening file ./pwscf.save/charge-density
 %%%%%%%%%%%%%%%%%%%%%%%%%%%%%%%%%%%%%%%%%%%%%%%%%%%%%%%%%%%%%%%%%%%%%%%%%%%%%%

     stopping ...

 %%%%%%%%%%%%%%%%%%%%%%%%%%%%%%%%%%%%%%%%%%%%%%%%%%%%%%%%%%%%%%%%%%%%%%%%%%%%%%
     Error in routine write_rhog (1):
     error opening file ./pwscf.save/charge-density
 %%%%%%%%%%%%%%%%%%%%%%%%%%%%%%%%%%%%%%%%%%%%%%%%%%%%%%%%%%%%%%%%%%%%%%%%%%%%%%

     stopping ...

 %%%%%%%%%%%%%%%%%%%%%%%%%%%%%%%%%%%%%%%%%%%%%%%%%%%%%%%%%%%%%%%%%%%%%%%%%%%%%%
     Error in routine write_rhog (1):
     error opening file ./pwscf.save/charge-density
 %%%%%%%%%%%%%%%%%%%%%%%%%%%%%%%%%%%%%%%%%%%%%%%%%%%%%%%%%%%%%%%%%%%%%%%%%%%%%%

     stopping ...
