MPI startup(): Warning: I_MPI_PMI_LIBRARY will be ignored since the hydra process manager was found
MPI startup(): Warning: I_MPI_PMI_LIBRARY will be ignored since the hydra process manager was found
MPI startup(): Warning: I_MPI_PMI_LIBRARY will be ignored since the hydra process manager was found
MPI startup(): Warning: I_MPI_PMI_LIBRARY will be ignored since the hydra process manager was found
MPI startup(): Warning: I_MPI_PMI_LIBRARY will be ignored since the hydra process manager was found
MPI startup(): Warning: I_MPI_PMI_LIBRARY will be ignored since the hydra process manager was found
MPI startup(): Warning: I_MPI_PMI_LIBRARY will be ignored since the hydra process manager was found
MPI startup(): Warning: I_MPI_PMI_LIBRARY will be ignored since the hydra process manager was found
MPI startup(): Warning: I_MPI_PMI_LIBRARY will be ignored since the hydra process manager was found
MPI startup(): Warning: I_MPI_PMI_LIBRARY will be ignored since the hydra process manager was found

     Program PWSCF v.7.0 starts on  5Apr2024 at 12:35:52 

     This program is part of the open-source Quantum ESPRESSO suite
     for quantum simulation of materials; please cite
         "P. Giannozzi et al., J. Phys.:Condens. Matter 21 395502 (2009);
         "P. Giannozzi et al., J. Phys.:Condens. Matter 29 465901 (2017);
         "P. Giannozzi et al., J. Chem. Phys. 152 154105 (2020);
          URL http://www.quantum-espresso.org", 
     in publications or presentations arising from this work. More details at
     http://www.quantum-espresso.org/quote

     Parallel version (MPI), running on    10 processors

     MPI processes distributed on     1 nodes
     R & G space division:  proc/nbgrp/npool/nimage =      10
     226048 MiB available memory on the printing compute node when the environment starts
 
     Reading input from VolumeFCC_9.5.in
Warning: card &CELL ignored
Warning: card / ignored

     Current dimensions of program PWSCF are:
     Max number of different atomic species (ntypx) = 10
     Max number of k-points (npk) =  40000
     Max angular momentum in pseudopotentials (lmaxx) =  4
     file Au.pbe-n-kjpaw_psl.1.0.0.UPF: wavefunction(s)  6S 5D renormalized
     Found identity + (  0.5000  0.5000  0.0000) symmetry
     This is a supercell, fractional translations are disabled
     Message from routine setup:
     using ibrav=0 with symmetry is DISCOURAGED, use correct ibrav instead

     Subspace diagonalization in iterative solution of the eigenvalue problem:
     one sub-group per band group will be used
     scalapack distributed-memory algorithm (size of sub-group:  3*  3 procs)

 
     Parallelization info
     --------------------
     sticks:   dense  smooth     PW     G-vecs:    dense   smooth      PW
     Min         143     143     42                 4083     4083     644
     Max         145     145     43                 4086     4086     647
     Sum        1441    1441    421                40843    40843    6451
 
     Using Slab Decomposition
 


     bravais-lattice index     =            0
     lattice parameter (alat)  =       9.4986  a.u.
     unit-cell volume          =     857.0023 (a.u.)^3
     number of atoms/cell      =            4
     number of atomic types    =            1
     number of electrons       =        44.00
     number of Kohn-Sham states=           26
     kinetic-energy cutoff     =      50.0000  Ry
     charge density cutoff     =     200.0000  Ry
     scf convergence threshold =      1.0E-06
     mixing beta               =       0.7000
     number of iterations used =            8  plain     mixing
     Exchange-correlation= SLA  PW   PBX  PBC
                           (   1   4   3   4   0   0   0)

     celldm(1)=   9.498623  celldm(2)=   0.000000  celldm(3)=   0.000000
     celldm(4)=   0.000000  celldm(5)=   0.000000  celldm(6)=   0.000000

     crystal axes: (cart. coord. in units of alat)
               a(1) = (   1.000000   0.000000   0.000000 )  
               a(2) = (   0.000000   1.000000   0.000000 )  
               a(3) = (   0.000000   0.000000   1.000000 )  

     reciprocal axes: (cart. coord. in units 2 pi/alat)
               b(1) = (  1.000000  0.000000  0.000000 )  
               b(2) = (  0.000000  1.000000  0.000000 )  
               b(3) = (  0.000000  0.000000  1.000000 )  


     PseudoPot. # 1 for Au read from file:
     ./Au.pbe-n-kjpaw_psl.1.0.0.UPF
     MD5 check sum: 4db85c736373c707a97ce4c36c2a9d23
     Pseudo is Projector augmented-wave + core cor, Zval = 11.0
     Generated using &quot;atomic&quot; code by A. Dal Corso  v.6.3
     Shape of augmentation charge: PSQ
     Using radial grid of 1279 points,  6 beta functions with: 
                l(1) =   0
                l(2) =   0
                l(3) =   1
                l(4) =   1
                l(5) =   2
                l(6) =   2
     Q(r) pseudized with 0 coefficients 


     atomic species   valence    mass     pseudopotential
        Au            11.00   196.96657     Au( 1.00)

     48 Sym. Ops., with inversion, found



   Cartesian axes

     site n.     atom                  positions (alat units)
         1           Au  tau(   1) = (   0.0000000   0.0000000   0.0000000  )
         2           Au  tau(   2) = (   0.5000000   0.5000000   0.0000000  )
         3           Au  tau(   3) = (   0.5000000   0.0000000   0.5000000  )
         4           Au  tau(   4) = (   0.0000000   0.5000000   0.5000000  )

     number of k points=    84  Gaussian smearing, width (Ry)=  0.2000
                       cart. coord. in units 2pi/alat
        k(    1) = (   0.0000000   0.0000000   0.0000000), wk =   0.0011574
        k(    2) = (   0.0000000   0.0000000   0.0833333), wk =   0.0069444
        k(    3) = (   0.0000000   0.0000000   0.1666667), wk =   0.0069444
        k(    4) = (   0.0000000   0.0000000   0.2500000), wk =   0.0069444
        k(    5) = (   0.0000000   0.0000000   0.3333333), wk =   0.0069444
        k(    6) = (   0.0000000   0.0000000   0.4166667), wk =   0.0069444
        k(    7) = (   0.0000000   0.0000000  -0.5000000), wk =   0.0034722
        k(    8) = (   0.0000000   0.0833333   0.0833333), wk =   0.0138889
        k(    9) = (   0.0000000   0.0833333   0.1666667), wk =   0.0277778
        k(   10) = (   0.0000000   0.0833333   0.2500000), wk =   0.0277778
        k(   11) = (   0.0000000   0.0833333   0.3333333), wk =   0.0277778
        k(   12) = (   0.0000000   0.0833333   0.4166667), wk =   0.0277778
        k(   13) = (   0.0000000   0.0833333  -0.5000000), wk =   0.0138889
        k(   14) = (   0.0000000   0.1666667   0.1666667), wk =   0.0138889
        k(   15) = (   0.0000000   0.1666667   0.2500000), wk =   0.0277778
        k(   16) = (   0.0000000   0.1666667   0.3333333), wk =   0.0277778
        k(   17) = (   0.0000000   0.1666667   0.4166667), wk =   0.0277778
        k(   18) = (   0.0000000   0.1666667  -0.5000000), wk =   0.0138889
        k(   19) = (   0.0000000   0.2500000   0.2500000), wk =   0.0138889
        k(   20) = (   0.0000000   0.2500000   0.3333333), wk =   0.0277778
        k(   21) = (   0.0000000   0.2500000   0.4166667), wk =   0.0277778
        k(   22) = (   0.0000000   0.2500000  -0.5000000), wk =   0.0138889
        k(   23) = (   0.0000000   0.3333333   0.3333333), wk =   0.0138889
        k(   24) = (   0.0000000   0.3333333   0.4166667), wk =   0.0277778
        k(   25) = (   0.0000000   0.3333333  -0.5000000), wk =   0.0138889
        k(   26) = (   0.0000000   0.4166667   0.4166667), wk =   0.0138889
        k(   27) = (   0.0000000   0.4166667  -0.5000000), wk =   0.0138889
        k(   28) = (   0.0000000  -0.5000000  -0.5000000), wk =   0.0034722
        k(   29) = (   0.0833333   0.0833333   0.0833333), wk =   0.0092593
        k(   30) = (   0.0833333   0.0833333   0.1666667), wk =   0.0277778
        k(   31) = (   0.0833333   0.0833333   0.2500000), wk =   0.0277778
        k(   32) = (   0.0833333   0.0833333   0.3333333), wk =   0.0277778
        k(   33) = (   0.0833333   0.0833333   0.4166667), wk =   0.0277778
        k(   34) = (   0.0833333   0.0833333  -0.5000000), wk =   0.0138889
        k(   35) = (   0.0833333   0.1666667   0.1666667), wk =   0.0277778
        k(   36) = (   0.0833333   0.1666667   0.2500000), wk =   0.0555556
        k(   37) = (   0.0833333   0.1666667   0.3333333), wk =   0.0555556
        k(   38) = (   0.0833333   0.1666667   0.4166667), wk =   0.0555556
        k(   39) = (   0.0833333   0.1666667  -0.5000000), wk =   0.0277778
        k(   40) = (   0.0833333   0.2500000   0.2500000), wk =   0.0277778
        k(   41) = (   0.0833333   0.2500000   0.3333333), wk =   0.0555556
        k(   42) = (   0.0833333   0.2500000   0.4166667), wk =   0.0555556
        k(   43) = (   0.0833333   0.2500000  -0.5000000), wk =   0.0277778
        k(   44) = (   0.0833333   0.3333333   0.3333333), wk =   0.0277778
        k(   45) = (   0.0833333   0.3333333   0.4166667), wk =   0.0555556
        k(   46) = (   0.0833333   0.3333333  -0.5000000), wk =   0.0277778
        k(   47) = (   0.0833333   0.4166667   0.4166667), wk =   0.0277778
        k(   48) = (   0.0833333   0.4166667  -0.5000000), wk =   0.0277778
        k(   49) = (   0.0833333  -0.5000000  -0.5000000), wk =   0.0069444
        k(   50) = (   0.1666667   0.1666667   0.1666667), wk =   0.0092593
        k(   51) = (   0.1666667   0.1666667   0.2500000), wk =   0.0277778
        k(   52) = (   0.1666667   0.1666667   0.3333333), wk =   0.0277778
        k(   53) = (   0.1666667   0.1666667   0.4166667), wk =   0.0277778
        k(   54) = (   0.1666667   0.1666667  -0.5000000), wk =   0.0138889
        k(   55) = (   0.1666667   0.2500000   0.2500000), wk =   0.0277778
        k(   56) = (   0.1666667   0.2500000   0.3333333), wk =   0.0555556
        k(   57) = (   0.1666667   0.2500000   0.4166667), wk =   0.0555556
        k(   58) = (   0.1666667   0.2500000  -0.5000000), wk =   0.0277778
        k(   59) = (   0.1666667   0.3333333   0.3333333), wk =   0.0277778
        k(   60) = (   0.1666667   0.3333333   0.4166667), wk =   0.0555556
        k(   61) = (   0.1666667   0.3333333  -0.5000000), wk =   0.0277778
        k(   62) = (   0.1666667   0.4166667   0.4166667), wk =   0.0277778
        k(   63) = (   0.1666667   0.4166667  -0.5000000), wk =   0.0277778
        k(   64) = (   0.1666667  -0.5000000  -0.5000000), wk =   0.0069444
        k(   65) = (   0.2500000   0.2500000   0.2500000), wk =   0.0092593
        k(   66) = (   0.2500000   0.2500000   0.3333333), wk =   0.0277778
        k(   67) = (   0.2500000   0.2500000   0.4166667), wk =   0.0277778
        k(   68) = (   0.2500000   0.2500000  -0.5000000), wk =   0.0138889
        k(   69) = (   0.2500000   0.3333333   0.3333333), wk =   0.0277778
        k(   70) = (   0.2500000   0.3333333   0.4166667), wk =   0.0555556
        k(   71) = (   0.2500000   0.3333333  -0.5000000), wk =   0.0277778
        k(   72) = (   0.2500000   0.4166667   0.4166667), wk =   0.0277778
        k(   73) = (   0.2500000   0.4166667  -0.5000000), wk =   0.0277778
        k(   74) = (   0.2500000  -0.5000000  -0.5000000), wk =   0.0069444
        k(   75) = (   0.3333333   0.3333333   0.3333333), wk =   0.0092593
        k(   76) = (   0.3333333   0.3333333   0.4166667), wk =   0.0277778
        k(   77) = (   0.3333333   0.3333333  -0.5000000), wk =   0.0138889
        k(   78) = (   0.3333333   0.4166667   0.4166667), wk =   0.0277778
        k(   79) = (   0.3333333   0.4166667  -0.5000000), wk =   0.0277778
        k(   80) = (   0.3333333  -0.5000000  -0.5000000), wk =   0.0069444
        k(   81) = (   0.4166667   0.4166667   0.4166667), wk =   0.0092593
        k(   82) = (   0.4166667   0.4166667  -0.5000000), wk =   0.0138889
        k(   83) = (   0.4166667  -0.5000000  -0.5000000), wk =   0.0069444
        k(   84) = (  -0.5000000  -0.5000000  -0.5000000), wk =   0.0011574

     Dense  grid:    40843 G-vectors     FFT dimensions: (  45,  45,  45)

     Estimated max dynamical RAM per process >      33.58 MB

     Estimated total dynamical RAM >     335.84 MB

     Initial potential from superposition of free atoms

     starting charge      43.9996, renormalised to      44.0000
     Starting wfcs are   36 randomized atomic wfcs
     Checking if some PAW data can be deallocated... 

     total cpu time spent up to now is        3.8 secs

     Self-consistent Calculation

     iteration #  1     ecut=    50.00 Ry     beta= 0.70
     Davidson diagonalization with overlap
     ethr =  1.00E-02,  avg # of iterations =  2.1

     Threshold (ethr) on eigenvalues was too large:
     Diagonalizing with lowered threshold

     Davidson diagonalization with overlap
     ethr =  7.14E-04,  avg # of iterations =  2.9

     total cpu time spent up to now is        8.8 secs

     total energy              =   -3100.44311089 Ry
     estimated scf accuracy    <       0.33689206 Ry

     iteration #  2     ecut=    50.00 Ry     beta= 0.70
     Davidson diagonalization with overlap
     ethr =  7.66E-04,  avg # of iterations =  2.2

     total cpu time spent up to now is       11.9 secs

     total energy              =   -3100.56847289 Ry
     estimated scf accuracy    <       0.15569669 Ry

     iteration #  3     ecut=    50.00 Ry     beta= 0.70
     Davidson diagonalization with overlap
     ethr =  3.54E-04,  avg # of iterations =  1.8

     total cpu time spent up to now is       14.1 secs

     total energy              =   -3100.59121731 Ry
     estimated scf accuracy    <       0.00687750 Ry

     iteration #  4     ecut=    50.00 Ry     beta= 0.70
     Davidson diagonalization with overlap
     ethr =  1.56E-05,  avg # of iterations =  5.5

     total cpu time spent up to now is       18.3 secs

     total energy              =   -3100.59572022 Ry
     estimated scf accuracy    <       0.00226689 Ry

     iteration #  5     ecut=    50.00 Ry     beta= 0.70
     Davidson diagonalization with overlap
     ethr =  5.15E-06,  avg # of iterations =  6.4

     total cpu time spent up to now is       23.3 secs

     total energy              =   -3100.59012790 Ry
     estimated scf accuracy    <       0.02829307 Ry

     iteration #  6     ecut=    50.00 Ry     beta= 0.70
     Davidson diagonalization with overlap
     ethr =  5.15E-06,  avg # of iterations =  4.5

     total cpu time spent up to now is       27.3 secs

     total energy              =   -3100.59500129 Ry
     estimated scf accuracy    <       0.00026338 Ry

     iteration #  7     ecut=    50.00 Ry     beta= 0.70
     Davidson diagonalization with overlap
     ethr =  5.99E-07,  avg # of iterations =  6.2

     total cpu time spent up to now is       32.1 secs

     total energy              =   -3100.59518951 Ry
     estimated scf accuracy    <       0.00003547 Ry

     iteration #  8     ecut=    50.00 Ry     beta= 0.70
     Davidson diagonalization with overlap
     c_bands:  1 eigenvalues not converged
     ethr =  8.06E-08,  avg # of iterations =  6.8

     total cpu time spent up to now is       37.0 secs

     total energy              =   -3100.59522097 Ry
     estimated scf accuracy    <       0.00003969 Ry

     iteration #  9     ecut=    50.00 Ry     beta= 0.70
     Davidson diagonalization with overlap
     ethr =  8.06E-08,  avg # of iterations =  4.4

     total cpu time spent up to now is       40.9 secs

     total energy              =   -3100.59528196 Ry
     estimated scf accuracy    <       0.00013784 Ry

     iteration # 10     ecut=    50.00 Ry     beta= 0.70
     Davidson diagonalization with overlap
     ethr =  8.06E-08,  avg # of iterations =  1.0

     total cpu time spent up to now is       42.9 secs

     total energy              =   -3100.59526684 Ry
     estimated scf accuracy    <       0.00012965 Ry

     iteration # 11     ecut=    50.00 Ry     beta= 0.70
     Davidson diagonalization with overlap
     ethr =  8.06E-08,  avg # of iterations =  1.0

     total cpu time spent up to now is       44.8 secs

     total energy              =   -3100.59524098 Ry
     estimated scf accuracy    <       0.00009838 Ry

     iteration # 12     ecut=    50.00 Ry     beta= 0.70
     Davidson diagonalization with overlap
     ethr =  8.06E-08,  avg # of iterations =  1.2

     total cpu time spent up to now is       46.8 secs

     total energy              =   -3100.59523958 Ry
     estimated scf accuracy    <       0.00004032 Ry

     iteration # 13     ecut=    50.00 Ry     beta= 0.70
     Davidson diagonalization with overlap
     ethr =  8.06E-08,  avg # of iterations =  1.0

     total cpu time spent up to now is       48.8 secs

     total energy              =   -3100.59523297 Ry
     estimated scf accuracy    <       0.00002839 Ry

     iteration # 14     ecut=    50.00 Ry     beta= 0.70
     Davidson diagonalization with overlap
     ethr =  6.45E-08,  avg # of iterations =  1.0

     total cpu time spent up to now is       50.8 secs

     total energy              =   -3100.59523995 Ry
     estimated scf accuracy    <       0.00001034 Ry

     iteration # 15     ecut=    50.00 Ry     beta= 0.70
     Davidson diagonalization with overlap
     ethr =  2.35E-08,  avg # of iterations =  1.2

     total cpu time spent up to now is       52.8 secs

     total energy              =   -3100.59522453 Ry
     estimated scf accuracy    <       0.00002204 Ry

     iteration # 16     ecut=    50.00 Ry     beta= 0.70
     Davidson diagonalization with overlap
     ethr =  2.35E-08,  avg # of iterations =  3.3

     total cpu time spent up to now is       56.3 secs

     total energy              =   -3100.59523467 Ry
     estimated scf accuracy    <       0.00000452 Ry

     iteration # 17     ecut=    50.00 Ry     beta= 0.70
     Davidson diagonalization with overlap
     ethr =  1.03E-08,  avg # of iterations =  1.9

     total cpu time spent up to now is       58.4 secs

     total energy              =   -3100.59523280 Ry
     estimated scf accuracy    <       0.00000381 Ry

     iteration # 18     ecut=    50.00 Ry     beta= 0.70
     Davidson diagonalization with overlap
     ethr =  8.65E-09,  avg # of iterations =  2.1

     total cpu time spent up to now is       60.6 secs

     End of self-consistent calculation

          k = 0.0000 0.0000 0.0000 (  5137 PWs)   bands (ev):

     0.5218   1.9049   1.9050   1.9050   1.9472   1.9472   1.9472   2.5713
     2.5713   2.5713   3.0192   3.0192   3.3696   3.3696   3.3696   3.4898
     3.4898   3.4898   3.4899   3.4899   3.4899   7.5267   7.5267   7.5268
     7.9187   7.9187

          k = 0.0000 0.0000 0.0833 (  5097 PWs)   bands (ev):

     0.5690   1.9168   1.9254   1.9255   1.9572   1.9644   1.9644   2.5600
     2.5839   2.5839   3.0077   3.0250   3.3543   3.3543   3.3634   3.4447
     3.4447   3.4702   3.4702   3.4898   3.4899   6.6374   7.5181   7.5182
     8.0076   8.0076

          k = 0.0000 0.0000 0.1667 (  5117 PWs)   bands (ev):

     0.7092   1.9499   1.9844   1.9845   1.9866   2.0156   2.0156   2.5269
     2.6215   2.6215   2.9753   3.0419   3.3094   3.3094   3.3203   3.3203
     3.3453   3.4136   3.4136   3.4899   3.4900   5.6640   7.4943   7.4943
     8.2626   8.2626

          k = 0.0000 0.0000 0.2500 (  5137 PWs)   bands (ev):

     0.9379   1.9965   2.0338   2.0737   2.0738   2.1005   2.1005   2.4747
     2.6828   2.6828   2.9288   3.0690   3.1430   3.1430   3.2391   3.2392
     3.3167   3.3268   3.3268   3.4900   3.4901   4.7812   7.4609   7.4609
     8.6554   8.6554

          k = 0.0000 0.0000 0.3333 (  5122 PWs)   bands (ev):

     1.2430   2.0386   2.0960   2.1780   2.1780   2.2177   2.2177   2.4076
     2.7655   2.7655   2.8834   2.9404   2.9404   3.1045   3.1539   3.1540
     3.2189   3.2189   3.2797   3.4901   3.4902   4.0099   7.4265   7.4266
     9.1550   9.1550

          k = 0.0000 0.0000 0.4167 (  5114 PWs)   bands (ev):

     1.5918   2.0336   2.1694   2.2697   2.2697   2.3306   2.3652   2.3652
     2.7343   2.7343   2.8661   2.8661   2.8770   3.0760   3.0760   3.1001
     3.1001   3.1462   3.2369   3.3903   3.4902   3.4902   7.4008   7.4009
     9.7345   9.7345

          k = 0.0000 0.0000-0.5000 (  5110 PWs)   bands (ev):

     1.8946   1.8947   2.2493   2.2494   2.3085   2.3086   2.5393   2.5393
     2.5394   2.5394   2.9798   2.9798   2.9798   2.9798   3.0046   3.0046
     3.0422   3.0422   3.1913   3.1914   3.4902   3.4903   7.3913   7.3913
    10.3715  10.3715

          k = 0.0000 0.0833 0.0833 (  5099 PWs)   bands (ev):

     0.6157   1.9372   1.9374   1.9375   1.9742   1.9742   1.9893   2.5575
     2.5880   2.5957   3.0051   3.0231   3.3396   3.3422   3.3423   3.4154
     3.4301   3.4301   3.4702   3.4702   3.4755   6.6814   6.6815   7.5076
     8.0951   8.9177

          k = 0.0000 0.0833 0.1667 (  5119 PWs)   bands (ev):

     0.7544   1.9711   1.9778   1.9969   2.0030   2.0248   2.0562   2.5294
     2.6215   2.6305   2.9774   3.0391   3.2582   3.2965   3.3020   3.3020
     3.3441   3.3931   3.4134   3.4688   3.4700   5.7250   6.7948   7.4771
     8.3461   9.0184

          k = 0.0000 0.0833 0.2500 (  5124 PWs)   bands (ev):

     0.9804   2.0187   2.0491   2.0497   2.0870   2.1085   2.1539   2.4794
     2.6819   2.6849   2.9360   3.0696   3.0954   3.1312   3.2261   3.2289
     3.2605   3.3263   3.3472   3.4677   3.4698   4.8571   6.9347   7.4307
     8.7341   9.2031

          k = 0.0000 0.0833 0.3333 (  5112 PWs)   bands (ev):

     1.2815   2.0625   2.1099   2.1481   2.1921   2.2241   2.2703   2.4142
     2.7450   2.7643   2.9009   2.9102   2.9340   3.1106   3.1163   3.1469
     3.1708   3.2182   3.2971   3.4677   3.4694   4.1062   7.0629   7.3737
     9.2291   9.4815

          k = 0.0000 0.0833 0.4167 (  5118 PWs)   bands (ev):

     1.6247   2.0598   2.1817   2.2553   2.2839   2.3391   2.3695   2.3932
     2.7062   2.7322   2.7781   2.8649   2.9654   2.9780   3.0733   3.0877
     3.0991   3.1613   3.2384   3.4681   3.4690   3.5254   7.1641   7.3111
     9.8047   9.8454

          k = 0.0000 0.0833-0.5000 (  5112 PWs)   bands (ev):

     1.9230   1.9231   2.2598   2.2598   2.3160   2.3160   2.5325   2.5326
     2.5408   2.5409   2.8397   2.8398   2.9786   2.9787   3.0462   3.0463
     3.1177   3.1177   3.2349   3.2349   3.4685   3.4686   7.2432   7.2432
    10.2709  10.2710

          k = 0.0000 0.1667 0.1667 (  5119 PWs)   bands (ev):

     0.8886   1.9954   2.0320   2.0321   2.0517   2.0517   2.1378   2.5220
     2.6367   2.6563   2.9679   3.0487   3.1756   3.1756   3.2283   3.2584
     3.3461   3.3462   3.4127   3.4127   3.4332   5.8888   5.8889   7.4249
     8.5873  10.0844

          k = 0.0000 0.1667 0.2500 (  5120 PWs)   bands (ev):

     1.1062   2.0462   2.0827   2.0948   2.1247   2.1322   2.2431   2.4867
     2.6861   2.6935   2.9399   3.0000   3.0685   3.0883   3.0884   3.1982
     3.2781   3.3237   3.3249   3.4116   3.4150   5.0554   6.1150   7.3363
     8.9627  10.0724

          k = 0.0000 0.1667 0.3333 (  5115 PWs)   bands (ev):

     1.3938   2.1283   2.1316   2.1514   2.2330   2.2430   2.3570   2.4308
     2.7193   2.7642   2.8109   2.9116   2.9340   2.9399   3.1250   3.1520
     3.1932   3.2161   3.2786   3.4088   3.4103   4.3355   6.3660   7.2098
     9.4454  10.0647

          k = 0.0000 0.1667 0.4167 (  5120 PWs)   bands (ev):

     1.7191   2.1351   2.2180   2.2341   2.3251   2.3631   2.3818   2.4556
     2.6381   2.7091   2.7247   2.8029   2.8630   2.9988   3.0626   3.0966
     3.1066   3.2098   3.2469   3.4073   3.4088   3.7745   6.6151   7.0453
    10.0107  10.0863

          k = 0.0000 0.1667-0.5000 (  5090 PWs)   bands (ev):

     2.0032   2.0033   2.2903   2.2903   2.3307   2.3308   2.5247   2.5247
     2.5446   2.5446   2.7143   2.7143   2.9761   2.9761   3.0515   3.0515
     3.1110   3.1110   3.4076   3.4077   3.4211   3.4211   6.8450   6.8451
    10.1731  10.1732

          k = 0.0000 0.2500 0.2500 (  5133 PWs)   bands (ev):

     1.3080   2.0742   2.1699   2.1699   2.1803   2.1804   2.3494   2.4794
     2.7091   2.7137   2.8830   2.8831   2.9209   2.9990   3.1483   3.1502
     3.2690   3.2690   3.3228   3.3228   3.3649   5.3266   5.3266   7.1704
     9.3219  10.6177

          k = 0.0000 0.2500 0.3333 (  5124 PWs)   bands (ev):

     1.5701   2.1336   2.2192   2.2377   2.2729   2.2958   2.4473   2.4570
     2.7002   2.7126   2.7555   2.7756   2.8646   2.9134   3.0868   3.1929
     3.2133   3.2295   3.2543   3.3205   3.3358   4.6303   5.6371   6.9319
     9.7882  10.3108

          k = 0.0000 0.2500 0.4167 (  5117 PWs)   bands (ev):

     1.8602   2.2227   2.2481   2.2766   2.3879   2.3970   2.4006   2.5354
     2.5554   2.6475   2.6753   2.7073   2.8660   2.9661   3.0377   3.0940
     3.1085   3.1589   3.3188   3.3230   3.4106   4.0650   5.9682   6.6355
    10.1865  10.3392

          k = 0.0000 0.2500-0.5000 (  5102 PWs)   bands (ev):

     2.1167   2.1167   2.3329   2.3329   2.3377   2.3377   2.5447   2.5447
     2.5481   2.5482   2.6288   2.6288   2.9751   2.9751   3.0435   3.0435
     3.0626   3.0627   3.3188   3.3189   3.6620   3.6621   6.3064   6.3065
    10.2219  10.2219

          k = 0.0000 0.3333 0.3333 (  5141 PWs)   bands (ev):

     1.7899   2.1663   2.3110   2.3110   2.3669   2.3669   2.4496   2.5561
     2.5857   2.5858   2.7175   2.7840   2.8132   2.8813   3.0357   3.1594
     3.1595   3.2111   3.2111   3.2742   3.4101   4.9652   4.9652   6.5630
    10.1677  10.2375

          k = 0.0000 0.3333 0.4167 (  5118 PWs)   bands (ev):

     2.0199   2.2275   2.3538   2.3669   2.4226   2.4308   2.4343   2.5039
     2.5373   2.6222   2.6729   2.6842   2.8836   2.9073   2.9939   3.0787
     3.0907   3.0940   3.2115   3.2362   3.6296   4.3929   5.3333   6.1489
    10.2134  10.7420

          k = 0.0000 0.3333-0.5000 (  5134 PWs)   bands (ev):

     2.2227   2.2228   2.3176   2.3176   2.3960   2.3961   2.5470   2.5470
     2.6026   2.6026   2.6072   2.6072   2.9810   2.9810   2.9956   2.9957
     3.0092   3.0092   3.2179   3.2180   3.9471   3.9471   5.7310   5.7310
    10.4141  10.4142

          k = 0.0000 0.4167 0.4167 (  5141 PWs)   bands (ev):

     2.1634   2.2525   2.3651   2.3652   2.4432   2.4432   2.4526   2.5786
     2.5787   2.6149   2.6921   2.7126   2.8653   2.9274   2.9430   3.0124
     3.0124   3.1011   3.1012   3.1663   3.9146   4.7639   4.7640   5.6514
    10.4038  11.1745

          k = 0.0000 0.4167-0.5000 (  5156 PWs)   bands (ev):

     2.2748   2.2748   2.3002   2.3002   2.4556   2.4557   2.5347   2.5347
     2.6669   2.6670   2.6787   2.6788   2.9214   2.9214   2.9451   2.9451
     3.0021   3.0021   3.1225   3.1225   4.2883   4.2883   5.1840   5.1840
    10.7299  10.7299

          k = 0.0000-0.5000-0.5000 (  5112 PWs)   bands (ev):

     2.2889   2.2889   2.2890   2.2890   2.5045   2.5045   2.5046   2.5046
     2.7270   2.7272   2.7272   2.7272   2.8845   2.8845   2.8846   2.8846
     3.0480   3.0481   3.0481   3.0481   4.6991   4.6991   4.6991   4.6992
    11.1573  11.1574

          k = 0.0833 0.0833 0.0833 (  5098 PWs)   bands (ev):

     0.6618   1.9484   1.9485   1.9485   1.9997   1.9997   1.9997   2.5569
     2.5987   2.5987   3.0124   3.0124   3.3263   3.3263   3.3264   3.3931
     3.3931   3.3931   3.4643   3.4643   3.4643   6.7222   6.7222   6.7223
     8.9469   8.9469

          k = 0.0833 0.0833 0.1667 (  5124 PWs)   bands (ev):

     0.7988   1.9799   1.9881   1.9881   2.0305   2.0672   2.0672   2.5338
     2.6283   2.6305   2.9831   3.0338   3.2499   3.2499   3.2863   3.3121
     3.3121   3.3281   3.4335   3.4581   3.4581   5.7834   6.8262   6.8262
     9.0396   9.0396

          k = 0.0833 0.0833 0.2500 (  5125 PWs)   bands (ev):

     1.0216   2.0246   2.0591   2.0591   2.0793   2.1651   2.1651   2.4868
     2.6824   2.6833   2.9464   3.0679   3.0878   3.0878   3.2205   3.2254
     3.2402   3.2402   3.3894   3.4540   3.4540   4.9281   6.9508   6.9508
     9.2057   9.2057

          k = 0.0833 0.0833 0.3333 (  5125 PWs)   bands (ev):

     1.3174   2.0684   2.1401   2.1573   2.1574   2.2801   2.2801   2.4246
     2.7358   2.7526   2.8977   2.8977   2.9392   3.0899   3.1125   3.1341
     3.1578   3.1578   3.3372   3.4517   3.4517   4.1889   7.0555   7.0556
     9.4428   9.4428

          k = 0.0833 0.0833 0.4167 (  5117 PWs)   bands (ev):

     1.6530   2.0717   2.2065   2.2664   2.2664   2.3530   2.3956   2.3956
     2.7106   2.7106   2.7513   2.8381   2.9299   3.0290   3.0358   3.0804
     3.0805   3.1650   3.2805   3.4505   3.4506   3.6102   7.1199   7.1200
     9.7055   9.7056

          k = 0.0833 0.0833-0.5000 (  5116 PWs)   bands (ev):

     1.9426   1.9427   2.2783   2.2783   2.3245   2.3246   2.4852   2.4852
     2.5834   2.5835   2.7950   2.7951   2.9345   2.9345   3.0459   3.0460
     3.2220   3.2221   3.2358   3.2359   3.4502   3.4502   7.1410   7.1410
     9.8450   9.8451

          k = 0.0833 0.1667 0.1667 (  5134 PWs)   bands (ev):

     0.9304   2.0039   2.0165   2.0166   2.1000   2.1000   2.1497   2.5321
     2.6405   2.6531   2.9808   3.0397   3.1701   3.1701   3.2029   3.2347
     3.2810   3.2811   3.4315   3.4315   3.4362   5.9408   5.9409   6.9023
     9.1036  10.0367

          k = 0.0833 0.1667 0.2500 (  5118 PWs)   bands (ev):

     1.1429   2.0530   2.0568   2.0848   2.1523   2.1987   2.2547   2.5027
     2.6826   2.6894   2.9586   2.9963   3.0575   3.0627   3.0811   3.1836
     3.2093   3.2332   3.3949   3.4180   3.4196   5.1172   6.1591   6.9787
     9.2069   9.9538

          k = 0.0833 0.1667 0.3333 (  5113 PWs)   bands (ev):

     1.4217   2.0970   2.1335   2.1814   2.2165   2.3108   2.3656   2.4528
     2.7147   2.7447   2.8142   2.8854   2.9303   2.9723   3.1129   3.1189
     3.1446   3.1640   3.3464   3.4065   3.4091   4.3992   6.4000   7.0071
     9.3311   9.8310

          k = 0.0833 0.1667 0.4167 (  5126 PWs)   bands (ev):

     1.7323   2.1051   2.2390   2.2789   2.2955   2.3938   2.4019   2.4486
     2.6623   2.7006   2.7223   2.7887   2.8205   3.0092   3.0569   3.0718
     3.0875   3.2374   3.2834   3.4010   3.4027   3.8246   6.6316   6.9571
     9.4495   9.6913

          k = 0.0833 0.1667-0.5000 (  5108 PWs)   bands (ev):

     1.9945   1.9946   2.3348   2.3349   2.3405   2.3406   2.4410   2.4410
     2.6253   2.6253   2.7011   2.7011   2.9096   2.9096   3.0396   3.0396
     3.1978   3.1978   3.4000   3.4001   3.4333   3.4334   6.8259   6.8259
     9.5629   9.5629

          k = 0.0833 0.2500 0.2500 (  5119 PWs)   bands (ev):

     1.3359   2.0781   2.1197   2.1198   2.2537   2.2538   2.3592   2.5074
     2.7009   2.7051   2.8823   2.8823   2.9480   2.9792   3.1174   3.1409
     3.1821   3.1821   3.3765   3.3765   3.3803   5.3808   5.3808   6.9658
     9.2016  10.6430

          k = 0.0833 0.2500 0.3333 (  5117 PWs)   bands (ev):

     1.5824   2.1342   2.1523   2.2104   2.3238   2.3643   2.4591   2.4877
     2.7111   2.7132   2.7453   2.7573   2.8556   2.9596   3.0603   3.0952
     3.1349   3.2446   3.3240   3.3512   3.3530   4.6832   5.6863   6.8557
     9.2237  10.2411

          k = 0.0833 0.2500 0.4167 (  5119 PWs)   bands (ev):

     1.8459   2.1550   2.2192   2.3219   2.3906   2.4151   2.4550   2.5063
     2.6212   2.6484   2.6734   2.7391   2.8103   2.9935   3.0144   3.0424
     3.0706   3.2528   3.3344   3.3363   3.4051   4.1039   6.0122   6.6347
     9.3325   9.8618

          k = 0.0833 0.2500-0.5000 (  5114 PWs)   bands (ev):

     2.0611   2.0611   2.3257   2.3257   2.4264   2.4264   2.4414   2.4415
     2.6248   2.6248   2.6670   2.6670   2.8947   2.8947   3.0158   3.0158
     3.1563   3.1563   3.3299   3.3299   3.6757   3.6757   6.3385   6.3386
     9.5496   9.5497

          k = 0.0833 0.3333 0.3333 (  5122 PWs)   bands (ev):

     1.7761   2.1609   2.2290   2.2290   2.4392   2.4393   2.5087   2.5377
     2.6133   2.6133   2.7265   2.7595   2.8048   2.9461   2.9999   3.0655
     3.0655   3.2895   3.2895   3.3004   3.4022   5.0142   5.0142   6.5689
     9.2445  10.6912

          k = 0.0833 0.3333 0.4167 (  5120 PWs)   bands (ev):

     1.9688   2.2109   2.2132   2.3051   2.4496   2.5085   2.5253   2.5405
     2.5465   2.6185   2.6992   2.7643   2.8043   2.9575   2.9735   3.0024
     3.0194   3.2103   3.2608   3.2646   3.6300   4.4303   5.3821   6.1885
     9.4281  10.1757

          k = 0.0833 0.3333-0.5000 (  5128 PWs)   bands (ev):

     2.1234   2.1235   2.2836   2.2836   2.4765   2.4765   2.5068   2.5068
     2.6216   2.6216   2.7138   2.7138   2.8808   2.8808   2.9683   2.9684
     3.1089   3.1090   3.2509   3.2509   3.9651   3.9651   5.7794   5.7794
     9.7476   9.7477

          k = 0.0833 0.4167 0.4167 (  5125 PWs)   bands (ev):

     2.0794   2.2230   2.2481   2.2481   2.4888   2.4889   2.5253   2.5430
     2.6603   2.6604   2.7637   2.7962   2.7979   2.9022   2.9436   2.9436
     3.0036   3.1747   3.1747   3.2036   3.9257   4.8049   4.8049   5.7007
     9.6965  10.6027

          k = 0.0833 0.4167-0.5000 (  5142 PWs)   bands (ev):

     2.1716   2.1716   2.2431   2.2432   2.5060   2.5060   2.5156   2.5156
     2.7247   2.7248   2.7681   2.7681   2.8621   2.8622   2.9036   2.9036
     3.0781   3.0781   3.1691   3.1691   4.3147   4.3147   5.2305   5.2305
    10.0958  10.0958

          k = 0.0833-0.5000-0.5000 (  5144 PWs)   bands (ev):

     2.2081   2.2081   2.2082   2.2082   2.5164   2.5165   2.5165   2.5165
     2.8142   2.8143   2.8143   2.8143   2.8353   2.8353   2.8353   2.8353
     3.0994   3.0994   3.0994   3.0994   4.7363   4.7363   4.7363   4.7364
    10.5610  10.5610

          k = 0.1667 0.1667 0.1667 (  5125 PWs)   bands (ev):

     1.0534   2.0271   2.0272   2.0272   2.1850   2.1851   2.1851   2.5514
     2.6533   2.6533   3.0170   3.0170   3.1296   3.1296   3.1297   3.1748
     3.1748   3.1748   3.4356   3.4356   3.4356   6.0823   6.0823   6.0823
     9.8828   9.8829

          k = 0.1667 0.1667 0.2500 (  5115 PWs)   bands (ev):

     1.2496   2.0583   2.0707   2.0707   2.2421   2.2895   2.2896   2.5467
     2.6782   2.6815   2.9801   2.9801   2.9997   3.0165   3.0712   3.0955
     3.1357   3.1357   3.4204   3.4211   3.4211   5.2873   6.2781   6.2781
     9.6235   9.6235

          k = 0.1667 0.1667 0.3333 (  5121 PWs)   bands (ev):

     1.5007   2.0849   2.1452   2.1452   2.3153   2.3917   2.3917   2.5167
     2.7039   2.7175   2.8234   2.8234   2.8763   3.0083   3.0447   3.0894
     3.0894   3.1369   3.3874   3.4007   3.4008   4.5760   6.4847   6.4848
     9.3203   9.3204

          k = 0.1667 0.1667 0.4167 (  5128 PWs)   bands (ev):

     1.7686   2.0792   2.2454   2.2454   2.3918   2.4336   2.4336   2.4820
     2.6789   2.7226   2.7226   2.7367   2.7722   2.9213   3.0338   3.0338
     3.2073   3.2156   3.3381   3.3853   3.3854   3.9803   6.6501   6.6501
     9.0740   9.0741

          k = 0.1667 0.1667-0.5000 (  5108 PWs)   bands (ev):

     1.9832   1.9833   2.3475   2.3475   2.3700   2.3701   2.4483   2.4483
     2.6621   2.6621   2.7095   2.7095   2.8411   2.8411   3.0037   3.0037
     3.2763   3.2763   3.3799   3.3799   3.5247   3.5247   6.7155   6.7155
     8.9779   8.9780

          k = 0.1667 0.2500 0.2500 (  5124 PWs)   bands (ev):

     1.4151   2.0865   2.0913   2.0913   2.3469   2.3470   2.3885   2.5917
     2.6788   2.6946   2.8773   2.8773   2.9257   3.0124   3.0468   3.0598
     3.0598   3.1162   3.4055   3.4133   3.4133   5.5337   5.5337   6.4340
     9.1911  10.0558

          k = 0.1667 0.2500 0.3333 (  5115 PWs)   bands (ev):

     1.6173   2.1007   2.1308   2.1518   2.4237   2.4348   2.4662   2.5951
     2.7000   2.7211   2.7541   2.7655   2.8364   2.9708   2.9982   3.0299
     3.0518   3.2162   3.3799   3.3869   3.3886   4.8371   5.8255   6.5619
     8.8129   9.5209

          k = 0.1667 0.2500 0.4167 (  5122 PWs)   bands (ev):

     1.8212   2.0751   2.1984   2.2285   2.4340   2.4659   2.5129   2.5875
     2.6660   2.6836   2.7358   2.7455   2.7988   2.8828   2.9582   2.9883
     3.1673   3.3392   3.3572   3.3627   3.3970   4.2287   6.1322   6.5697
     8.6361   9.0584

          k = 0.1667 0.2500-0.5000 (  5116 PWs)   bands (ev):

     1.9841   1.9842   2.2620   2.2620   2.4101   2.4101   2.5965   2.5965
     2.6130   2.6131   2.7863   2.7863   2.8057   2.8057   2.9484   2.9484
     3.2685   3.2685   3.3500   3.3500   3.7381   3.7381   6.4068   6.4068
     8.7351   8.7352

          k = 0.1667 0.3333 0.3333 (  5119 PWs)   bands (ev):

     1.7518   2.1370   2.1370   2.1380   2.4892   2.4892   2.5066   2.6152
     2.6971   2.7040   2.7041   2.8056   2.8526   2.9237   2.9521   2.9521
     3.0411   3.3484   3.3608   3.3608   3.3801   5.1588   5.1589   6.5215
     8.5151   9.8757

          k = 0.1667 0.3333 0.4167 (  5107 PWs)   bands (ev):

     1.8842   2.0868   2.1619   2.1759   2.4640   2.4915   2.5396   2.5993
     2.6963   2.7145   2.7595   2.8281   2.8742   2.8760   2.8810   2.9329
     3.1187   3.3090   3.3176   3.3270   3.6399   4.5488   5.5257   6.2829
     8.5424   9.2999

          k = 0.1667 0.3333-0.5000 (  5116 PWs)   bands (ev):

     1.9997   1.9997   2.1853   2.1853   2.4567   2.4568   2.5738   2.5738
     2.7215   2.7215   2.8209   2.8210   2.8325   2.8325   2.9079   2.9079
     3.2276   3.2276   3.3074   3.3074   4.0326   4.0326   5.9170   5.9170
     8.8371   8.8371

          k = 0.1667 0.4167 0.4167 (  5114 PWs)   bands (ev):

     1.9539   2.1043   2.1043   2.1374   2.5017   2.5083   2.5083   2.5823
     2.7159   2.7676   2.7676   2.8229   2.9054   2.9054   2.9378   2.9397
     3.1044   3.2689   3.2689   3.2723   3.9703   4.9319   4.9320   5.8431
     8.7573   9.7059

          k = 0.1667 0.4167-0.5000 (  5108 PWs)   bands (ev):

     2.0282   2.0282   2.1205   2.1205   2.4999   2.4999   2.5509   2.5509
     2.7400   2.7400   2.7930   2.7930   2.9310   2.9311   2.9511   2.9511
     3.1842   3.1842   3.2482   3.2482   4.4040   4.4040   5.3711   5.3711
     9.1665   9.1666

          k = 0.1667-0.5000-0.5000 (  5116 PWs)   bands (ev):

     2.0684   2.0684   2.0684   2.0684   2.5311   2.5311   2.5311   2.5311
     2.7537   2.7537   2.7538   2.7538   2.9865   2.9866   2.9866   2.9866
     3.1868   3.1868   3.1868   3.1868   4.8542   4.8542   4.8542   4.8543
     9.6431   9.6432

          k = 0.2500 0.2500 0.2500 (  5136 PWs)   bands (ev):

     1.5332   2.0893   2.0894   2.0894   2.4360   2.4361   2.4361   2.6662
     2.6662   2.7407   2.8547   2.8547   2.8547   2.9625   2.9625   2.9625
     3.0926   3.0926   3.4178   3.4179   3.4179   5.7610   5.7610   5.7610
     9.4009   9.4010

          k = 0.2500 0.2500 0.3333 (  5102 PWs)   bands (ev):

     1.6714   2.0724   2.1106   2.1106   2.4810   2.4811   2.4961   2.6468
     2.6709   2.7905   2.8220   2.8220   2.8535   2.8781   2.9260   2.9260
     3.1646   3.1767   3.3995   3.3996   3.4090   5.0789   6.0290   6.0290
     8.7997   8.7998

          k = 0.2500 0.2500 0.4167 (  5103 PWs)   bands (ev):

     1.8097   2.0213   2.1440   2.1440   2.4589   2.4590   2.5548   2.6224
     2.6955   2.7620   2.8021   2.8379   2.8392   2.8392   2.9115   2.9115
     3.2564   3.3736   3.3736   3.3774   3.4599   4.4490   6.2795   6.2795
     8.3411   8.3411

          k = 0.2500 0.2500-0.5000 (  5104 PWs)   bands (ev):

     1.9311   1.9311   2.1629   2.1630   2.4351   2.4351   2.5953   2.5954
     2.7399   2.7399   2.7860   2.7861   2.8648   2.8648   2.8999   2.8999
     3.3252   3.3252   3.3610   3.3610   3.9019   3.9019   6.3944   6.3944
     8.1555   8.1556

          k = 0.2500 0.3333 0.3333 (  5101 PWs)   bands (ev):

     1.7404   2.0633   2.0633   2.0866   2.4951   2.5067   2.5067   2.6401
     2.6523   2.8027   2.8028   2.8395   2.8816   2.8816   2.9118   3.0483
     3.1376   3.3552   3.3871   3.3987   3.3987   5.3917   5.3917   6.2392
     8.2029   9.0642

          k = 0.2500 0.3333 0.4167 (  5109 PWs)   bands (ev):

     1.8206   1.9916   2.0657   2.0758   2.4841   2.4844   2.5409   2.6127
     2.6637   2.7494   2.7874   2.7976   2.9058   2.9585   2.9815   3.0276
     3.2369   3.3629   3.3714   3.3728   3.7052   4.7610   5.7529   6.3136
     7.8926   8.4608

          k = 0.2500 0.3333-0.5000 (  5116 PWs)   bands (ev):

     1.9069   1.9069   2.0707   2.0707   2.4737   2.4737   2.5779   2.5779
     2.6979   2.6979   2.7841   2.7841   2.9622   2.9622   3.0037   3.0037
     3.3199   3.3199   3.3523   3.3523   4.1887   4.1887   6.1088   6.1088
     8.0205   8.0206

          k = 0.2500 0.4167 0.4167 (  5111 PWs)   bands (ev):

     1.8551   1.9836   1.9836   2.0261   2.5033   2.5235   2.5235   2.5972
     2.6517   2.7231   2.7231   2.7419   3.0297   3.0297   3.0676   3.1542
     3.2002   3.3350   3.3426   3.3426   4.0906   5.1534   5.1535   6.0495
     7.9093   8.8308

          k = 0.2500 0.4167-0.5000 (  5112 PWs)   bands (ev):

     1.9109   1.9109   1.9953   1.9953   2.5135   2.5135   2.5644   2.5644
     2.6745   2.6745   2.7182   2.7182   3.0954   3.0954   3.1024   3.1025
     3.2822   3.2822   3.3184   3.3184   4.5839   4.5839   5.6043   5.6044
     8.2796   8.2797

          k = 0.2500-0.5000-0.5000 (  5116 PWs)   bands (ev):

     1.9411   1.9411   1.9411   1.9411   2.5456   2.5457   2.5457   2.5457
     2.6790   2.6790   2.6790   2.6790   3.1565   3.1565   3.1565   3.1565
     3.2695   3.2695   3.2695   3.2695   5.0674   5.0674   5.0674   5.0674
     8.7499   8.7499

          k = 0.3333 0.3333 0.3333 (  5082 PWs)   bands (ev):

     1.7526   2.0108   2.0109   2.0109   2.5098   2.5099   2.5099   2.6290
     2.6290   2.7614   2.7614   2.7615   2.9777   2.9777   2.9777   3.2275
     3.2275   3.4044   3.4044   3.4044   3.4977   5.6962   5.6962   5.6963
     8.3312   8.3313

          k = 0.3333 0.3333 0.4167 (  5119 PWs)   bands (ev):

     1.7901   1.9271   1.9797   1.9797   2.5057   2.5057   2.5401   2.6054
     2.6290   2.6974   2.7223   2.7223   3.0483   3.0782   3.0782   3.1877
     3.3042   3.3876   3.3876   3.3961   3.9362   5.0722   6.0257   6.0257
     7.7400   7.7401

          k = 0.3333 0.3333-0.5000 (  5104 PWs)   bands (ev):

     1.8502   1.8502   1.9694   1.9694   2.5026   2.5026   2.5743   2.5744
     2.6522   2.6523   2.7100   2.7100   3.1204   3.1205   3.1210   3.1210
     3.3619   3.3619   3.3739   3.3739   4.4721   4.4721   6.2076   6.2077
     7.4701   7.4702

          k = 0.3333 0.4167 0.4167 (  5098 PWs)   bands (ev):

     1.7938   1.8940   1.8940   1.9212   2.5235   2.5376   2.5376   2.5974
     2.6083   2.6627   2.6627   2.6727   3.1647   3.1647   3.1788   3.2829
     3.2992   3.3781   3.3856   3.3856   4.3527   5.4711   5.4711   6.1755
     7.3189   8.0320

          k = 0.3333 0.4167-0.5000 (  5110 PWs)   bands (ev):

     1.8298   1.8298   1.8922   1.8922   2.5335   2.5335   2.5704   2.5704
     2.6234   2.6234   2.6529   2.6529   3.2202   3.2202   3.2382   3.2382
     3.3542   3.3542   3.3670   3.3670   4.8823   4.8823   5.9087   5.9087
     7.4968   7.4969

          k = 0.3333-0.5000-0.5000 (  5092 PWs)   bands (ev):

     1.8446   1.8446   1.8446   1.8446   2.5591   2.5591   2.5591   2.5592
     2.6210   2.6210   2.6211   2.6211   3.2874   3.2875   3.2875   3.2875
     3.3354   3.3354   3.3354   3.3355   5.3859   5.3859   5.3859   5.3860
     7.9308   7.9308

          k = 0.4167 0.4167 0.4167 (  5085 PWs)   bands (ev):

     1.7718   1.8391   1.8391   1.8391   2.5486   2.5487   2.5487   2.5885
     2.5885   2.6218   2.6218   2.6218   3.2669   3.2669   3.2669   3.3461
     3.3461   3.3954   3.3954   3.3954   4.7715   5.8577   5.8577   5.8578
     7.3537   7.3537

          k = 0.4167 0.4167-0.5000 (  5094 PWs)   bands (ev):

     1.7877   1.7877   1.8206   1.8206   2.5534   2.5534   2.5716   2.5716
     2.5931   2.5931   2.6071   2.6071   3.3129   3.3129   3.3265   3.3266
     3.3846   3.3846   3.3873   3.3873   5.3000   5.3001   6.1173   6.1174
     6.9966   6.9967

          k = 0.4167-0.5000-0.5000 (  5100 PWs)   bands (ev):

     1.7850   1.7850   1.7850   1.7850   2.5687   2.5688   2.5688   2.5688
     2.5846   2.5846   2.5846   2.5847   3.3663   3.3663   3.3663   3.3663
     3.3777   3.3777   3.3777   3.3777   5.7921   5.7922   5.7922   5.7922
     7.2224   7.2225

          k =-0.5000-0.5000-0.5000 (  5040 PWs)   bands (ev):

     1.7649   1.7649   1.7649   1.7649   2.5722   2.5722   2.5722   2.5723
     2.5723   2.5723   2.5723   2.5723   3.3923   3.3923   3.3923   3.3923
     3.3923   3.3923   3.3923   3.3923   6.0910   6.0910   6.0910   6.0911
     6.8230   6.8230

     the Fermi energy is     6.1799 ev

!    total energy              =   -3100.59523331 Ry

     total all-electron energy =   -152095.979598 Ry
     estimated scf accuracy    <       0.00000019 Ry
     smearing contrib. (-TS)   =      -0.87694266 Ry
     internal energy E=F+TS    =   -3099.71829066 Ry

     The total energy is F=E-TS. E is the sum of the following terms:
     one-electron contribution =     -24.03100450 Ry
     hartree contribution      =      54.95943689 Ry
     xc contribution           =    -127.09875457 Ry
     ewald contribution        =    -233.62051065 Ry
     one-center paw contrib.   =   -2769.92745783 Ry

     convergence has been achieved in  18 iterations

     Forces acting on atoms (cartesian axes, Ry/au):

     atom    1 type  1   force =     0.00000000    0.00000000   -0.00000000
     atom    2 type  1   force =     0.00000000   -0.00000000    0.00000000
     atom    3 type  1   force =     0.00000000    0.00000000    0.00000000
     atom    4 type  1   force =     0.00000000    0.00000000    0.00000000

     Total force =     0.000000     Total SCF correction =     0.000000

     Writing all to output data dir ./pwscf.save/
 
     init_run     :      1.19s CPU      2.05s WALL (       1 calls)
     electrons    :     54.73s CPU     56.84s WALL (       1 calls)
     forces       :      0.25s CPU      0.32s WALL (       1 calls)

     Called by init_run:
     wfcinit      :      0.93s CPU      0.95s WALL (       1 calls)
     potinit      :      0.06s CPU      0.51s WALL (       1 calls)
     hinit0       :      0.05s CPU      0.29s WALL (       1 calls)

     Called by electrons:
     c_bands      :     47.69s CPU     48.36s WALL (      19 calls)
     sum_band     :      5.65s CPU      5.81s WALL (      19 calls)
     v_of_rho     :      0.22s CPU      1.70s WALL (      19 calls)
     newd         :      0.28s CPU      0.47s WALL (      19 calls)
     PAW_pot      :      1.03s CPU      1.04s WALL (      19 calls)
     mix_rho      :      0.02s CPU      0.02s WALL (      19 calls)

     Called by c_bands:
     init_us_2    :      0.34s CPU      0.34s WALL (    3360 calls)
     init_us_2:cp :      0.33s CPU      0.34s WALL (    3360 calls)
     cegterg      :     45.18s CPU     45.80s WALL (    1596 calls)

     Called by *egterg:
     cdiaghg      :      8.77s CPU      8.86s WALL (    6240 calls)
     h_psi        :     29.06s CPU     29.52s WALL (    6408 calls)
     s_psi        :      1.19s CPU      1.21s WALL (    6408 calls)
     g_psi        :      0.12s CPU      0.12s WALL (    4728 calls)

     Called by h_psi:
     h_psi:calbec :      1.77s CPU      1.80s WALL (    6408 calls)
     vloc_psi     :     26.02s CPU     26.43s WALL (    6408 calls)
     add_vuspsi   :      1.20s CPU      1.22s WALL (    6408 calls)

     General routines
     calbec       :      2.44s CPU      2.47s WALL (    8340 calls)
     fft          :      0.44s CPU      2.44s WALL (     221 calls)
     ffts         :      0.01s CPU      0.05s WALL (      19 calls)
     fftw         :     28.87s CPU     29.32s WALL (  294364 calls)
 
     Parallel routines
 
     PWSCF        :     58.09s CPU   1m 3.50s WALL

 
   This run was terminated on:  12:36:55   5Apr2024            

=------------------------------------------------------------------------------=
   JOB DONE.
=------------------------------------------------------------------------------=
