MPI startup(): Warning: I_MPI_PMI_LIBRARY will be ignored since the hydra process manager was found
MPI startup(): Warning: I_MPI_PMI_LIBRARY will be ignored since the hydra process manager was found
MPI startup(): Warning: I_MPI_PMI_LIBRARY will be ignored since the hydra process manager was found
MPI startup(): Warning: I_MPI_PMI_LIBRARY will be ignored since the hydra process manager was found
MPI startup(): Warning: I_MPI_PMI_LIBRARY will be ignored since the hydra process manager was found
MPI startup(): Warning: I_MPI_PMI_LIBRARY will be ignored since the hydra process manager was found
MPI startup(): Warning: I_MPI_PMI_LIBRARY will be ignored since the hydra process manager was found
MPI startup(): Warning: I_MPI_PMI_LIBRARY will be ignored since the hydra process manager was found
MPI startup(): Warning: I_MPI_PMI_LIBRARY will be ignored since the hydra process manager was found
MPI startup(): Warning: I_MPI_PMI_LIBRARY will be ignored since the hydra process manager was found

     Program PWSCF v.7.0 starts on  5Apr2024 at 12:35:51 

     This program is part of the open-source Quantum ESPRESSO suite
     for quantum simulation of materials; please cite
         "P. Giannozzi et al., J. Phys.:Condens. Matter 21 395502 (2009);
         "P. Giannozzi et al., J. Phys.:Condens. Matter 29 465901 (2017);
         "P. Giannozzi et al., J. Chem. Phys. 152 154105 (2020);
          URL http://www.quantum-espresso.org", 
     in publications or presentations arising from this work. More details at
     http://www.quantum-espresso.org/quote

     Parallel version (MPI), running on    10 processors

     MPI processes distributed on     1 nodes
     R & G space division:  proc/nbgrp/npool/nimage =      10
     224725 MiB available memory on the printing compute node when the environment starts
 
     Reading input from VolumeFCC_5.7.in
Warning: card &CELL ignored
Warning: card / ignored

     Current dimensions of program PWSCF are:
     Max number of different atomic species (ntypx) = 10
     Max number of k-points (npk) =  40000
     Max angular momentum in pseudopotentials (lmaxx) =  4
     file Au.pbe-n-kjpaw_psl.1.0.0.UPF: wavefunction(s)  6S 5D renormalized
     Found identity + (  0.5000  0.5000  0.0000) symmetry
     This is a supercell, fractional translations are disabled
     Message from routine setup:
     using ibrav=0 with symmetry is DISCOURAGED, use correct ibrav instead

     Subspace diagonalization in iterative solution of the eigenvalue problem:
     one sub-group per band group will be used
     scalapack distributed-memory algorithm (size of sub-group:  3*  3 procs)

 
     Parallelization info
     --------------------
     sticks:   dense  smooth     PW     G-vecs:    dense   smooth      PW
     Min          51      51     16                  882      882     157
     Max          53      53     18                  883      883     159
     Sum         517     517    169                 8829     8829    1575
 
     Using Slab Decomposition
 


     bravais-lattice index     =            0
     lattice parameter (alat)  =       5.6992  a.u.
     unit-cell volume          =     185.1125 (a.u.)^3
     number of atoms/cell      =            4
     number of atomic types    =            1
     number of electrons       =        44.00
     number of Kohn-Sham states=           26
     kinetic-energy cutoff     =      50.0000  Ry
     charge density cutoff     =     200.0000  Ry
     scf convergence threshold =      1.0E-06
     mixing beta               =       0.7000
     number of iterations used =            8  plain     mixing
     Exchange-correlation= SLA  PW   PBX  PBC
                           (   1   4   3   4   0   0   0)

     celldm(1)=   5.699174  celldm(2)=   0.000000  celldm(3)=   0.000000
     celldm(4)=   0.000000  celldm(5)=   0.000000  celldm(6)=   0.000000

     crystal axes: (cart. coord. in units of alat)
               a(1) = (   1.000000   0.000000   0.000000 )  
               a(2) = (   0.000000   1.000000   0.000000 )  
               a(3) = (   0.000000   0.000000   1.000000 )  

     reciprocal axes: (cart. coord. in units 2 pi/alat)
               b(1) = (  1.000000  0.000000  0.000000 )  
               b(2) = (  0.000000  1.000000  0.000000 )  
               b(3) = (  0.000000  0.000000  1.000000 )  


     PseudoPot. # 1 for Au read from file:
     ./Au.pbe-n-kjpaw_psl.1.0.0.UPF
     MD5 check sum: 4db85c736373c707a97ce4c36c2a9d23
     Pseudo is Projector augmented-wave + core cor, Zval = 11.0
     Generated using &quot;atomic&quot; code by A. Dal Corso  v.6.3
     Shape of augmentation charge: PSQ
     Using radial grid of 1279 points,  6 beta functions with: 
                l(1) =   0
                l(2) =   0
                l(3) =   1
                l(4) =   1
                l(5) =   2
                l(6) =   2
     Q(r) pseudized with 0 coefficients 


     atomic species   valence    mass     pseudopotential
        Au            11.00   196.96657     Au( 1.00)

     48 Sym. Ops., with inversion, found



   Cartesian axes

     site n.     atom                  positions (alat units)
         1           Au  tau(   1) = (   0.0000000   0.0000000   0.0000000  )
         2           Au  tau(   2) = (   0.5000000   0.5000000   0.0000000  )
         3           Au  tau(   3) = (   0.5000000   0.0000000   0.5000000  )
         4           Au  tau(   4) = (   0.0000000   0.5000000   0.5000000  )

     number of k points=    84  Gaussian smearing, width (Ry)=  0.2000
                       cart. coord. in units 2pi/alat
        k(    1) = (   0.0000000   0.0000000   0.0000000), wk =   0.0011574
        k(    2) = (   0.0000000   0.0000000   0.0833333), wk =   0.0069444
        k(    3) = (   0.0000000   0.0000000   0.1666667), wk =   0.0069444
        k(    4) = (   0.0000000   0.0000000   0.2500000), wk =   0.0069444
        k(    5) = (   0.0000000   0.0000000   0.3333333), wk =   0.0069444
        k(    6) = (   0.0000000   0.0000000   0.4166667), wk =   0.0069444
        k(    7) = (   0.0000000   0.0000000  -0.5000000), wk =   0.0034722
        k(    8) = (   0.0000000   0.0833333   0.0833333), wk =   0.0138889
        k(    9) = (   0.0000000   0.0833333   0.1666667), wk =   0.0277778
        k(   10) = (   0.0000000   0.0833333   0.2500000), wk =   0.0277778
        k(   11) = (   0.0000000   0.0833333   0.3333333), wk =   0.0277778
        k(   12) = (   0.0000000   0.0833333   0.4166667), wk =   0.0277778
        k(   13) = (   0.0000000   0.0833333  -0.5000000), wk =   0.0138889
        k(   14) = (   0.0000000   0.1666667   0.1666667), wk =   0.0138889
        k(   15) = (   0.0000000   0.1666667   0.2500000), wk =   0.0277778
        k(   16) = (   0.0000000   0.1666667   0.3333333), wk =   0.0277778
        k(   17) = (   0.0000000   0.1666667   0.4166667), wk =   0.0277778
        k(   18) = (   0.0000000   0.1666667  -0.5000000), wk =   0.0138889
        k(   19) = (   0.0000000   0.2500000   0.2500000), wk =   0.0138889
        k(   20) = (   0.0000000   0.2500000   0.3333333), wk =   0.0277778
        k(   21) = (   0.0000000   0.2500000   0.4166667), wk =   0.0277778
        k(   22) = (   0.0000000   0.2500000  -0.5000000), wk =   0.0138889
        k(   23) = (   0.0000000   0.3333333   0.3333333), wk =   0.0138889
        k(   24) = (   0.0000000   0.3333333   0.4166667), wk =   0.0277778
        k(   25) = (   0.0000000   0.3333333  -0.5000000), wk =   0.0138889
        k(   26) = (   0.0000000   0.4166667   0.4166667), wk =   0.0138889
        k(   27) = (   0.0000000   0.4166667  -0.5000000), wk =   0.0138889
        k(   28) = (   0.0000000  -0.5000000  -0.5000000), wk =   0.0034722
        k(   29) = (   0.0833333   0.0833333   0.0833333), wk =   0.0092593
        k(   30) = (   0.0833333   0.0833333   0.1666667), wk =   0.0277778
        k(   31) = (   0.0833333   0.0833333   0.2500000), wk =   0.0277778
        k(   32) = (   0.0833333   0.0833333   0.3333333), wk =   0.0277778
        k(   33) = (   0.0833333   0.0833333   0.4166667), wk =   0.0277778
        k(   34) = (   0.0833333   0.0833333  -0.5000000), wk =   0.0138889
        k(   35) = (   0.0833333   0.1666667   0.1666667), wk =   0.0277778
        k(   36) = (   0.0833333   0.1666667   0.2500000), wk =   0.0555556
        k(   37) = (   0.0833333   0.1666667   0.3333333), wk =   0.0555556
        k(   38) = (   0.0833333   0.1666667   0.4166667), wk =   0.0555556
        k(   39) = (   0.0833333   0.1666667  -0.5000000), wk =   0.0277778
        k(   40) = (   0.0833333   0.2500000   0.2500000), wk =   0.0277778
        k(   41) = (   0.0833333   0.2500000   0.3333333), wk =   0.0555556
        k(   42) = (   0.0833333   0.2500000   0.4166667), wk =   0.0555556
        k(   43) = (   0.0833333   0.2500000  -0.5000000), wk =   0.0277778
        k(   44) = (   0.0833333   0.3333333   0.3333333), wk =   0.0277778
        k(   45) = (   0.0833333   0.3333333   0.4166667), wk =   0.0555556
        k(   46) = (   0.0833333   0.3333333  -0.5000000), wk =   0.0277778
        k(   47) = (   0.0833333   0.4166667   0.4166667), wk =   0.0277778
        k(   48) = (   0.0833333   0.4166667  -0.5000000), wk =   0.0277778
        k(   49) = (   0.0833333  -0.5000000  -0.5000000), wk =   0.0069444
        k(   50) = (   0.1666667   0.1666667   0.1666667), wk =   0.0092593
        k(   51) = (   0.1666667   0.1666667   0.2500000), wk =   0.0277778
        k(   52) = (   0.1666667   0.1666667   0.3333333), wk =   0.0277778
        k(   53) = (   0.1666667   0.1666667   0.4166667), wk =   0.0277778
        k(   54) = (   0.1666667   0.1666667  -0.5000000), wk =   0.0138889
        k(   55) = (   0.1666667   0.2500000   0.2500000), wk =   0.0277778
        k(   56) = (   0.1666667   0.2500000   0.3333333), wk =   0.0555556
        k(   57) = (   0.1666667   0.2500000   0.4166667), wk =   0.0555556
        k(   58) = (   0.1666667   0.2500000  -0.5000000), wk =   0.0277778
        k(   59) = (   0.1666667   0.3333333   0.3333333), wk =   0.0277778
        k(   60) = (   0.1666667   0.3333333   0.4166667), wk =   0.0555556
        k(   61) = (   0.1666667   0.3333333  -0.5000000), wk =   0.0277778
        k(   62) = (   0.1666667   0.4166667   0.4166667), wk =   0.0277778
        k(   63) = (   0.1666667   0.4166667  -0.5000000), wk =   0.0277778
        k(   64) = (   0.1666667  -0.5000000  -0.5000000), wk =   0.0069444
        k(   65) = (   0.2500000   0.2500000   0.2500000), wk =   0.0092593
        k(   66) = (   0.2500000   0.2500000   0.3333333), wk =   0.0277778
        k(   67) = (   0.2500000   0.2500000   0.4166667), wk =   0.0277778
        k(   68) = (   0.2500000   0.2500000  -0.5000000), wk =   0.0138889
        k(   69) = (   0.2500000   0.3333333   0.3333333), wk =   0.0277778
        k(   70) = (   0.2500000   0.3333333   0.4166667), wk =   0.0555556
        k(   71) = (   0.2500000   0.3333333  -0.5000000), wk =   0.0277778
        k(   72) = (   0.2500000   0.4166667   0.4166667), wk =   0.0277778
        k(   73) = (   0.2500000   0.4166667  -0.5000000), wk =   0.0277778
        k(   74) = (   0.2500000  -0.5000000  -0.5000000), wk =   0.0069444
        k(   75) = (   0.3333333   0.3333333   0.3333333), wk =   0.0092593
        k(   76) = (   0.3333333   0.3333333   0.4166667), wk =   0.0277778
        k(   77) = (   0.3333333   0.3333333  -0.5000000), wk =   0.0138889
        k(   78) = (   0.3333333   0.4166667   0.4166667), wk =   0.0277778
        k(   79) = (   0.3333333   0.4166667  -0.5000000), wk =   0.0277778
        k(   80) = (   0.3333333  -0.5000000  -0.5000000), wk =   0.0069444
        k(   81) = (   0.4166667   0.4166667   0.4166667), wk =   0.0092593
        k(   82) = (   0.4166667   0.4166667  -0.5000000), wk =   0.0138889
        k(   83) = (   0.4166667  -0.5000000  -0.5000000), wk =   0.0069444
        k(   84) = (  -0.5000000  -0.5000000  -0.5000000), wk =   0.0011574

     Dense  grid:     8829 G-vectors     FFT dimensions: (  25,  25,  25)

     Estimated max dynamical RAM per process >       8.13 MB

     Estimated total dynamical RAM >      81.25 MB

     Initial potential from superposition of free atoms

     starting charge      43.9996, renormalised to      44.0000
     Starting wfcs are   36 randomized atomic wfcs
     Checking if some PAW data can be deallocated... 

     total cpu time spent up to now is        0.8 secs

     Self-consistent Calculation

     iteration #  1     ecut=    50.00 Ry     beta= 0.70
     Davidson diagonalization with overlap
     ethr =  1.00E-02,  avg # of iterations =  6.4

     Threshold (ethr) on eigenvalues was too large:
     Diagonalizing with lowered threshold

     Davidson diagonalization with overlap
     ethr =  8.45E-04,  avg # of iterations =  5.3

     total cpu time spent up to now is        4.0 secs

     total energy              =   -3093.08270787 Ry
     estimated scf accuracy    <       0.27332557 Ry

     iteration #  2     ecut=    50.00 Ry     beta= 0.70
     Davidson diagonalization with overlap
     ethr =  6.21E-04,  avg # of iterations =  3.5

     total cpu time spent up to now is        5.3 secs

     total energy              =   -3093.15997960 Ry
     estimated scf accuracy    <       0.01905542 Ry

     iteration #  3     ecut=    50.00 Ry     beta= 0.70
     Davidson diagonalization with overlap
     c_bands:  1 eigenvalues not converged
     c_bands:  1 eigenvalues not converged
     c_bands:  1 eigenvalues not converged
     ethr =  4.33E-05,  avg # of iterations =  7.6

     total cpu time spent up to now is        7.4 secs

     total energy              =   -3093.17536086 Ry
     estimated scf accuracy    <       0.00202331 Ry

     iteration #  4     ecut=    50.00 Ry     beta= 0.70
     Davidson diagonalization with overlap
     c_bands:  1 eigenvalues not converged
     c_bands:  1 eigenvalues not converged
     c_bands:  1 eigenvalues not converged
     c_bands:  1 eigenvalues not converged
     c_bands:  1 eigenvalues not converged
     c_bands:  1 eigenvalues not converged
     c_bands:  1 eigenvalues not converged
     c_bands:  2 eigenvalues not converged
     c_bands:  1 eigenvalues not converged
     c_bands:  1 eigenvalues not converged
     c_bands:  1 eigenvalues not converged
     ethr =  4.60E-06,  avg # of iterations =  7.5

     total cpu time spent up to now is        9.4 secs

     total energy              =   -3093.17602545 Ry
     estimated scf accuracy    <       0.00060566 Ry

     iteration #  5     ecut=    50.00 Ry     beta= 0.70
     Davidson diagonalization with overlap
     c_bands:  1 eigenvalues not converged
     c_bands:  1 eigenvalues not converged
     c_bands:  1 eigenvalues not converged
     c_bands:  1 eigenvalues not converged
     ethr =  1.38E-06,  avg # of iterations =  5.7

     total cpu time spent up to now is       10.9 secs

     total energy              =   -3093.17619328 Ry
     estimated scf accuracy    <       0.00000443 Ry

     iteration #  6     ecut=    50.00 Ry     beta= 0.70
     Davidson diagonalization with overlap
     c_bands:  1 eigenvalues not converged
     ethr =  1.01E-08,  avg # of iterations = 10.9

     total cpu time spent up to now is       14.3 secs

     total energy              =   -3093.17620565 Ry
     estimated scf accuracy    <       0.00001411 Ry

     iteration #  7     ecut=    50.00 Ry     beta= 0.70
     Davidson diagonalization with overlap
     ethr =  1.01E-08,  avg # of iterations =  4.8

     total cpu time spent up to now is       16.3 secs

     End of self-consistent calculation

          k = 0.0000 0.0000 0.0000 (  1141 PWs)   bands (ev):

    26.3826  26.3831  26.3831  26.4540  27.2740  27.2740  27.2740  35.3015
    35.3015  35.3015  42.0322  42.0322  47.4974  47.4974  47.4977  49.1669
    49.1669  49.1669  49.1673  49.1673  49.1673  50.6800  50.6800  50.6800
    61.1614  64.1402

          k = 0.0000 0.0000 0.0833 (  1097 PWs)   bands (ev):

    26.5427  26.5714  26.5717  26.6837  27.3723  27.4855  27.4855  35.0886
    35.4549  35.4549  41.7520  42.1086  47.0356  47.0356  47.0583  47.0584
    47.3809  48.6709  48.6709  49.1687  49.1691  49.9721  52.7644  52.7644
    61.5802  63.9744

          k = 0.0000 0.0000 0.1667 (  1109 PWs)   bands (ev):

    27.0093  27.1171  27.1174  27.3479  27.6606  28.1095  28.1095  34.4945
    35.9113  35.9113  40.9739  42.3351  44.3059  44.3059  45.8511  45.8511
    47.0452  47.3929  47.3929  48.1396  49.1732  49.1736  55.3422  55.3422
    63.6654  63.6676

          k = 0.0000 0.0000 0.2500 (  1117 PWs)   bands (ev):

    27.7496  27.9591  27.9593  28.1345  28.3589  29.1308  29.1308  33.6273
    36.6596  36.6596  39.8848  41.5999  41.5999  42.7031  44.1615  44.1615
    45.7113  45.7113  45.7180  46.5307  49.1793  49.1797  57.7642  57.7642
    63.4630  63.4634

          k = 0.0000 0.0000 0.3333 (  1113 PWs)   bands (ev):

    28.6918  28.7827  28.9646  28.9648  29.5123  30.5223  30.5223  32.6096
    37.6826  37.6826  38.8138  38.9899  38.9899  42.3665  42.3666  43.1398
    43.1980  43.8994  43.8994  45.8919  49.1855  49.1859  59.9113  59.9113
    63.4083  63.4089

          k = 0.0000 0.0000 0.4167 (  1108 PWs)   bands (ev):

    29.5871  29.6833  29.8707  29.8708  30.3734  31.5481  32.2473  32.2473
    36.5283  36.5283  38.3061  38.9555  38.9555  40.7522  40.9157  40.9158
    42.1141  42.1141  43.7983  45.1881  49.1904  49.1908  61.6747  61.6747
    63.4357  63.4366

          k = 0.0000 0.0000-0.5000 (  1108 PWs)   bands (ev):

    30.2596  30.2597  30.4062  30.4064  30.5218  30.5220  34.2648  34.2648
    34.2649  34.2649  38.9683  38.9683  40.3338  40.3339  40.4466  40.4466
    40.4467  40.4467  44.4744  44.4744  49.1921  49.1925  62.9674  62.9675
    62.9678  62.9682

          k = 0.0000 0.0833 0.0833 (  1101 PWs)   bands (ev):

    26.7123  26.7308  26.7311  26.9050  27.5806  27.5806  27.7347  35.0070
    35.4870  35.5978  41.6613  42.0187  46.0881  46.2677  46.2677  46.6701
    47.2208  47.2209  48.6716  48.6716  48.8582  52.0966  52.0969  53.9817
    61.9829  62.7692

          k = 0.0000 0.0833 0.1667 (  1110 PWs)   bands (ev):

    27.1539  27.1985  27.2776  27.5455  27.8635  28.1993  28.4404  34.4959
    35.8869  36.0155  40.9872  42.2128  43.6358  43.9104  44.9163  45.5781
    46.0348  46.8946  47.3910  48.6733  48.6893  50.4347  54.6642  56.1964
    61.7671  63.1475

          k = 0.0000 0.0833 0.2500 (  1118 PWs)   bands (ev):

    27.8998  27.9415  28.1212  28.3286  28.5243  29.2114  29.5182  33.6728
    36.6264  36.6561  39.9953  40.9937  41.4147  42.6307  43.1744  44.0051
    44.4248  45.7053  46.1101  48.4498  48.6506  48.6748  57.0214  58.4780
    61.1765  63.7902

          k = 0.0000 0.0833 0.3333 (  1114 PWs)   bands (ev):

    28.8755  28.8868  28.9638  29.1278  29.6549  30.5890  30.8796  32.6929
    37.2691  37.6502  38.4865  38.9090  39.2738  41.2499  42.3021  42.6595
    43.2073  43.8883  44.7256  46.8129  48.6474  48.6745  58.9504  60.5640
    60.9276  63.8404

          k = 0.0000 0.0833 0.4167 (  1111 PWs)   bands (ev):

    29.7513  29.8513  29.8818  30.0236  30.5310  31.6638  32.2948  32.4396
    36.1955  36.5086  37.3788  38.9272  39.3772  39.7910  40.9339  41.1564
    42.0972  42.9204  43.9175  45.6729  48.6549  48.6710  60.1891  60.8504
    62.3043  64.3794

          k = 0.0000 0.0833-0.5000 (  1120 PWs)   bands (ev):

    30.3549  30.3550  30.5975  30.5976  30.6641  30.6643  34.1850  34.1851
    34.2847  34.2848  37.9333  37.9333  40.4237  40.4238  40.4591  40.4593
    41.1826  41.1826  44.7401  44.7402  48.6638  48.6642  60.7126  60.7127
    63.5928  63.5931

          k = 0.0000 0.1667 0.1667 (  1113 PWs)   bands (ev):

    27.4007  27.7486  27.7488  28.1190  28.4665  28.4666  29.2715  34.3046
    36.0379  36.3080  40.7416  42.1906  42.2682  42.2683  42.6821  44.7675
    45.9957  45.9957  47.3852  47.3852  47.9721  52.9988  52.9990  58.0554
    60.0807  64.1840

          k = 0.0000 0.1667 0.2500 (  1109 PWs)   bands (ev):

    27.9640  28.4988  28.5985  28.9041  29.0042  29.4509  30.4164  33.7251
    36.6316  36.6814  39.7332  40.0552  40.6632  40.8009  42.6761  43.5065
    44.6397  45.4175  45.6882  47.3750  47.5697  50.9712  55.2962  59.0121
    60.1606  64.6293

          k = 0.0000 0.1667 0.3333 (  1104 PWs)   bands (ev):

    28.8266  29.4572  29.4999  29.6101  30.0611  30.7861  31.7159  32.9013
    36.7636  37.4125  37.6047  38.6342  39.0119  39.6733  42.0615  43.0475
    43.5059  43.8579  44.3322  47.3606  47.4011  49.0100  57.0656  58.5183
    62.1729  64.4901

          k = 0.0000 0.1667 0.4167 (  1109 PWs)   bands (ev):

    29.8524  30.2334  30.4663  30.4740  30.9723  31.9866  32.4319  32.9594
    35.4531  36.3773  36.4327  37.4988  38.8693  40.2519  40.9153  41.5581
    42.0535  42.9213  44.5698  47.2967  47.3432  47.3447  58.0604  58.4005
    63.8998  64.9962

          k = 0.0000 0.1667-0.5000 (  1106 PWs)   bands (ev):

    30.6159  30.6160  31.0765  31.0767  31.1545  31.1546  34.0487  34.0487
    34.3357  34.3358  36.4710  36.4711  40.3694  40.3694  40.6849  40.6850
    41.4634  41.4635  45.8310  45.8311  47.3340  47.3342  58.3727  58.3729
    65.2097  65.2104

          k = 0.0000 0.2500 0.2500 (  1111 PWs)   bands (ev):

    28.3289  29.3629  29.3630  29.7492  29.8402  29.8403  31.5664  33.5705
    36.7259  36.9370  38.3091  38.3091  39.6672  39.6753  42.6401  43.3214
    44.3253  44.3253  45.6629  45.6630  46.6214  53.2642  53.2645  57.5257
    62.1829  65.8549

          k = 0.0000 0.2500 0.3333 (  1102 PWs)   bands (ev):

    29.0184  30.3496  30.3652  30.3909  30.6684  31.1023  32.7680  33.1071
    36.2207  36.4848  36.9169  37.7025  38.0772  39.3699  41.5465  42.9789
    43.4418  43.8185  44.4955  45.6364  46.0428  51.2558  55.0775  56.7635
    64.1882  65.2057

          k = 0.0000 0.2500 0.4167 (  1110 PWs)   bands (ev):

    29.9765  31.0011  31.1908  31.3970  31.5842  32.4437  32.6410  33.7007
    34.6552  35.7121  35.7278  36.2479  38.8674  39.8336  40.6794  41.6235
    42.0063  42.1958  45.6227  45.7600  45.9610  49.3672  56.1474  56.5415
    65.2256  65.9604

          k = 0.0000 0.2500-0.5000 (  1104 PWs)   bands (ev):

    30.9650  30.9652  31.7125  31.7127  32.0086  32.0087  34.0709  34.0710
    34.3881  34.3882  35.1752  35.1753  40.3295  40.3295  40.6813  40.6814
    40.8909  40.8909  45.6479  45.6481  47.6005  47.6007  56.4969  56.4972
    65.8439  65.8442

          k = 0.0000 0.3333 0.3333 (  1095 PWs)   bands (ev):

    29.5092  31.3889  31.4245  31.4246  31.5168  31.5168  33.1336  33.8275
    35.0951  35.0951  36.2573  37.1481  38.1543  38.8223  40.7688  42.2948
    42.2948  43.7906  43.7907  44.9601  46.0038  53.1895  53.1897  55.7790
    65.5154  66.2457

          k = 0.0000 0.3333 0.4167 (  1106 PWs)   bands (ev):

    30.2984  31.9957  32.0847  32.1470  32.5832  32.8896  32.9018  34.0279
    34.1664  34.5341  35.5075  35.8668  38.9773  39.0687  40.0957  41.0958
    41.1612  42.0003  43.8110  44.2828  47.7413  51.3697  54.5320  55.3980
    65.5162  65.7026

          k = 0.0000 0.3333-0.5000 (  1102 PWs)   bands (ev):

    31.3192  31.3193  32.4852  32.4853  32.8604  32.8604  34.3458  34.3458
    34.3868  34.3869  34.4141  34.4141  39.9196  39.9196  40.1920  40.1921
    40.3889  40.3889  43.9420  43.9421  49.5537  49.5539  55.1678  55.1681
    65.5830  65.5840

          k = 0.0000 0.4167 0.4167 (  1101 PWs)   bands (ev):

    30.8607  32.4869  32.7459  32.7459  33.1237  33.1237  33.2019  33.9761
    33.9761  35.1767  35.2015  35.4720  38.4187  39.3839  39.6435  40.0694
    40.0694  42.1103  42.1103  43.1506  49.6105  53.0203  53.0204  54.7636
    65.6609  65.7528

          k = 0.0000 0.4167-0.5000 (  1102 PWs)   bands (ev):

    31.6813  31.6815  32.6936  32.6937  33.2605  33.2605  34.2476  34.2477
    34.8159  34.8160  35.0132  35.0132  38.9415  38.9415  39.2923  39.2924
    40.6767  40.6767  42.4495  42.4495  51.3978  51.3980  54.1240  54.1244
    65.5731  65.5741

          k = 0.0000-0.5000-0.5000 (  1092 PWs)   bands (ev):

    32.1328  32.1328  32.1328  32.1329  33.8802  33.8802  33.8803  33.8804
    35.3739  35.3739  35.3739  35.3740  38.5913  38.5914  38.5914  38.5914
    41.3389  41.3389  41.3390  41.3390  52.9405  52.9407  52.9407  52.9412
    65.8263  65.8269

          k = 0.0833 0.0833 0.0833 (  1099 PWs)   bands (ev):

    26.8677  26.8681  26.8681  27.1152  27.8319  27.8320  27.8320  34.9508
    35.6182  35.6182  41.7611  41.7611  45.5910  45.5910  45.5910  46.3337
    46.3337  46.3339  48.6935  48.6936  48.6936  53.2413  53.2413  53.2416
    62.3632  63.3877

          k = 0.0833 0.0833 0.1667 (  1102 PWs)   bands (ev):

    27.3035  27.3037  27.3216  27.7238  28.1241  28.5379  28.5379  34.5236
    35.9582  36.0082  41.0556  42.0570  43.3529  43.3529  44.2836  45.4202
    45.4302  45.4303  48.2327  48.5189  48.5191  51.3860  55.4076  55.4077
    62.3426  62.3429

          k = 0.0833 0.0833 0.2500 (  1110 PWs)   bands (ev):

    28.0233  28.0462  28.0464  28.6214  28.6538  29.6091  29.6091  33.7638
    36.5847  36.6464  40.1433  40.8669  40.8669  42.5172  42.5375  44.0896
    44.0897  44.1410  47.5438  48.3579  48.3582  49.0181  57.6240  57.6240
    61.6803  61.6803

          k = 0.0833 0.0833 0.3333 (  1107 PWs)   bands (ev):

    28.8532  29.0232  29.0234  29.3604  29.7271  30.9492  30.9492  32.8506
    37.0539  37.5164  38.4512  38.4512  39.6747  40.5910  42.4938  42.4939
    42.6991  43.1835  46.5439  46.7015  48.2722  48.2724  59.5212  59.5212
    61.4003  61.4005

          k = 0.0833 0.0833 0.4167 (  1108 PWs)   bands (ev):

    29.6827  29.9998  29.9999  30.2983  30.5285  31.9329  32.4489  32.4489
    36.2473  36.2473  36.9872  38.5944  38.7697  40.4777  41.1030  41.1031
    41.2376  43.9664  44.1961  45.7799  48.2349  48.2352  60.6505  60.6505
    61.5478  61.5482

          k = 0.0833 0.0833-0.5000 (  1116 PWs)   bands (ev):

    30.4221  30.4221  30.4571  30.4573  31.1592  31.1592  33.7154  33.7155
    34.7185  34.7186  37.4215  37.4216  39.8490  39.8491  40.5185  40.5186
    42.1224  42.1225  44.8482  44.8483  48.2247  48.2250  60.8579  60.8579
    61.8403  61.8406

          k = 0.0833 0.1667 0.1667 (  1106 PWs)   bands (ev):

    27.5375  27.7357  27.7359  28.2397  28.8350  28.8350  29.3727  34.4181
    36.0866  36.2610  40.9242  41.9864  42.0730  42.0730  42.2683  44.3075
    44.7340  44.7340  48.0863  48.0863  48.1342  53.4946  53.4948  57.0749
    60.7106  63.8511

          k = 0.0833 0.1667 0.2500 (  1108 PWs)   bands (ev):

    28.0915  28.3914  28.4668  29.0282  29.3524  29.8875  30.5069  33.9492
    36.5594  36.6477  39.6729  40.3150  40.4000  40.4920  42.5254  43.2106
    43.5348  43.8600  47.3643  47.6769  47.6900  51.1661  55.6606  58.7533
    59.8846  62.9817

          k = 0.0833 0.1667 0.3333 (  1106 PWs)   bands (ev):

    28.9500  29.1530  29.4492  29.9377  30.1240  31.1608  31.7666  33.2694
    36.6656  37.3706  37.4563  38.3078  38.8393  40.1524  41.9805  42.1327
    42.6158  43.3946  46.2023  47.3605  47.3684  48.9374  57.4201  58.9048
    60.9477  62.5341

          k = 0.0833 0.1667 0.4167 (  1115 PWs)   bands (ev):

    29.9018  29.9820  30.4362  30.6008  31.0944  32.4535  32.6130  32.8577
    35.6936  36.2439  36.3740  37.3254  38.3209  40.7347  40.8846  41.0750
    41.3216  44.4675  44.5440  47.1347  47.1922  47.2045  58.4563  58.8230
    62.0858  62.4988

          k = 0.0833 0.1667-0.5000 (  1116 PWs)   bands (ev):

    30.5133  30.5134  30.7342  30.7343  31.9939  31.9939  33.2571  33.2572
    35.1372  35.1372  36.3086  36.3087  39.4475  39.4476  40.5704  40.5705
    42.6898  42.6898  45.7023  45.7024  47.1491  47.1493  58.7914  58.7916
    62.5384  62.5388

          k = 0.0833 0.2500 0.2500 (  1108 PWs)   bands (ev):

    28.4404  29.0955  29.0956  29.5998  30.3816  30.3816  31.6329  33.9918
    36.6778  36.7656  38.2933  38.2933  39.4029  40.0723  42.1593  42.9884
    42.9885  43.1543  46.7880  46.7880  46.9740  53.3802  53.3805  57.8200
    61.0691  64.6887

          k = 0.0833 0.2500 0.3333 (  1112 PWs)   bands (ev):

    29.1152  29.7991  30.0843  30.2634  31.1438  31.5397  32.7532  33.7743
    36.3601  36.4463  36.9387  37.2927  37.9506  40.0202  41.1698  41.7187
    42.1574  44.3356  45.5744  46.2557  46.3549  51.1878  55.1916  57.0680
    62.5806  63.9090

          k = 0.0833 0.2500 0.4167 (  1110 PWs)   bands (ev):

    30.0678  30.4276  30.7867  31.1250  32.1517  32.3911  33.4006  33.4927
    35.2158  35.6774  35.7802  36.5104  38.0876  40.3668  40.3888  40.8694
    41.1267  44.0185  45.7986  45.9304  45.9632  49.2140  56.3164  56.8231
    63.4852  63.6255

          k = 0.0833 0.2500-0.5000 (  1108 PWs)   bands (ev):

    30.8373  30.8373  31.0797  31.0798  33.0069  33.0070  33.0941  33.0941
    35.1850  35.1850  35.5161  35.5162  39.1239  39.1239  40.3399  40.3400
    42.3418  42.3419  45.8312  45.8313  47.4315  47.4317  56.7330  56.7333
    63.6668  63.6672

          k = 0.0833 0.3333 0.3333 (  1106 PWs)   bands (ev):

    29.5755  30.6553  30.7471  30.7471  32.1792  32.1792  33.6355  34.1039
    35.3769  35.3769  36.2990  37.3101  37.3596  39.8270  40.2828  41.1410
    41.1411  44.9523  44.9523  45.4402  45.8348  53.1275  53.1276  55.9958
    63.8564  64.4102

          k = 0.0833 0.3333 0.4167 (  1104 PWs)   bands (ev):

    30.3305  31.0323  31.1763  31.9088  32.2980  33.1795  33.8728  34.1846
    34.6458  35.0409  35.6056  36.6148  37.8135  39.6282  39.8989  40.3698
    40.4572  43.4107  44.5414  44.7644  47.5679  51.2220  54.5094  55.5332
    64.3326  64.5460

          k = 0.0833 0.3333-0.5000 (  1104 PWs)   bands (ev):

    31.2574  31.2575  31.3262  31.3263  33.1055  33.1056  34.2676  34.2677
    34.4179  34.4180  35.8883  35.8883  38.7215  38.7215  39.6763  39.6764
    41.8031  41.8031  44.4609  44.4610  49.3811  49.3813  55.2197  55.2200
    64.3490  64.3494

          k = 0.0833 0.4167 0.4167 (  1097 PWs)   bands (ev):

    30.8045  31.2833  31.8264  31.8265  33.0487  33.0487  33.9263  34.2391
    35.2079  35.2079  35.9403  36.6833  37.6170  38.8737  39.2842  39.2842
    40.6277  43.0391  43.0392  43.7411  49.4335  52.8900  52.8901  54.7756
    64.5632  64.7398

          k = 0.0833 0.4167-0.5000 (  1098 PWs)   bands (ev):

    31.4563  31.4564  31.5432  31.5433  33.4248  33.4249  33.8300  33.8301
    35.6497  35.6497  36.2747  36.2747  38.2109  38.2109  38.7394  38.7395
    41.6068  41.6068  43.1235  43.1236  51.2278  51.2280  54.0448  54.0452
    64.7473  64.7477

          k = 0.0833-0.5000-0.5000 (  1100 PWs)   bands (ev):

    31.5588  31.5588  31.5588  31.5590  33.6541  33.6541  33.6541  33.6542
    36.4455  36.4455  36.4456  36.4456  38.0054  38.0055  38.0055  38.0055
    42.0655  42.0655  42.0656  42.0656  52.7934  52.7935  52.7935  52.7940
    65.0320  65.0324

          k = 0.1667 0.1667 0.1667 (  1093 PWs)   bands (ev):

    27.9279  27.9281  27.9281  28.5902  29.6830  29.6830  29.6830  34.6040
    36.2472  36.2472  41.1773  41.1773  41.1773  41.4490  41.4490  43.2561
    43.2561  43.2561  48.3019  48.3019  48.3019  54.8487  54.8487  54.8489
    62.2502  62.2504

          k = 0.1667 0.1667 0.2500 (  1110 PWs)   bands (ev):

    28.4515  28.4516  28.5084  29.1258  30.2258  30.7869  30.7869  34.5056
    36.4660  36.5509  39.4154  39.4155  39.7146  40.8845  42.0051  42.2572
    42.3870  42.3871  47.8841  47.8842  48.1365  52.1413  56.5362  56.5363
    61.1245  61.1248

          k = 0.1667 0.1667 0.3333 (  1103 PWs)   bands (ev):

    29.1684  29.2936  29.2937  29.7336  31.0296  31.9232  31.9232  34.1539
    36.4427  37.0273  37.5650  37.5650  38.1603  40.7455  40.9994  41.5492
    41.5492  43.2733  47.2986  47.2988  47.5697  49.3415  58.0345  58.0348
    60.5112  60.5115

          k = 0.1667 0.1667 0.4167 (  1110 PWs)   bands (ev):

    29.7767  30.1754  30.3458  30.3458  32.0605  32.5775  32.5776  33.7709
    35.9053  36.2973  36.2973  36.7614  37.6921  39.5741  40.6430  40.6430
    42.2370  44.4138  46.6555  46.6778  46.8778  46.8780  59.0152  59.0156
    60.2689  60.2691

          k = 0.1667 0.1667-0.5000 (  1120 PWs)   bands (ev):

    30.1806  30.1807  31.0657  31.0658  32.4350  32.4351  33.1121  33.1121
    35.8544  35.8545  36.0092  36.0093  38.5458  38.5458  40.1821  40.1822
    44.2300  44.2300  45.5846  45.5848  46.7347  46.7349  59.3462  59.3467
    60.2155  60.2158

          k = 0.1667 0.2500 0.2500 (  1100 PWs)   bands (ev):

    28.7465  28.9705  28.9705  29.3333  31.2852  31.2852  31.8397  35.0195
    36.4708  36.5328  38.1990  38.1990  38.7217  41.0325  41.1114  41.2547
    41.2548  42.7186  47.6044  47.8145  47.8145  53.8055  53.8056  57.2570
    60.2523  62.9719

          k = 0.1667 0.2500 0.3333 (  1106 PWs)   bands (ev):

    29.3676  29.5145  29.6362  29.7586  32.0459  32.2147  32.7256  35.1273
    36.3430  36.7454  36.7743  37.0016  37.6709  40.0488  40.2919  40.6881
    41.2620  43.9216  46.9935  47.1056  47.2214  51.1226  55.4207  57.3263
    60.5551  62.0766

          k = 0.1667 0.2500 0.4167 (  1108 PWs)   bands (ev):

    29.9237  29.9372  30.2786  30.8074  32.2828  32.8298  33.0792  35.0668
    35.5852  36.0117  36.3409  37.0496  37.2408  38.9255  39.6638  40.0265
    42.4337  45.3614  45.9746  46.4267  46.4832  48.7992  56.5646  57.2486
    61.0493  61.5574

          k = 0.1667 0.2500-0.5000 (  1108 PWs)   bands (ev):

    30.0728  30.0729  31.3622  31.3623  31.9781  31.9782  34.2851  34.2852
    35.3953  35.3953  36.7816  36.7817  37.9740  37.9740  39.4949  39.4950
    44.2042  44.2042  46.2242  46.2243  46.9467  46.9468  57.1041  57.1044
    61.3056  61.3060

          k = 0.1667 0.3333 0.3333 (  1104 PWs)   bands (ev):

    29.6953  29.7154  30.1451  30.1451  32.7279  32.7279  33.2415  35.5076
    36.1872  36.1872  36.5419  36.6486  37.7077  39.2651  39.6096  39.6096
    41.2601  45.3644  46.4024  46.4542  46.4543  52.9444  52.9446  56.2742
    61.4731  62.5886

          k = 0.1667 0.3333 0.4167 (  1095 PWs)   bands (ev):

    29.8830  30.2568  30.3150  30.9057  32.4898  33.1032  33.5248  35.1874
    35.9406  36.3861  36.5265  37.0043  37.7574  38.5409  38.6486  39.1535
    42.0527  45.1958  45.7588  45.7706  47.0710  50.7889  54.3416  55.6729
    62.0966  62.9064

          k = 0.1667 0.3333-0.5000 (  1108 PWs)   bands (ev):

    30.1162  30.1163  31.0045  31.0046  32.4753  32.4754  34.4508  34.4508
    36.0525  36.0525  37.3818  37.3818  37.6368  37.6368  38.6790  38.6791
    43.5652  43.5652  45.4840  45.4841  48.8746  48.8748  55.1843  55.1846
    62.4613  62.4619

          k = 0.1667 0.4167 0.4167 (  1098 PWs)   bands (ev):

    29.9893  30.4711  30.5817  30.5818  33.2236  33.2674  33.2674  34.8153
    36.6204  36.7591  36.7592  37.5338  37.8762  38.2337  38.3089  38.3089
    42.1534  44.5746  44.5746  44.9479  48.9131  52.4623  52.4624  54.6337
    62.7792  63.6049

          k = 0.1667 0.4167-0.5000 (  1100 PWs)   bands (ev):

    30.2340  30.2342  30.6407  30.6408  33.1705  33.1706  34.1373  34.1374
    36.7840  36.7840  37.4165  37.4165  37.8310  37.8310  38.3065  38.3065
    43.1618  43.1619  44.4374  44.4375  50.7105  50.7108  53.7052  53.7055
    63.2262  63.2265

          k = 0.1667-0.5000-0.5000 (  1092 PWs)   bands (ev):

    30.3977  30.3977  30.3977  30.3979  33.7533  33.7533  33.7533  33.7534
    37.0071  37.0071  37.0071  37.0071  38.2968  38.2968  38.2969  38.2969
    43.4619  43.4619  43.4619  43.4620  52.3095  52.3097  52.3097  52.3100
    63.4259  63.4264

          k = 0.2500 0.2500 0.2500 (  1093 PWs)   bands (ev):

    29.1553  29.1554  29.1554  29.1726  32.2167  32.2167  32.2167  36.1987
    36.2952  36.2952  37.8742  37.8742  37.8742  39.9378  39.9378  39.9378
    42.2786  42.2786  47.9976  47.9977  47.9977  54.5859  54.5859  54.5859
    61.6954  61.6961

          k = 0.2500 0.2500 0.3333 (  1110 PWs)   bands (ev):

    29.1877  29.5050  29.6406  29.6406  32.7738  32.7738  32.8171  35.9340
    36.3314  36.9299  37.1194  37.4321  37.4321  38.8304  39.2656  39.2657
    42.4680  43.6575  47.4942  47.4943  47.9184  51.6012  55.4566  55.4568
    61.0021  61.0025

          k = 0.2500 0.2500 0.4167 (  1110 PWs)   bands (ev):

    29.3473  29.6414  30.3520  30.3521  32.5327  32.5327  33.6591  35.4122
    36.6080  36.6559  36.8415  37.5614  37.5614  37.8776  38.8308  38.8308
    43.8316  45.0488  46.8295  46.8296  47.3288  48.7016  56.0869  56.0873
    60.7232  60.7237

          k = 0.2500 0.2500-0.5000 (  1106 PWs)   bands (ev):

    29.5485  29.5486  30.8871  30.8872  32.0645  32.0646  34.6133  34.6133
    36.5826  36.5827  37.1278  37.1278  37.9787  37.9787  38.4526  38.4526
    46.0448  46.0448  46.3223  46.3225  46.5304  46.5305  56.3125  56.3129
    60.6505  60.6510

          k = 0.2500 0.3333 0.3333 (  1106 PWs)   bands (ev):

    28.9900  29.7229  29.7229  29.7405  33.0249  33.0846  33.0846  35.8554
    35.9739  37.3249  37.3249  38.1621  38.1813  38.2239  38.3423  38.3424
    42.8048  44.7336  47.2759  47.5121  47.5121  52.7260  52.7260  55.2035
    60.8709  61.1372

          k = 0.2500 0.3333 0.4167 (  1097 PWs)   bands (ev):

    29.0316  29.5419  29.9840  30.0315  32.8679  32.9126  33.7313  35.3010
    36.1039  37.0440  37.4109  37.6011  37.9686  38.5296  38.6667  38.8898
    43.7294  46.3404  46.7198  46.8009  46.8157  50.1728  53.8057  54.9052
    61.1468  61.8284

          k = 0.2500 0.3333-0.5000 (  1096 PWs)   bands (ev):

    29.2528  29.2529  30.1617  30.1618  32.7317  32.7317  34.5425  34.5425
    36.4997  36.4998  37.4236  37.4236  38.2354  38.2354  39.0660  39.0660
    45.3766  45.3767  46.4394  46.4395  48.0854  48.0856  54.5154  54.5157
    61.4618  61.4622

          k = 0.2500 0.4167 0.4167 (  1095 PWs)   bands (ev):

    28.9812  29.5552  29.5553  29.7525  33.2509  33.5975  33.5975  35.0648
    35.8387  36.6960  36.6960  36.8816  39.1852  39.1852  39.6442  39.7472
    43.7527  46.0658  46.0659  46.1849  48.0977  51.6842  51.6843  53.8344
    61.1873  61.7900

          k = 0.2500 0.4167-0.5000 (  1090 PWs)   bands (ev):

    29.1712  29.1713  29.6252  29.6253  33.4569  33.4570  34.4097  34.4097
    36.1071  36.1072  36.5917  36.5917  39.6834  39.6835  39.9340  39.9340
    44.7848  44.7849  45.7814  45.7815  49.8502  49.8504  52.8681  52.8684
    62.1511  62.1523

          k = 0.2500-0.5000-0.5000 (  1104 PWs)   bands (ev):

    29.2951  29.2951  29.2951  29.2954  34.0726  34.0726  34.0726  34.0727
    36.1050  36.1050  36.1050  36.1051  40.3101  40.3101  40.3102  40.3102
    44.9429  44.9429  44.9429  44.9431  51.4069  51.4071  51.4071  51.4074
    61.9999  62.0001

          k = 0.3333 0.3333 0.3333 (  1112 PWs)   bands (ev):

    28.5952  29.4819  29.4819  29.4820  33.2672  33.2672  33.2672  35.6789
    35.6789  37.2164  37.2164  37.2164  38.8126  38.8126  38.8126  39.8423
    44.3576  44.3576  47.7406  47.7406  47.7406  52.7187  52.7189  52.7189
    60.3599  61.7710

          k = 0.3333 0.3333 0.4167 (  1097 PWs)   bands (ev):

    28.5050  29.0567  29.3800  29.3801  33.3058  33.3058  33.8814  35.2491
    35.6636  36.4505  36.6840  36.6840  39.4586  39.9491  39.9491  40.5018
    45.1932  45.7899  47.2998  47.2999  47.6309  49.9515  52.9367  52.9369
    60.3212  61.6549

          k = 0.3333 0.3333-0.5000 (  1088 PWs)   bands (ev):

    28.6840  28.6841  29.3561  29.3563  33.2954  33.2955  34.6109  34.6109
    35.9250  35.9250  36.5160  36.5161  40.1112  40.1112  40.4456  40.4456
    46.9393  46.9395  46.9863  46.9864  47.3195  47.3196  53.0606  53.0609
    61.6806  61.6825

          k = 0.3333 0.4167 0.4167 (  1098 PWs)   bands (ev):

    28.3050  28.8002  28.8004  28.9603  33.6960  33.9601  33.9602  35.1698
    35.3207  35.9710  35.9710  36.0548  40.9289  40.9289  41.1722  41.8510
    45.2721  47.1295  47.1352  47.2070  47.2071  50.6729  50.6730  52.1356
    60.1585  61.6255

          k = 0.3333 0.4167-0.5000 (  1096 PWs)   bands (ev):

    28.4160  28.4162  28.7684  28.7686  33.9229  33.9230  34.6390  34.6390
    35.5027  35.5027  35.8120  35.8120  41.6491  41.6491  41.7405  41.7405
    46.2860  46.2862  46.8546  46.8547  48.7307  48.7309  51.4647  51.4650
    60.6972  60.6975

          k = 0.3333-0.5000-0.5000 (  1096 PWs)   bands (ev):

    28.4475  28.4475  28.4475  28.4479  34.4452  34.4452  34.4452  34.4453
    35.4214  35.4214  35.4214  35.4215  42.3277  42.3277  42.3277  42.3278
    46.2541  46.2541  46.2541  46.2543  50.0936  50.0937  50.0937  50.0939
    61.1502  61.1503

          k = 0.4167 0.4167 0.4167 (  1088 PWs)   bands (ev):

    27.9774  28.3395  28.3395  28.3397  34.2644  34.2644  34.2644  35.0838
    35.0838  35.4612  35.4612  35.4612  42.4788  42.4788  42.4788  43.6268
    46.5389  46.5389  47.5675  47.5676  47.5676  49.9518  49.9520  49.9520
    59.8993  61.5832

          k = 0.4167 0.4167-0.5000 (  1078 PWs)   bands (ev):

    27.9959  27.9961  28.1848  28.1850  34.3964  34.3965  34.7682  34.7682
    35.1322  35.1323  35.2682  35.2682  43.2012  43.2012  43.5652  43.5652
    47.3573  47.3575  47.3716  47.3717  47.7627  47.7627  49.8298  49.8300
    60.4145  60.4148

          k = 0.4167-0.5000-0.5000 (  1080 PWs)   bands (ev):

    27.9203  27.9203  27.9203  27.9207  34.7426  34.7426  34.7426  34.7427
    34.9991  34.9991  34.9992  34.9992  44.2153  44.2153  44.2154  44.2155
    47.1731  47.1731  47.1732  47.1734  48.5564  48.5565  48.5565  48.5567
    60.8399  60.8400

          k =-0.5000-0.5000-0.5000 (  1088 PWs)   bands (ev):

    27.7414  27.7414  27.7414  27.7418  34.8566  34.8566  34.8566  34.8566
    34.8566  34.8566  34.8567  34.8567  45.3673  45.3673  45.3673  45.3675
    47.5065  47.5065  47.5065  47.5066  47.5066  47.5066  47.5069  47.5069
    60.8018  60.8018

     the Fermi energy is    52.3257 ev

!    total energy              =   -3093.17620935 Ry

     total all-electron energy =   -152088.560574 Ry
     estimated scf accuracy    <       0.00000010 Ry
     smearing contrib. (-TS)   =      -0.14832272 Ry
     internal energy E=F+TS    =   -3093.02788663 Ry

     The total energy is F=E-TS. E is the sum of the following terms:
     one-electron contribution =     196.95055501 Ry
     hartree contribution      =       9.12077736 Ry
     xc contribution           =    -136.73929447 Ry
     ewald contribution        =    -389.36751774 Ry
     one-center paw contrib.   =   -2772.99240679 Ry

     convergence has been achieved in   7 iterations

     Forces acting on atoms (cartesian axes, Ry/au):

     atom    1 type  1   force =     0.00000000    0.00000000    0.00000000
     atom    2 type  1   force =     0.00000000    0.00000000    0.00000000
     atom    3 type  1   force =     0.00000000   -0.00000000    0.00000000
     atom    4 type  1   force =     0.00000000    0.00000000    0.00000000

     Total force =     0.000000     Total SCF correction =     0.000000

     Writing all to output data dir ./pwscf.save/
 
     init_run     :      0.43s CPU      0.45s WALL (       1 calls)
     electrons    :     15.19s CPU     15.60s WALL (       1 calls)
     forces       :      0.11s CPU      0.11s WALL (       1 calls)

     Called by init_run:
     wfcinit      :      0.33s CPU      0.34s WALL (       1 calls)
     potinit      :      0.06s CPU      0.06s WALL (       1 calls)
     hinit0       :      0.04s CPU      0.04s WALL (       1 calls)

     Called by electrons:
     c_bands      :     14.07s CPU     14.38s WALL (       8 calls)
     sum_band     :      0.73s CPU      0.76s WALL (       8 calls)
     v_of_rho     :      0.01s CPU      0.01s WALL (       8 calls)
     newd         :      0.01s CPU      0.01s WALL (       8 calls)
     PAW_pot      :      0.43s CPU      0.46s WALL (       8 calls)
     mix_rho      :      0.00s CPU      0.00s WALL (       8 calls)

     Called by c_bands:
     init_us_2    :      0.03s CPU      0.04s WALL (    1512 calls)
     init_us_2:cp :      0.03s CPU      0.03s WALL (    1512 calls)
     cegterg      :     13.85s CPU     14.16s WALL (     672 calls)

     Called by *egterg:
     cdiaghg      :      6.70s CPU      6.80s WALL (    4924 calls)
     h_psi        :      4.84s CPU      5.00s WALL (    5092 calls)
     s_psi        :      0.17s CPU      0.17s WALL (    5092 calls)
     g_psi        :      0.02s CPU      0.02s WALL (    4336 calls)

     Called by h_psi:
     h_psi:calbec :      0.47s CPU      0.49s WALL (    5092 calls)
     vloc_psi     :      4.17s CPU      4.30s WALL (    5092 calls)
     add_vuspsi   :      0.18s CPU      0.19s WALL (    5092 calls)

     General routines
     calbec       :      0.64s CPU      0.66s WALL (    6100 calls)
     fft          :      0.01s CPU      0.01s WALL (     100 calls)
     ffts         :      0.00s CPU      0.00s WALL (       8 calls)
     fftw         :      4.44s CPU      4.59s WALL (  167774 calls)
 
     Parallel routines
 
     PWSCF        :     16.15s CPU     17.79s WALL

 
   This run was terminated on:  12:36: 9   5Apr2024            

=------------------------------------------------------------------------------=
   JOB DONE.
=------------------------------------------------------------------------------=
