MPI startup(): Warning: I_MPI_PMI_LIBRARY will be ignored since the hydra process manager was found
MPI startup(): Warning: I_MPI_PMI_LIBRARY will be ignored since the hydra process manager was found
MPI startup(): Warning: I_MPI_PMI_LIBRARY will be ignored since the hydra process manager was found
MPI startup(): Warning: I_MPI_PMI_LIBRARY will be ignored since the hydra process manager was found
MPI startup(): Warning: I_MPI_PMI_LIBRARY will be ignored since the hydra process manager was found
MPI startup(): Warning: I_MPI_PMI_LIBRARY will be ignored since the hydra process manager was found
MPI startup(): Warning: I_MPI_PMI_LIBRARY will be ignored since the hydra process manager was found
MPI startup(): Warning: I_MPI_PMI_LIBRARY will be ignored since the hydra process manager was found
MPI startup(): Warning: I_MPI_PMI_LIBRARY will be ignored since the hydra process manager was found
MPI startup(): Warning: I_MPI_PMI_LIBRARY will be ignored since the hydra process manager was found

     Program PWSCF v.7.0 starts on  5Apr2024 at 12:35:52 

     This program is part of the open-source Quantum ESPRESSO suite
     for quantum simulation of materials; please cite
         "P. Giannozzi et al., J. Phys.:Condens. Matter 21 395502 (2009);
         "P. Giannozzi et al., J. Phys.:Condens. Matter 29 465901 (2017);
         "P. Giannozzi et al., J. Chem. Phys. 152 154105 (2020);
          URL http://www.quantum-espresso.org", 
     in publications or presentations arising from this work. More details at
     http://www.quantum-espresso.org/quote

     Parallel version (MPI), running on    10 processors

     MPI processes distributed on     1 nodes
     R & G space division:  proc/nbgrp/npool/nimage =      10
     226158 MiB available memory on the printing compute node when the environment starts
 
     Reading input from VolumeFCC_9.7.in
Warning: card &CELL ignored
Warning: card / ignored

     Current dimensions of program PWSCF are:
     Max number of different atomic species (ntypx) = 10
     Max number of k-points (npk) =  40000
     Max angular momentum in pseudopotentials (lmaxx) =  4
     file Au.pbe-n-kjpaw_psl.1.0.0.UPF: wavefunction(s)  6S 5D renormalized
     Found identity + (  0.5000  0.5000  0.0000) symmetry
     This is a supercell, fractional translations are disabled
     Message from routine setup:
     using ibrav=0 with symmetry is DISCOURAGED, use correct ibrav instead

     Subspace diagonalization in iterative solution of the eigenvalue problem:
     one sub-group per band group will be used
     scalapack distributed-memory algorithm (size of sub-group:  3*  3 procs)

 
     Parallelization info
     --------------------
     sticks:   dense  smooth     PW     G-vecs:    dense   smooth      PW
     Min         148     148     43                 4350     4350     685
     Max         149     149     44                 4355     4355     688
     Sum        1481    1481    437                43507    43507    6859
 
     Using Slab Decomposition
 


     bravais-lattice index     =            0
     lattice parameter (alat)  =       9.6986  a.u.
     unit-cell volume          =     912.2763 (a.u.)^3
     number of atoms/cell      =            4
     number of atomic types    =            1
     number of electrons       =        44.00
     number of Kohn-Sham states=           26
     kinetic-energy cutoff     =      50.0000  Ry
     charge density cutoff     =     200.0000  Ry
     scf convergence threshold =      1.0E-06
     mixing beta               =       0.7000
     number of iterations used =            8  plain     mixing
     Exchange-correlation= SLA  PW   PBX  PBC
                           (   1   4   3   4   0   0   0)

     celldm(1)=   9.698594  celldm(2)=   0.000000  celldm(3)=   0.000000
     celldm(4)=   0.000000  celldm(5)=   0.000000  celldm(6)=   0.000000

     crystal axes: (cart. coord. in units of alat)
               a(1) = (   1.000000   0.000000   0.000000 )  
               a(2) = (   0.000000   1.000000   0.000000 )  
               a(3) = (   0.000000   0.000000   1.000000 )  

     reciprocal axes: (cart. coord. in units 2 pi/alat)
               b(1) = (  1.000000  0.000000  0.000000 )  
               b(2) = (  0.000000  1.000000  0.000000 )  
               b(3) = (  0.000000  0.000000  1.000000 )  


     PseudoPot. # 1 for Au read from file:
     ./Au.pbe-n-kjpaw_psl.1.0.0.UPF
     MD5 check sum: 4db85c736373c707a97ce4c36c2a9d23
     Pseudo is Projector augmented-wave + core cor, Zval = 11.0
     Generated using &quot;atomic&quot; code by A. Dal Corso  v.6.3
     Shape of augmentation charge: PSQ
     Using radial grid of 1279 points,  6 beta functions with: 
                l(1) =   0
                l(2) =   0
                l(3) =   1
                l(4) =   1
                l(5) =   2
                l(6) =   2
     Q(r) pseudized with 0 coefficients 


     atomic species   valence    mass     pseudopotential
        Au            11.00   196.96657     Au( 1.00)

     48 Sym. Ops., with inversion, found



   Cartesian axes

     site n.     atom                  positions (alat units)
         1           Au  tau(   1) = (   0.0000000   0.0000000   0.0000000  )
         2           Au  tau(   2) = (   0.5000000   0.5000000   0.0000000  )
         3           Au  tau(   3) = (   0.5000000   0.0000000   0.5000000  )
         4           Au  tau(   4) = (   0.0000000   0.5000000   0.5000000  )

     number of k points=    84  Gaussian smearing, width (Ry)=  0.2000
                       cart. coord. in units 2pi/alat
        k(    1) = (   0.0000000   0.0000000   0.0000000), wk =   0.0011574
        k(    2) = (   0.0000000   0.0000000   0.0833333), wk =   0.0069444
        k(    3) = (   0.0000000   0.0000000   0.1666667), wk =   0.0069444
        k(    4) = (   0.0000000   0.0000000   0.2500000), wk =   0.0069444
        k(    5) = (   0.0000000   0.0000000   0.3333333), wk =   0.0069444
        k(    6) = (   0.0000000   0.0000000   0.4166667), wk =   0.0069444
        k(    7) = (   0.0000000   0.0000000  -0.5000000), wk =   0.0034722
        k(    8) = (   0.0000000   0.0833333   0.0833333), wk =   0.0138889
        k(    9) = (   0.0000000   0.0833333   0.1666667), wk =   0.0277778
        k(   10) = (   0.0000000   0.0833333   0.2500000), wk =   0.0277778
        k(   11) = (   0.0000000   0.0833333   0.3333333), wk =   0.0277778
        k(   12) = (   0.0000000   0.0833333   0.4166667), wk =   0.0277778
        k(   13) = (   0.0000000   0.0833333  -0.5000000), wk =   0.0138889
        k(   14) = (   0.0000000   0.1666667   0.1666667), wk =   0.0138889
        k(   15) = (   0.0000000   0.1666667   0.2500000), wk =   0.0277778
        k(   16) = (   0.0000000   0.1666667   0.3333333), wk =   0.0277778
        k(   17) = (   0.0000000   0.1666667   0.4166667), wk =   0.0277778
        k(   18) = (   0.0000000   0.1666667  -0.5000000), wk =   0.0138889
        k(   19) = (   0.0000000   0.2500000   0.2500000), wk =   0.0138889
        k(   20) = (   0.0000000   0.2500000   0.3333333), wk =   0.0277778
        k(   21) = (   0.0000000   0.2500000   0.4166667), wk =   0.0277778
        k(   22) = (   0.0000000   0.2500000  -0.5000000), wk =   0.0138889
        k(   23) = (   0.0000000   0.3333333   0.3333333), wk =   0.0138889
        k(   24) = (   0.0000000   0.3333333   0.4166667), wk =   0.0277778
        k(   25) = (   0.0000000   0.3333333  -0.5000000), wk =   0.0138889
        k(   26) = (   0.0000000   0.4166667   0.4166667), wk =   0.0138889
        k(   27) = (   0.0000000   0.4166667  -0.5000000), wk =   0.0138889
        k(   28) = (   0.0000000  -0.5000000  -0.5000000), wk =   0.0034722
        k(   29) = (   0.0833333   0.0833333   0.0833333), wk =   0.0092593
        k(   30) = (   0.0833333   0.0833333   0.1666667), wk =   0.0277778
        k(   31) = (   0.0833333   0.0833333   0.2500000), wk =   0.0277778
        k(   32) = (   0.0833333   0.0833333   0.3333333), wk =   0.0277778
        k(   33) = (   0.0833333   0.0833333   0.4166667), wk =   0.0277778
        k(   34) = (   0.0833333   0.0833333  -0.5000000), wk =   0.0138889
        k(   35) = (   0.0833333   0.1666667   0.1666667), wk =   0.0277778
        k(   36) = (   0.0833333   0.1666667   0.2500000), wk =   0.0555556
        k(   37) = (   0.0833333   0.1666667   0.3333333), wk =   0.0555556
        k(   38) = (   0.0833333   0.1666667   0.4166667), wk =   0.0555556
        k(   39) = (   0.0833333   0.1666667  -0.5000000), wk =   0.0277778
        k(   40) = (   0.0833333   0.2500000   0.2500000), wk =   0.0277778
        k(   41) = (   0.0833333   0.2500000   0.3333333), wk =   0.0555556
        k(   42) = (   0.0833333   0.2500000   0.4166667), wk =   0.0555556
        k(   43) = (   0.0833333   0.2500000  -0.5000000), wk =   0.0277778
        k(   44) = (   0.0833333   0.3333333   0.3333333), wk =   0.0277778
        k(   45) = (   0.0833333   0.3333333   0.4166667), wk =   0.0555556
        k(   46) = (   0.0833333   0.3333333  -0.5000000), wk =   0.0277778
        k(   47) = (   0.0833333   0.4166667   0.4166667), wk =   0.0277778
        k(   48) = (   0.0833333   0.4166667  -0.5000000), wk =   0.0277778
        k(   49) = (   0.0833333  -0.5000000  -0.5000000), wk =   0.0069444
        k(   50) = (   0.1666667   0.1666667   0.1666667), wk =   0.0092593
        k(   51) = (   0.1666667   0.1666667   0.2500000), wk =   0.0277778
        k(   52) = (   0.1666667   0.1666667   0.3333333), wk =   0.0277778
        k(   53) = (   0.1666667   0.1666667   0.4166667), wk =   0.0277778
        k(   54) = (   0.1666667   0.1666667  -0.5000000), wk =   0.0138889
        k(   55) = (   0.1666667   0.2500000   0.2500000), wk =   0.0277778
        k(   56) = (   0.1666667   0.2500000   0.3333333), wk =   0.0555556
        k(   57) = (   0.1666667   0.2500000   0.4166667), wk =   0.0555556
        k(   58) = (   0.1666667   0.2500000  -0.5000000), wk =   0.0277778
        k(   59) = (   0.1666667   0.3333333   0.3333333), wk =   0.0277778
        k(   60) = (   0.1666667   0.3333333   0.4166667), wk =   0.0555556
        k(   61) = (   0.1666667   0.3333333  -0.5000000), wk =   0.0277778
        k(   62) = (   0.1666667   0.4166667   0.4166667), wk =   0.0277778
        k(   63) = (   0.1666667   0.4166667  -0.5000000), wk =   0.0277778
        k(   64) = (   0.1666667  -0.5000000  -0.5000000), wk =   0.0069444
        k(   65) = (   0.2500000   0.2500000   0.2500000), wk =   0.0092593
        k(   66) = (   0.2500000   0.2500000   0.3333333), wk =   0.0277778
        k(   67) = (   0.2500000   0.2500000   0.4166667), wk =   0.0277778
        k(   68) = (   0.2500000   0.2500000  -0.5000000), wk =   0.0138889
        k(   69) = (   0.2500000   0.3333333   0.3333333), wk =   0.0277778
        k(   70) = (   0.2500000   0.3333333   0.4166667), wk =   0.0555556
        k(   71) = (   0.2500000   0.3333333  -0.5000000), wk =   0.0277778
        k(   72) = (   0.2500000   0.4166667   0.4166667), wk =   0.0277778
        k(   73) = (   0.2500000   0.4166667  -0.5000000), wk =   0.0277778
        k(   74) = (   0.2500000  -0.5000000  -0.5000000), wk =   0.0069444
        k(   75) = (   0.3333333   0.3333333   0.3333333), wk =   0.0092593
        k(   76) = (   0.3333333   0.3333333   0.4166667), wk =   0.0277778
        k(   77) = (   0.3333333   0.3333333  -0.5000000), wk =   0.0138889
        k(   78) = (   0.3333333   0.4166667   0.4166667), wk =   0.0277778
        k(   79) = (   0.3333333   0.4166667  -0.5000000), wk =   0.0277778
        k(   80) = (   0.3333333  -0.5000000  -0.5000000), wk =   0.0069444
        k(   81) = (   0.4166667   0.4166667   0.4166667), wk =   0.0092593
        k(   82) = (   0.4166667   0.4166667  -0.5000000), wk =   0.0138889
        k(   83) = (   0.4166667  -0.5000000  -0.5000000), wk =   0.0069444
        k(   84) = (  -0.5000000  -0.5000000  -0.5000000), wk =   0.0011574

     Dense  grid:    43507 G-vectors     FFT dimensions: (  45,  45,  45)

     Estimated max dynamical RAM per process >      35.65 MB

     Estimated total dynamical RAM >     356.48 MB

     Initial potential from superposition of free atoms

     starting charge      43.9996, renormalised to      44.0000
     Starting wfcs are   36 randomized atomic wfcs
     Checking if some PAW data can be deallocated... 

     total cpu time spent up to now is        3.4 secs

     Self-consistent Calculation

     iteration #  1     ecut=    50.00 Ry     beta= 0.70
     Davidson diagonalization with overlap
     ethr =  1.00E-02,  avg # of iterations =  2.1

     Threshold (ethr) on eigenvalues was too large:
     Diagonalizing with lowered threshold

     Davidson diagonalization with overlap
     ethr =  7.19E-04,  avg # of iterations =  2.8

     total cpu time spent up to now is        8.3 secs

     total energy              =   -3100.41438748 Ry
     estimated scf accuracy    <       0.33551838 Ry

     iteration #  2     ecut=    50.00 Ry     beta= 0.70
     Davidson diagonalization with overlap
     ethr =  7.63E-04,  avg # of iterations =  2.1

     total cpu time spent up to now is       11.3 secs

     total energy              =   -3100.54013037 Ry
     estimated scf accuracy    <       0.16903077 Ry

     iteration #  3     ecut=    50.00 Ry     beta= 0.70
     Davidson diagonalization with overlap
     ethr =  3.84E-04,  avg # of iterations =  1.7

     total cpu time spent up to now is       13.5 secs

     total energy              =   -3100.56461411 Ry
     estimated scf accuracy    <       0.00788854 Ry

     iteration #  4     ecut=    50.00 Ry     beta= 0.70
     Davidson diagonalization with overlap
     ethr =  1.79E-05,  avg # of iterations =  5.0

     total cpu time spent up to now is       17.4 secs

     total energy              =   -3100.56875945 Ry
     estimated scf accuracy    <       0.00234178 Ry

     iteration #  5     ecut=    50.00 Ry     beta= 0.70
     Davidson diagonalization with overlap
     ethr =  5.32E-06,  avg # of iterations =  6.3

     total cpu time spent up to now is       22.5 secs

     total energy              =   -3100.56307207 Ry
     estimated scf accuracy    <       0.03132999 Ry

     iteration #  6     ecut=    50.00 Ry     beta= 0.70
     Davidson diagonalization with overlap
     ethr =  5.32E-06,  avg # of iterations =  4.4

     total cpu time spent up to now is       26.6 secs

     total energy              =   -3100.56840763 Ry
     estimated scf accuracy    <       0.00032986 Ry

     iteration #  7     ecut=    50.00 Ry     beta= 0.70
     Davidson diagonalization with overlap
     ethr =  7.50E-07,  avg # of iterations =  6.0

     total cpu time spent up to now is       31.0 secs

     total energy              =   -3100.56858678 Ry
     estimated scf accuracy    <       0.00006245 Ry

     iteration #  8     ecut=    50.00 Ry     beta= 0.70
     Davidson diagonalization with overlap
     ethr =  1.42E-07,  avg # of iterations =  6.7

     total cpu time spent up to now is       35.9 secs

     total energy              =   -3100.56863982 Ry
     estimated scf accuracy    <       0.00003751 Ry

     iteration #  9     ecut=    50.00 Ry     beta= 0.70
     Davidson diagonalization with overlap
     ethr =  8.53E-08,  avg # of iterations =  3.0

     total cpu time spent up to now is       39.2 secs

     total energy              =   -3100.56867601 Ry
     estimated scf accuracy    <       0.00002869 Ry

     iteration # 10     ecut=    50.00 Ry     beta= 0.70
     Davidson diagonalization with overlap
     ethr =  6.52E-08,  avg # of iterations =  2.0

     total cpu time spent up to now is       41.4 secs

     total energy              =   -3100.56866433 Ry
     estimated scf accuracy    <       0.00005749 Ry

     iteration # 11     ecut=    50.00 Ry     beta= 0.70
     Davidson diagonalization with overlap
     ethr =  6.52E-08,  avg # of iterations =  1.0

     total cpu time spent up to now is       43.4 secs

     total energy              =   -3100.56866514 Ry
     estimated scf accuracy    <       0.00002963 Ry

     iteration # 12     ecut=    50.00 Ry     beta= 0.70
     Davidson diagonalization with overlap
     ethr =  6.52E-08,  avg # of iterations =  1.0

     total cpu time spent up to now is       45.4 secs

     total energy              =   -3100.56866090 Ry
     estimated scf accuracy    <       0.00002777 Ry

     iteration # 13     ecut=    50.00 Ry     beta= 0.70
     Davidson diagonalization with overlap
     ethr =  6.31E-08,  avg # of iterations =  1.0

     total cpu time spent up to now is       47.3 secs

     total energy              =   -3100.56866098 Ry
     estimated scf accuracy    <       0.00001778 Ry

     iteration # 14     ecut=    50.00 Ry     beta= 0.70
     Davidson diagonalization with overlap
     ethr =  4.04E-08,  avg # of iterations =  1.2

     total cpu time spent up to now is       49.3 secs

     total energy              =   -3100.56866155 Ry
     estimated scf accuracy    <       0.00001677 Ry

     iteration # 15     ecut=    50.00 Ry     beta= 0.70
     Davidson diagonalization with overlap
     ethr =  3.81E-08,  avg # of iterations =  1.0

     total cpu time spent up to now is       51.3 secs

     total energy              =   -3100.56865157 Ry
     estimated scf accuracy    <       0.00001728 Ry

     iteration # 16     ecut=    50.00 Ry     beta= 0.70
     Davidson diagonalization with overlap
     ethr =  3.81E-08,  avg # of iterations =  2.1

     total cpu time spent up to now is       54.0 secs

     End of self-consistent calculation

          k = 0.0000 0.0000 0.0000 (  5449 PWs)   bands (ev):

     0.1607   1.3853   1.3856   1.3856   1.4130   1.4130   1.4130   1.9587
     1.9587   1.9587   2.3517   2.3517   2.6605   2.6605   2.6606   2.7669
     2.7669   2.7669   2.7672   2.7672   2.7672   6.5867   6.5867   6.5869
     7.3209   7.3209

          k = 0.0000 0.0000 0.0833 (  5445 PWs)   bands (ev):

     0.2054   1.3964   1.4036   1.4039   1.4218   1.4284   1.4284   1.9489
     1.9700   1.9700   2.3418   2.3568   2.6473   2.6473   2.6551   2.7292
     2.7292   2.7500   2.7500   2.7670   2.7672   5.8794   6.5801   6.5802
     7.4010   7.4010

          k = 0.0000 0.0000 0.1667 (  5454 PWs)   bands (ev):

     0.3382   1.4272   1.4477   1.4559   1.4562   1.4746   1.4746   1.9202
     2.0035   2.0035   2.3139   2.3718   2.6086   2.6087   2.6241   2.6241
     2.6392   2.7009   2.7009   2.7670   2.7672   4.9779   6.5618   6.5620
     7.6320   7.6320

          k = 0.0000 0.0000 0.2500 (  5454 PWs)   bands (ev):

     0.5546   1.4717   1.4892   1.5351   1.5354   1.5509   1.5509   1.8749
     2.0580   2.0580   2.2742   2.3957   2.4723   2.4723   2.5480   2.5481
     2.6141   2.6253   2.6253   2.7671   2.7673   4.1448   6.5362   6.5364
     7.9916   7.9916

          k = 0.0000 0.0000 0.3333 (  5458 PWs)   bands (ev):

     0.8425   1.5159   1.5438   1.6273   1.6275   1.6561   1.6561   1.8164
     2.1314   2.1314   2.2380   2.2965   2.2965   2.4271   2.4744   2.4745
     2.5311   2.5311   2.5815   2.7671   2.7674   3.4081   6.5099   6.5101
     8.4541   8.4541

          k = 0.0000 0.0000 0.4167 (  5450 PWs)   bands (ev):

     1.1664   1.5271   1.6082   1.7083   1.7085   1.7493   1.7880   1.7880
     2.1156   2.1156   2.2206   2.2206   2.2446   2.4069   2.4070   2.4269
     2.4269   2.4639   2.5438   2.7672   2.7674   2.8008   6.4902   6.4904
     8.9958   8.9958

          k = 0.0000 0.0000-0.5000 (  5406 PWs)   bands (ev):

     1.4288   1.4292   1.6781   1.6784   1.7425   1.7428   1.9431   1.9431
     1.9432   1.9432   2.3210   2.3210   2.3210   2.3210   2.3776   2.3778
     2.3960   2.3962   2.5036   2.5038   2.7672   2.7675   6.4829   6.4831
     9.5964   9.5965

          k = 0.0000 0.0833 0.0833 (  5445 PWs)   bands (ev):

     0.2496   1.4119   1.4146   1.4149   1.4370   1.4370   1.4530   1.9471
     1.9735   1.9806   2.3395   2.3552   2.6346   2.6370   2.6371   2.7051
     2.7164   2.7166   2.7500   2.7500   2.7545   5.9124   5.9125   6.5718
     7.4799   8.1364

          k = 0.0000 0.0833 0.1667 (  5445 PWs)   bands (ev):

     0.3810   1.4459   1.4462   1.4624   1.4674   1.4827   1.5148   1.9228
     2.0033   2.0117   2.3157   2.3694   2.5674   2.5974   2.6029   2.6091
     2.6419   2.6839   2.7007   2.7487   2.7498   5.0288   5.9978   6.5476
     7.7079   8.2474

          k = 0.0000 0.0833 0.2500 (  5442 PWs)   bands (ev):

     0.5947   1.4912   1.5030   1.5094   1.5472   1.5580   1.6029   1.8793
     2.0571   2.0603   2.2807   2.3964   2.4299   2.4625   2.5388   2.5391
     2.5680   2.6249   2.6430   2.7477   2.7496   4.2089   6.1046   6.5104
     8.0637   8.4419

          k = 0.0000 0.0833 0.3333 (  5451 PWs)   bands (ev):

     0.8783   1.5369   1.5564   1.5971   1.6400   1.6618   1.7068   1.8226
     2.1135   2.1303   2.2618   2.2624   2.2911   2.4328   2.4461   2.4682
     2.4897   2.5304   2.5991   2.7477   2.7493   3.4876   6.2050   6.4640
     8.5224   8.7223

          k = 0.0000 0.0833 0.4167 (  5441 PWs)   bands (ev):

     1.1964   1.5502   1.6194   1.6931   1.7207   1.7571   1.7918   1.8157
     2.0915   2.1140   2.1454   2.2194   2.3210   2.3307   2.4045   2.4173
     2.4260   2.4784   2.5498   2.7481   2.7489   2.9063   6.2874   6.4117
     9.0609   9.0778

          k = 0.0000 0.0833-0.5000 (  5440 PWs)   bands (ev):

     1.4543   1.4546   1.6877   1.6879   1.7482   1.7484   1.9385   1.9386
     1.9445   1.9445   2.2095   2.2095   2.3199   2.3200   2.3810   2.3811
     2.4672   2.4672   2.5612   2.5612   2.7484   2.7486   6.3541   6.3543
     9.4871   9.4874

          k = 0.0000 0.1667 0.1667 (  5453 PWs)   bands (ev):

     0.5077   1.4604   1.4997   1.5000   1.5063   1.5063   1.5892   1.9172
     2.0166   2.0353   2.3075   2.3784   2.4970   2.4971   2.5470   2.5644
     2.6434   2.6434   2.7001   2.7001   2.7174   5.1671   5.1672   6.5040
     7.9281   9.2237

          k = 0.0000 0.1667 0.2500 (  5443 PWs)   bands (ev):

     0.7128   1.5050   1.5442   1.5475   1.5788   1.5815   1.6838   1.8869
     2.0605   2.0691   2.2839   2.3474   2.4060   2.4142   2.4265   2.5122
     2.5842   2.6236   2.6241   2.6991   2.7016   4.3804   5.3614   6.4292
     8.2738   9.2272

          k = 0.0000 0.1667 0.3333 (  5418 PWs)   bands (ev):

     0.9825   1.5777   1.5940   1.5974   1.6766   1.6784   1.7859   1.8382
     2.0919   2.1300   2.1839   2.2722   2.2831   2.2972   2.4488   2.4727
     2.5102   2.5285   2.5859   2.6963   2.6979   3.6868   5.5802   6.3209
     8.7224   9.2366

          k = 0.0000 0.1667 0.4167 (  5435 PWs)   bands (ev):

     1.2816   1.6166   1.6524   1.6718   1.7563   1.7792   1.8027   1.8742
     2.0335   2.0829   2.1076   2.1788   2.2175   2.3477   2.3947   2.4237
     2.4343   2.5288   2.5652   2.6951   2.6966   3.1269   5.7993   6.1780
     9.2520   9.2724

          k = 0.0000 0.1667-0.5000 (  5436 PWs)   bands (ev):

     1.5256   1.5259   1.7155   1.7157   1.7583   1.7585   1.9356   1.9356
     1.9478   1.9479   2.0933   2.0933   2.3175   2.3176   2.3855   2.3856
     2.4475   2.4477   2.6954   2.6956   2.7525   2.7525   6.0021   6.0023
     9.3681   9.3684

          k = 0.0000 0.2500 0.2500 (  5441 PWs)   bands (ev):

     0.9017   1.5291   1.6119   1.6119   1.6330   1.6332   1.7796   1.8817
     2.0846   2.0850   2.2470   2.2472   2.2670   2.3496   2.4688   2.4721
     2.5773   2.5774   2.6217   2.6218   2.6576   4.6211   4.6213   6.2855
     8.6062   9.8124

          k = 0.0000 0.2500 0.3333 (  5445 PWs)   bands (ev):

     1.1444   1.5816   1.6552   1.6900   1.7045   1.7334   1.8543   1.8764
     2.0885   2.0890   2.1372   2.1396   2.2318   2.2629   2.4152   2.5111
     2.5260   2.5446   2.5710   2.6197   2.6322   3.9538   4.9022   6.0764
     9.0409   9.5048

          k = 0.0000 0.2500 0.4167 (  5447 PWs)   bands (ev):

     1.4060   1.6606   1.7055   1.7164   1.8096   1.8106   1.8191   1.9474
     1.9650   2.0383   2.0545   2.0927   2.2198   2.3154   2.3726   2.4212
     2.4370   2.4856   2.6180   2.6213   2.7264   3.3973   5.2048   5.8121
     9.3713   9.5351

          k = 0.0000 0.2500-0.5000 (  5432 PWs)   bands (ev):

     1.6241   1.6244   1.7578   1.7580   1.7588   1.7590   1.9510   1.9511
     1.9574   1.9575   2.0138   2.0138   2.3163   2.3164   2.3788   2.3788
     2.4031   2.4032   2.6178   2.6180   2.9863   2.9863   5.5139   5.5141
     9.3922   9.3924

          k = 0.0000 0.3333 0.3333 (  5446 PWs)   bands (ev):

     1.3416   1.6104   1.7379   1.7380   1.8013   1.8015   1.8578   1.9659
     1.9882   1.9885   2.0986   2.1613   2.1724   2.2330   2.3704   2.4838
     2.4839   2.5238   2.5239   2.5780   2.7226   4.2639   4.2640   5.7464
     9.3504   9.4610

          k = 0.0000 0.3333 0.4167 (  5438 PWs)   bands (ev):

     1.5399   1.6650   1.7754   1.8222   1.8384   1.8423   1.8470   1.9271
     1.9347   2.0264   2.0627   2.0694   2.2348   2.2609   2.3341   2.4126
     2.4208   2.4260   2.5239   2.5448   2.9425   3.7084   4.6083   5.3683
     9.3797   9.8660

          k = 0.0000 0.3333-0.5000 (  5432 PWs)   bands (ev):

     1.7068   1.7070   1.7454   1.7454   1.8121   1.8123   1.9501   1.9502
     1.9987   1.9987   2.0102   2.0104   2.3210   2.3211   2.3432   2.3433
     2.3497   2.3497   2.5291   2.5293   3.2643   3.2644   4.9805   4.9807
     9.5612   9.5614

          k = 0.0000 0.4167 0.4167 (  5434 PWs)   bands (ev):

     1.6508   1.6886   1.7991   1.7994   1.8563   1.8563   1.8631   1.9866
     1.9868   2.0112   2.0913   2.1067   2.2197   2.2732   2.2890   2.3564
     2.3566   2.4267   2.4267   2.4833   3.2268   4.0630   4.0632   4.9054
     9.5501  10.2732

          k = 0.0000 0.4167-0.5000 (  5434 PWs)   bands (ev):

     1.7322   1.7323   1.7338   1.7339   1.8667   1.8669   1.9389   1.9390
     2.0648   2.0649   2.0794   2.0796   2.2755   2.2756   2.2938   2.2938
     2.3391   2.3392   2.4449   2.4451   3.5983   3.5984   4.4637   4.4639
     9.8543   9.8545

          k = 0.0000-0.5000-0.5000 (  5440 PWs)   bands (ev):

     1.7309   1.7309   1.7311   1.7312   1.9114   1.9115   1.9115   1.9117
     2.1269   2.1273   2.1273   2.1273   2.2371   2.2371   2.2374   2.2374
     2.3792   2.3793   2.3793   2.3795   3.9980   3.9980   3.9981   3.9984
    10.2575  10.2576

          k = 0.0833 0.0833 0.0833 (  5443 PWs)   bands (ev):

     0.2933   1.4218   1.4221   1.4221   1.4625   1.4625   1.4625   1.9471
     1.9830   1.9830   2.3460   2.3460   2.6231   2.6231   2.6232   2.6860
     2.6860   2.6862   2.7446   2.7447   2.7447   5.9428   5.9428   5.9430
     8.1700   8.1700

          k = 0.0833 0.0833 0.1667 (  5447 PWs)   bands (ev):

     0.4229   1.4501   1.4552   1.4554   1.4907   1.5248   1.5249   1.9273
     2.0096   2.0114   2.3208   2.3649   2.5605   2.5605   2.5884   2.6148
     2.6148   2.6306   2.7176   2.7392   2.7393   5.0777   6.0204   6.0205
     8.2737   8.2737

          k = 0.0833 0.0833 0.2500 (  5433 PWs)   bands (ev):

     0.6333   1.4908   1.5177   1.5178   1.5355   1.6130   1.6131   1.8866
     2.0576   2.0590   2.2901   2.3950   2.4238   2.4239   2.5313   2.5433
     2.5503   2.5504   2.6787   2.7357   2.7359   4.2698   6.1141   6.1143
     8.4513   8.4513

          k = 0.0833 0.0833 0.3333 (  5439 PWs)   bands (ev):

     0.9114   1.5350   1.5903   1.6051   1.6052   1.7155   1.7156   1.8326
     2.1055   2.1199   2.2593   2.2593   2.2890   2.4289   2.4344   2.4560
     2.4783   2.4784   2.6327   2.7337   2.7339   3.5587   6.1942   6.1944
     8.6941   8.6942

          k = 0.0833 0.0833 0.4167 (  5442 PWs)   bands (ev):

     1.2212   1.5555   1.6466   1.7026   1.7028   1.7707   1.8177   1.8178
     2.0954   2.0954   2.1212   2.1957   2.2935   2.3698   2.3808   2.4108
     2.4109   2.4807   2.5827   2.7328   2.7330   2.9831   6.2447   6.2449
     8.9564   8.9566

          k = 0.0833 0.0833-0.5000 (  5440 PWs)   bands (ev):

     1.4695   1.4698   1.7065   1.7068   1.7550   1.7552   1.8964   1.8964
     1.9835   1.9835   2.1696   2.1696   2.2807   2.2808   2.3807   2.3807
     2.5310   2.5312   2.5936   2.5937   2.7325   2.7327   6.2614   6.2617
     9.0952   9.0955

          k = 0.0833 0.1667 0.1667 (  5432 PWs)   bands (ev):

     0.5470   1.4680   1.4806   1.4807   1.5548   1.5549   1.5998   1.9274
     2.0200   2.0321   2.3188   2.3706   2.4927   2.4929   2.5256   2.5437
     2.5878   2.5878   2.7159   2.7159   2.7199   5.2111   5.2112   6.0748
     8.3512   9.1849

          k = 0.0833 0.1667 0.2500 (  5434 PWs)   bands (ev):

     0.7468   1.5111   1.5171   1.5406   1.6027   1.6435   1.6941   1.9028
     2.0575   2.0655   2.3006   2.3446   2.3993   2.4021   2.4077   2.5004
     2.5250   2.5454   2.6839   2.7041   2.7057   4.4348   5.3986   6.1275
     8.4710   9.1253

          k = 0.0833 0.1667 0.3333 (  5434 PWs)   bands (ev):

     1.0070   1.5564   1.5825   1.6265   1.6618   1.7429   1.7933   1.8602
     2.0880   2.1127   2.1869   2.2492   2.2906   2.3183   2.4401   2.4441
     2.4655   2.4847   2.6418   2.6942   2.6967   3.7449   5.6076   6.1420
     8.6061   9.0312

          k = 0.0833 0.1667 0.4167 (  5445 PWs)   bands (ev):

     1.2897   1.5772   1.6763   1.7186   1.7282   1.8107   1.8228   1.8674
     2.0545   2.0753   2.1060   2.1677   2.1801   2.3480   2.3899   2.4136
     2.4175   2.5578   2.5879   2.6896   2.6912   3.1773   5.8095   6.0940
     8.7215   8.9204

          k = 0.0833 0.1667-0.5000 (  5446 PWs)   bands (ev):

     1.5086   1.5089   1.7637   1.7639   1.7667   1.7669   1.8592   1.8593
     2.0218   2.0219   2.0816   2.0816   2.2594   2.2595   2.3750   2.3751
     2.5176   2.5177   2.6888   2.6890   2.7728   2.7728   5.9788   5.9790
     8.8173   8.8175

          k = 0.0833 0.2500 0.2500 (  5430 PWs)   bands (ev):

     0.9263   1.5328   1.5722   1.5722   1.6933   1.6934   1.7881   1.9096
     2.0734   2.0819   2.2468   2.2470   2.2909   2.3328   2.4417   2.4637
     2.5014   2.5015   2.6682   2.6682   2.6709   4.6697   4.6699   6.1041
     8.4853   9.7705

          k = 0.0833 0.2500 0.3333 (  5440 PWs)   bands (ev):

     1.1519   1.5826   1.6039   1.6528   1.7577   1.7903   1.8777   1.8946
     2.0888   2.0999   2.1130   2.1394   2.2241   2.3040   2.3922   2.4254
     2.4603   2.5625   2.6233   2.6456   2.6478   4.0036   4.9462   6.0009
     8.5089   9.4066

          k = 0.0833 0.2500 0.4167 (  5441 PWs)   bands (ev):

     1.3843   1.6165   1.6583   1.7528   1.8217   1.8320   1.8699   1.9196
     2.0210   2.0402   2.0535   2.1219   2.1716   2.3355   2.3523   2.3824
     2.4037   2.5631   2.6312   2.6332   2.7244   3.4377   5.2429   5.8040
     8.5967   9.0621

          k = 0.0833 0.2500-0.5000 (  5450 PWs)   bands (ev):

     1.5574   1.5576   1.7531   1.7532   1.8530   1.8533   1.8595   1.8597
     2.0101   2.0102   2.0605   2.0606   2.2474   2.2475   2.3544   2.3544
     2.4817   2.4818   2.6274   2.6276   3.0051   3.0052   5.5386   5.5388
     8.7829   8.7831

          k = 0.0833 0.3333 0.3333 (  5437 PWs)   bands (ev):

     1.3214   1.6064   1.6722   1.6722   1.8563   1.8564   1.9153   1.9481
     2.0139   2.0141   2.1111   2.1253   2.1803   2.2899   2.3388   2.4000
     2.4001   2.5933   2.5933   2.6010   2.7172   4.3104   4.3105   5.7439
     8.5124   9.8275

          k = 0.0833 0.3333 0.4167 (  5442 PWs)   bands (ev):

     1.4818   1.6538   1.6647   1.7418   1.8586   1.9161   1.9337   1.9481
     1.9541   2.0213   2.0868   2.1467   2.1685   2.3019   2.3194   2.3432
     2.3600   2.5259   2.5676   2.5697   2.9472   3.7471   4.6539   5.4002
     8.6649   9.3470

          k = 0.0833 0.3333-0.5000 (  5440 PWs)   bands (ev):

     1.6026   1.6028   1.7189   1.7189   1.8876   1.8877   1.9168   1.9170
     2.0171   2.0172   2.1036   2.1037   2.2372   2.2373   2.3138   2.3138
     2.4388   2.4389   2.5581   2.5583   3.2868   3.2869   5.0238   5.0239
     8.9516   8.9518

          k = 0.0833 0.4167 0.4167 (  5438 PWs)   bands (ev):

     1.5664   1.6649   1.6965   1.6967   1.8920   1.8921   1.9267   1.9480
     2.0590   2.0591   2.1584   2.1596   2.1804   2.2529   2.2949   2.2950
     2.3406   2.4930   2.4931   2.5161   3.2428   4.1043   4.1044   4.9501
     8.9018   9.7450

          k = 0.0833 0.4167-0.5000 (  5432 PWs)   bands (ev):

     1.6367   1.6368   1.6871   1.6872   1.9109   1.9110   1.9163   1.9164
     2.1150   2.1151   2.1524   2.1526   2.2259   2.2261   2.2593   2.2594
     2.4081   2.4082   2.4863   2.4864   3.6282   3.6283   4.5086   4.5087
     9.2698   9.2700

          k = 0.0833-0.5000-0.5000 (  5432 PWs)   bands (ev):

     1.6616   1.6616   1.6618   1.6619   1.9178   1.9179   1.9179   1.9181
     2.1934   2.1934   2.1936   2.1937   2.2026   2.2029   2.2029   2.2030
     2.4246   2.4247   2.4247   2.4249   4.0366   4.0366   4.0367   4.0369
     9.7047   9.7050

          k = 0.1667 0.1667 0.1667 (  5443 PWs)   bands (ev):

     0.6623   1.4889   1.4890   1.4890   1.6314   1.6316   1.6316   1.9485
     2.0315   2.0315   2.3508   2.3508   2.4635   2.4635   2.4637   2.4915
     2.4915   2.4915   2.7191   2.7192   2.7192   5.3313   5.3313   5.3315
     9.0574   9.0575

          k = 0.1667 0.1667 0.2500 (  5447 PWs)   bands (ev):

     0.8451   1.5178   1.5273   1.5274   1.6829   1.7248   1.7250   1.9472
     2.0537   2.0588   2.3323   2.3323   2.3374   2.3675   2.3986   2.4221
     2.4595   2.4596   2.7057   2.7065   2.7066   4.5859   5.4984   5.4985
     8.8371   8.8373

          k = 0.1667 0.1667 0.3333 (  5437 PWs)   bands (ev):

     1.0757   1.5450   1.5937   1.5937   1.7492   1.8155   1.8156   1.9234
     2.0803   2.0887   2.1953   2.1953   2.2477   2.3455   2.3868   2.4193
     2.4193   2.4565   2.6767   2.6890   2.6892   3.9070   5.6741   5.6743
     8.5741   8.5743

          k = 0.1667 0.1667 0.4167 (  5444 PWs)   bands (ev):

     1.3126   1.5500   1.6833   1.6834   1.8204   1.8517   1.8519   1.8985
     2.0564   2.1074   2.1075   2.1235   2.1372   2.2690   2.3702   2.3703
     2.5185   2.5619   2.6334   2.6758   2.6759   3.3275   5.8130   5.8132
     8.3592   8.3595

          k = 0.1667 0.1667-0.5000 (  5464 PWs)   bands (ev):

     1.4860   1.4862   1.7773   1.7773   1.7915   1.7917   1.8741   1.8744
     2.0461   2.0461   2.0970   2.0970   2.1981   2.1982   2.3433   2.3434
     2.5791   2.5792   2.6711   2.6712   2.8743   2.8743   5.8671   5.8673
     8.2759   8.2761

          k = 0.1667 0.2500 0.2500 (  5444 PWs)   bands (ev):

     0.9955   1.5412   1.5471   1.5472   1.7754   1.7755   1.8132   1.9920
     2.0540   2.0764   2.2441   2.2443   2.2873   2.3476   2.3796   2.3934
     2.3935   2.4408   2.6929   2.6996   2.6997   4.8069   4.8070   5.6273
     8.4537   9.2355

          k = 0.1667 0.2500 0.3333 (  5446 PWs)   bands (ev):

     1.1747   1.5592   1.5811   1.6017   1.8430   1.8516   1.8819   1.9929
     2.0732   2.1094   2.1357   2.1485   2.2076   2.3150   2.3382   2.3681
     2.3877   2.5376   2.6706   2.6767   2.6784   4.1481   5.0699   5.7286
     8.1163   8.7439

          k = 0.1667 0.2500 0.4167 (  5447 PWs)   bands (ev):

     1.3479   1.5448   1.6425   1.6718   1.8478   1.8796   1.9218   1.9873
     2.0617   2.0726   2.1159   2.1200   2.1752   2.2370   2.3032   2.3316
     2.4912   2.6356   2.6510   2.6559   2.7306   3.5633   5.3444   5.7280
     7.9551   8.3219

          k = 0.1667 0.2500-0.5000 (  5444 PWs)   bands (ev):

     1.4780   1.4782   1.7026   1.7026   1.8257   1.8259   1.9992   1.9993
     2.0091   2.0093   2.1651   2.1652   2.1683   2.1685   2.2950   2.2950
     2.5752   2.5754   2.6447   2.6449   3.0809   3.0809   5.5858   5.5860
     8.0350   8.0352

          k = 0.1667 0.3333 0.3333 (  5451 PWs)   bands (ev):

     1.2858   1.5885   1.5926   1.5926   1.8960   1.8961   1.9168   2.0034
     2.0704   2.0936   2.0937   2.2042   2.2230   2.2717   2.3007   2.3009
     2.3733   2.6429   2.6545   2.6545   2.7040   4.4468   4.4470   5.6819
     7.8419   9.0668

          k = 0.1667 0.3333 0.4167 (  5448 PWs)   bands (ev):

     1.3931   1.5545   1.6122   1.6289   1.8707   1.9003   1.9360   1.9875
     2.0869   2.0879   2.1392   2.2167   2.2341   2.2344   2.2446   2.2862
     2.4470   2.6104   2.6161   2.6251   2.9730   3.8674   4.7868   5.4711
     7.8502   8.5301

          k = 0.1667 0.3333-0.5000 (  5464 PWs)   bands (ev):

     1.4856   1.4858   1.6362   1.6363   1.8653   1.8655   1.9645   1.9646
     2.1023   2.1024   2.1968   2.1970   2.1985   2.1985   2.2674   2.2675
     2.5413   2.5415   2.6075   2.6076   3.3668   3.3668   5.1445   5.1447
     8.1065   8.1067

          k = 0.1667 0.4167 0.4167 (  5454 PWs)   bands (ev):

     1.4466   1.5691   1.5692   1.5931   1.9065   1.9077   1.9077   1.9717
     2.0875   2.1389   2.1391   2.1827   2.2707   2.2707   2.3003   2.3176
     2.4291   2.5752   2.5753   2.5763   3.3029   4.2305   4.2307   5.0766
     8.0285   8.9022

          k = 0.1667 0.4167-0.5000 (  5450 PWs)   bands (ev):

     1.5062   1.5063   1.5812   1.5813   1.9018   1.9019   1.9442   1.9443
     2.1098   2.1099   2.1570   2.1571   2.3007   2.3009   2.3133   2.3134
     2.5019   2.5020   2.5557   2.5558   3.7265   3.7266   4.6424   4.6425
     8.3995   8.3997

          k = 0.1667-0.5000-0.5000 (  5420 PWs)   bands (ev):

     1.5380   1.5380   1.5380   1.5383   1.9278   1.9279   1.9279   1.9281
     2.1213   2.1213   2.1215   2.1216   2.3487   2.3489   2.3489   2.3490
     2.5014   2.5014   2.5014   2.5016   4.1569   4.1569   4.1569   4.1572
     8.8406   8.8409

          k = 0.2500 0.2500 0.2500 (  5440 PWs)   bands (ev):

     1.0967   1.5460   1.5460   1.5460   1.8533   1.8535   1.8535   2.0430
     2.0430   2.1531   2.2269   2.2269   2.2270   2.3055   2.3055   2.3055
     2.4181   2.4181   2.7035   2.7035   2.7035   5.0104   5.0104   5.0106
     8.6316   8.6317

          k = 0.2500 0.2500 0.3333 (  5461 PWs)   bands (ev):

     1.2125   1.5351   1.5662   1.5662   1.8912   1.8914   1.9034   2.0269
     2.0474   2.1730   2.1940   2.1940   2.2312   2.2539   2.2770   2.2771
     2.4919   2.5078   2.6876   2.6877   2.6956   4.3740   5.2472   5.2474
     8.0795   8.0797

          k = 0.2500 0.2500 0.4167 (  5444 PWs)   bands (ev):

     1.3262   1.4961   1.5982   1.5982   1.8685   1.8687   1.9506   2.0059
     2.0694   2.1511   2.1639   2.2038   2.2039   2.2243   2.2694   2.2694
     2.5619   2.6651   2.6652   2.6680   2.8199   3.7782   5.4615   5.4617
     7.6675   7.6677

          k = 0.2500 0.2500-0.5000 (  5456 PWs)   bands (ev):

     1.4244   1.4246   1.6167   1.6167   1.8453   1.8455   1.9830   1.9830
     2.1088   2.1090   2.1747   2.1749   2.2206   2.2207   2.2647   2.2649
     2.6221   2.6223   2.6541   2.6542   3.2536   3.2536   5.5557   5.5559
     7.5062   7.5064

          k = 0.2500 0.3333 0.3333 (  5454 PWs)   bands (ev):

     1.2644   1.5283   1.5283   1.5466   1.9017   1.9095   1.9096   2.0207
     2.0309   2.1690   2.1690   2.1973   2.2472   2.2473   2.2752   2.4227
     2.4580   2.6766   2.6869   2.6869   2.7098   4.6637   4.6638   5.4220
     7.5393   8.3076

          k = 0.2500 0.3333 0.4167 (  5459 PWs)   bands (ev):

     1.3279   1.4690   1.5315   1.5390   1.8875   1.8895   1.9364   1.9968
     2.0413   2.1182   2.1524   2.1607   2.2729   2.3161   2.3357   2.3825
     2.5493   2.6556   2.6633   2.6645   3.0702   4.0766   4.9921   5.4755
     7.2624   7.7511

          k = 0.2500 0.3333-0.5000 (  5476 PWs)   bands (ev):

     1.3986   1.3987   1.5359   1.5360   1.8779   1.8781   1.9670   1.9670
     2.0719   2.0720   2.1490   2.1490   2.3233   2.3235   2.3551   2.3553
     2.6191   2.6192   2.6464   2.6465   3.5362   3.5362   5.3030   5.3032
     7.3611   7.3614

          k = 0.2500 0.4167 0.4167 (  5461 PWs)   bands (ev):

     1.3532   1.4609   1.4610   1.4962   1.9044   1.9202   1.9202   1.9835
     2.0308   2.0947   2.0948   2.1112   2.3785   2.3786   2.4107   2.4922
     2.5131   2.6311   2.6388   2.6388   3.4464   4.4451   4.4453   5.2494
     7.2544   8.0796

          k = 0.2500 0.4167-0.5000 (  5472 PWs)   bands (ev):

     1.3990   1.3991   1.4702   1.4703   1.9118   1.9120   1.9551   1.9552
     2.0512   2.0514   2.0902   2.0903   2.4350   2.4352   2.4417   2.4418
     2.5873   2.5874   2.6170   2.6171   3.9147   3.9148   4.8582   4.8583
     7.5737   7.5739

          k = 0.2500-0.5000-0.5000 (  5476 PWs)   bands (ev):

     1.4236   1.4236   1.4236   1.4239   1.9392   1.9393   1.9393   1.9395
     2.0552   2.0552   2.0553   2.0555   2.4894   2.4895   2.4895   2.4897
     2.5738   2.5738   2.5738   2.5740   4.3677   4.3677   4.3677   4.3680
     8.0001   8.0002

          k = 0.3333 0.3333 0.3333 (  5430 PWs)   bands (ev):

     1.2672   1.4824   1.4824   1.4825   1.9106   1.9108   1.9108   2.0106
     2.0106   2.1283   2.1283   2.1283   2.3326   2.3327   2.3327   2.5369
     2.5369   2.6917   2.6917   2.6917   2.9094   4.9404   4.9404   4.9406
     7.6286   7.6288

          k = 0.3333 0.3333 0.4167 (  5461 PWs)   bands (ev):

     1.2951   1.4106   1.4553   1.4554   1.9054   1.9055   1.9348   1.9900
     2.0107   2.0716   2.0939   2.0940   2.3934   2.4184   2.4185   2.5088
     2.6040   2.6770   2.6771   2.6844   3.3203   4.3738   5.2242   5.2244
     7.0993   7.0995

          k = 0.3333 0.3333-0.5000 (  5452 PWs)   bands (ev):

     1.3449   1.3450   1.4463   1.4464   1.9020   1.9021   1.9634   1.9634
     2.0314   2.0316   2.0832   2.0832   2.4541   2.4543   2.4552   2.4553
     2.6544   2.6545   2.6651   2.6652   3.8194   3.8195   5.3675   5.3677
     6.8735   6.8737

          k = 0.3333 0.4167 0.4167 (  5474 PWs)   bands (ev):

     1.2948   1.3801   1.3803   1.4035   1.9201   1.9319   1.9319   1.9831
     1.9926   2.0410   2.0411   2.0499   2.4916   2.4916   2.5041   2.5855
     2.6039   2.6687   2.6755   2.6755   3.7182   4.7416   4.7418   5.3345
     6.7356   7.3369

          k = 0.3333 0.4167-0.5000 (  5472 PWs)   bands (ev):

     1.3245   1.3246   1.3780   1.3781   1.9282   1.9284   1.9597   1.9598
     2.0060   2.0061   2.0324   2.0325   2.5391   2.5393   2.5523   2.5524
     2.6486   2.6488   2.6591   2.6592   4.2086   4.2088   5.1218   5.1220
     6.8655   6.8657

          k = 0.3333-0.5000-0.5000 (  5464 PWs)   bands (ev):

     1.3362   1.3362   1.3362   1.3365   1.9500   1.9501   1.9501   1.9503
     2.0040   2.0040   2.0041   2.0042   2.5961   2.5962   2.5962   2.5964
     2.6314   2.6314   2.6314   2.6316   4.6690   4.6691   4.6691   4.6694
     7.2370   7.2372

          k = 0.4167 0.4167 0.4167 (  5469 PWs)   bands (ev):

     1.2727   1.3305   1.3305   1.3307   1.9409   1.9411   1.9411   1.9751
     1.9751   2.0048   2.0048   2.0048   2.5771   2.5772   2.5772   2.6407
     2.6407   2.6838   2.6838   2.6838   4.1167   5.0784   5.0784   5.0787
     6.7298   6.7300

          k = 0.4167 0.4167-0.5000 (  5486 PWs)   bands (ev):

     1.2854   1.2855   1.3138   1.3139   1.9448   1.9450   1.9604   1.9605
     1.9792   1.9794   1.9917   1.9918   2.6159   2.6160   2.6256   2.6257
     2.6743   2.6744   2.6767   2.6768   4.5983   4.5985   5.2737   5.2739
     6.4443   6.4445

          k = 0.4167-0.5000-0.5000 (  5468 PWs)   bands (ev):

     1.2821   1.2821   1.2821   1.2824   1.9579   1.9580   1.9580   1.9582
     1.9717   1.9717   1.9718   1.9720   2.6600   2.6600   2.6600   2.6602
     2.6683   2.6683   2.6683   2.6685   5.0257   5.0257   5.0257   5.0261
     6.6021   6.6023

          k =-0.5000-0.5000-0.5000 (  5520 PWs)   bands (ev):

     1.2639   1.2639   1.2639   1.2641   1.9607   1.9607   1.9607   1.9608
     1.9608   1.9608   1.9610   1.9610   2.6810   2.6810   2.6810   2.6810
     2.6810   2.6810   2.6812   2.6812   5.2458   5.2458   5.2458   5.2462
     6.2893   6.2896

     the Fermi energy is     5.4889 ev

!    total energy              =   -3100.56865549 Ry

     total all-electron energy =   -152095.953020 Ry
     estimated scf accuracy    <       0.00000003 Ry
     smearing contrib. (-TS)   =      -0.90601841 Ry
     internal energy E=F+TS    =   -3099.66263708 Ry

     The total energy is F=E-TS. E is the sum of the following terms:
     one-electron contribution =     -31.56308096 Ry
     hartree contribution      =      57.67919040 Ry
     xc contribution           =    -127.05134847 Ry
     ewald contribution        =    -228.80359290 Ry
     one-center paw contrib.   =   -2769.92380515 Ry

     convergence has been achieved in  16 iterations

     Forces acting on atoms (cartesian axes, Ry/au):

     atom    1 type  1   force =     0.00000000    0.00000000   -0.00000000
     atom    2 type  1   force =     0.00000000    0.00000000    0.00000000
     atom    3 type  1   force =     0.00000000    0.00000000   -0.00000000
     atom    4 type  1   force =     0.00000000   -0.00000000   -0.00000000

     Total force =     0.000000     Total SCF correction =     0.000000

     Writing all to output data dir ./pwscf.save/
 
     init_run     :      1.11s CPU      1.99s WALL (       1 calls)
     electrons    :     48.87s CPU     50.61s WALL (       1 calls)
     forces       :      0.27s CPU      0.42s WALL (       1 calls)

     Called by init_run:
     wfcinit      :      0.91s CPU      0.93s WALL (       1 calls)
     potinit      :      0.07s CPU      0.46s WALL (       1 calls)
     hinit0       :      0.08s CPU      0.25s WALL (       1 calls)

     Called by electrons:
     c_bands      :     42.54s CPU     43.13s WALL (      17 calls)
     sum_band     :      5.14s CPU      5.28s WALL (      17 calls)
     v_of_rho     :      0.15s CPU      1.47s WALL (      17 calls)
     newd         :      0.17s CPU      0.40s WALL (      17 calls)
     PAW_pot      :      0.91s CPU      0.92s WALL (      17 calls)
     mix_rho      :      0.01s CPU      0.02s WALL (      17 calls)

     Called by c_bands:
     init_us_2    :      0.33s CPU      0.34s WALL (    3024 calls)
     init_us_2:cp :      0.33s CPU      0.33s WALL (    3024 calls)
     cegterg      :     40.17s CPU     40.71s WALL (    1428 calls)

     Called by *egterg:
     cdiaghg      :      7.34s CPU      7.41s WALL (    5480 calls)
     h_psi        :     26.07s CPU     26.48s WALL (    5648 calls)
     s_psi        :      1.16s CPU      1.18s WALL (    5648 calls)
     g_psi        :      0.11s CPU      0.11s WALL (    4136 calls)

     Called by h_psi:
     h_psi:calbec :      1.65s CPU      1.68s WALL (    5648 calls)
     vloc_psi     :     23.18s CPU     23.56s WALL (    5648 calls)
     add_vuspsi   :      1.15s CPU      1.17s WALL (    5648 calls)

     General routines
     calbec       :      2.26s CPU      2.30s WALL (    7412 calls)
     fft          :      0.32s CPU      2.19s WALL (     199 calls)
     ffts         :      0.01s CPU      0.04s WALL (      17 calls)
     fftw         :     25.76s CPU     26.18s WALL (  261930 calls)
 
     Parallel routines
 
     PWSCF        :     53.76s CPU     58.80s WALL

 
   This run was terminated on:  12:36:50   5Apr2024            

=------------------------------------------------------------------------------=
   JOB DONE.
=------------------------------------------------------------------------------=
