MPI startup(): Warning: I_MPI_PMI_LIBRARY will be ignored since the hydra process manager was found
MPI startup(): Warning: I_MPI_PMI_LIBRARY will be ignored since the hydra process manager was found
MPI startup(): Warning: I_MPI_PMI_LIBRARY will be ignored since the hydra process manager was found
MPI startup(): Warning: I_MPI_PMI_LIBRARY will be ignored since the hydra process manager was found
MPI startup(): Warning: I_MPI_PMI_LIBRARY will be ignored since the hydra process manager was found
MPI startup(): Warning: I_MPI_PMI_LIBRARY will be ignored since the hydra process manager was found
MPI startup(): Warning: I_MPI_PMI_LIBRARY will be ignored since the hydra process manager was found
MPI startup(): Warning: I_MPI_PMI_LIBRARY will be ignored since the hydra process manager was found
MPI startup(): Warning: I_MPI_PMI_LIBRARY will be ignored since the hydra process manager was found
MPI startup(): Warning: I_MPI_PMI_LIBRARY will be ignored since the hydra process manager was found

     Program PWSCF v.7.0 starts on  5Apr2024 at 12:35:51 

     This program is part of the open-source Quantum ESPRESSO suite
     for quantum simulation of materials; please cite
         "P. Giannozzi et al., J. Phys.:Condens. Matter 21 395502 (2009);
         "P. Giannozzi et al., J. Phys.:Condens. Matter 29 465901 (2017);
         "P. Giannozzi et al., J. Chem. Phys. 152 154105 (2020);
          URL http://www.quantum-espresso.org", 
     in publications or presentations arising from this work. More details at
     http://www.quantum-espresso.org/quote

     Parallel version (MPI), running on    10 processors

     MPI processes distributed on     1 nodes
     R & G space division:  proc/nbgrp/npool/nimage =      10
     232109 MiB available memory on the printing compute node when the environment starts
 
     Reading input from VolumeFCC_9.9.in
Warning: card &CELL ignored
Warning: card / ignored

     Current dimensions of program PWSCF are:
     Max number of different atomic species (ntypx) = 10
     Max number of k-points (npk) =  40000
     Max angular momentum in pseudopotentials (lmaxx) =  4
     file Au.pbe-n-kjpaw_psl.1.0.0.UPF: wavefunction(s)  6S 5D renormalized
     Found identity + (  0.5000  0.5000  0.0000) symmetry
     This is a supercell, fractional translations are disabled
     Message from routine setup:
     using ibrav=0 with symmetry is DISCOURAGED, use correct ibrav instead

     Subspace diagonalization in iterative solution of the eigenvalue problem:
     one sub-group per band group will be used
     scalapack distributed-memory algorithm (size of sub-group:  3*  3 procs)

 
     Parallelization info
     --------------------
     sticks:   dense  smooth     PW     G-vecs:    dense   smooth      PW
     Min         156     156     44                 4628     4628     713
     Max         157     157     45                 4631     4631     716
     Sum        1565    1565    441                46297    46297    7153
 
     Using Slab Decomposition
 


     bravais-lattice index     =            0
     lattice parameter (alat)  =       9.8986  a.u.
     unit-cell volume          =     969.8773 (a.u.)^3
     number of atoms/cell      =            4
     number of atomic types    =            1
     number of electrons       =        44.00
     number of Kohn-Sham states=           26
     kinetic-energy cutoff     =      50.0000  Ry
     charge density cutoff     =     200.0000  Ry
     scf convergence threshold =      1.0E-06
     mixing beta               =       0.7000
     number of iterations used =            8  plain     mixing
     Exchange-correlation= SLA  PW   PBX  PBC
                           (   1   4   3   4   0   0   0)

     celldm(1)=   9.898565  celldm(2)=   0.000000  celldm(3)=   0.000000
     celldm(4)=   0.000000  celldm(5)=   0.000000  celldm(6)=   0.000000

     crystal axes: (cart. coord. in units of alat)
               a(1) = (   1.000000   0.000000   0.000000 )  
               a(2) = (   0.000000   1.000000   0.000000 )  
               a(3) = (   0.000000   0.000000   1.000000 )  

     reciprocal axes: (cart. coord. in units 2 pi/alat)
               b(1) = (  1.000000  0.000000  0.000000 )  
               b(2) = (  0.000000  1.000000  0.000000 )  
               b(3) = (  0.000000  0.000000  1.000000 )  


     PseudoPot. # 1 for Au read from file:
     ./Au.pbe-n-kjpaw_psl.1.0.0.UPF
     MD5 check sum: 4db85c736373c707a97ce4c36c2a9d23
     Pseudo is Projector augmented-wave + core cor, Zval = 11.0
     Generated using &quot;atomic&quot; code by A. Dal Corso  v.6.3
     Shape of augmentation charge: PSQ
     Using radial grid of 1279 points,  6 beta functions with: 
                l(1) =   0
                l(2) =   0
                l(3) =   1
                l(4) =   1
                l(5) =   2
                l(6) =   2
     Q(r) pseudized with 0 coefficients 


     atomic species   valence    mass     pseudopotential
        Au            11.00   196.96657     Au( 1.00)

     48 Sym. Ops., with inversion, found



   Cartesian axes

     site n.     atom                  positions (alat units)
         1           Au  tau(   1) = (   0.0000000   0.0000000   0.0000000  )
         2           Au  tau(   2) = (   0.5000000   0.5000000   0.0000000  )
         3           Au  tau(   3) = (   0.5000000   0.0000000   0.5000000  )
         4           Au  tau(   4) = (   0.0000000   0.5000000   0.5000000  )

     number of k points=    84  Gaussian smearing, width (Ry)=  0.2000
                       cart. coord. in units 2pi/alat
        k(    1) = (   0.0000000   0.0000000   0.0000000), wk =   0.0011574
        k(    2) = (   0.0000000   0.0000000   0.0833333), wk =   0.0069444
        k(    3) = (   0.0000000   0.0000000   0.1666667), wk =   0.0069444
        k(    4) = (   0.0000000   0.0000000   0.2500000), wk =   0.0069444
        k(    5) = (   0.0000000   0.0000000   0.3333333), wk =   0.0069444
        k(    6) = (   0.0000000   0.0000000   0.4166667), wk =   0.0069444
        k(    7) = (   0.0000000   0.0000000  -0.5000000), wk =   0.0034722
        k(    8) = (   0.0000000   0.0833333   0.0833333), wk =   0.0138889
        k(    9) = (   0.0000000   0.0833333   0.1666667), wk =   0.0277778
        k(   10) = (   0.0000000   0.0833333   0.2500000), wk =   0.0277778
        k(   11) = (   0.0000000   0.0833333   0.3333333), wk =   0.0277778
        k(   12) = (   0.0000000   0.0833333   0.4166667), wk =   0.0277778
        k(   13) = (   0.0000000   0.0833333  -0.5000000), wk =   0.0138889
        k(   14) = (   0.0000000   0.1666667   0.1666667), wk =   0.0138889
        k(   15) = (   0.0000000   0.1666667   0.2500000), wk =   0.0277778
        k(   16) = (   0.0000000   0.1666667   0.3333333), wk =   0.0277778
        k(   17) = (   0.0000000   0.1666667   0.4166667), wk =   0.0277778
        k(   18) = (   0.0000000   0.1666667  -0.5000000), wk =   0.0138889
        k(   19) = (   0.0000000   0.2500000   0.2500000), wk =   0.0138889
        k(   20) = (   0.0000000   0.2500000   0.3333333), wk =   0.0277778
        k(   21) = (   0.0000000   0.2500000   0.4166667), wk =   0.0277778
        k(   22) = (   0.0000000   0.2500000  -0.5000000), wk =   0.0138889
        k(   23) = (   0.0000000   0.3333333   0.3333333), wk =   0.0138889
        k(   24) = (   0.0000000   0.3333333   0.4166667), wk =   0.0277778
        k(   25) = (   0.0000000   0.3333333  -0.5000000), wk =   0.0138889
        k(   26) = (   0.0000000   0.4166667   0.4166667), wk =   0.0138889
        k(   27) = (   0.0000000   0.4166667  -0.5000000), wk =   0.0138889
        k(   28) = (   0.0000000  -0.5000000  -0.5000000), wk =   0.0034722
        k(   29) = (   0.0833333   0.0833333   0.0833333), wk =   0.0092593
        k(   30) = (   0.0833333   0.0833333   0.1666667), wk =   0.0277778
        k(   31) = (   0.0833333   0.0833333   0.2500000), wk =   0.0277778
        k(   32) = (   0.0833333   0.0833333   0.3333333), wk =   0.0277778
        k(   33) = (   0.0833333   0.0833333   0.4166667), wk =   0.0277778
        k(   34) = (   0.0833333   0.0833333  -0.5000000), wk =   0.0138889
        k(   35) = (   0.0833333   0.1666667   0.1666667), wk =   0.0277778
        k(   36) = (   0.0833333   0.1666667   0.2500000), wk =   0.0555556
        k(   37) = (   0.0833333   0.1666667   0.3333333), wk =   0.0555556
        k(   38) = (   0.0833333   0.1666667   0.4166667), wk =   0.0555556
        k(   39) = (   0.0833333   0.1666667  -0.5000000), wk =   0.0277778
        k(   40) = (   0.0833333   0.2500000   0.2500000), wk =   0.0277778
        k(   41) = (   0.0833333   0.2500000   0.3333333), wk =   0.0555556
        k(   42) = (   0.0833333   0.2500000   0.4166667), wk =   0.0555556
        k(   43) = (   0.0833333   0.2500000  -0.5000000), wk =   0.0277778
        k(   44) = (   0.0833333   0.3333333   0.3333333), wk =   0.0277778
        k(   45) = (   0.0833333   0.3333333   0.4166667), wk =   0.0555556
        k(   46) = (   0.0833333   0.3333333  -0.5000000), wk =   0.0277778
        k(   47) = (   0.0833333   0.4166667   0.4166667), wk =   0.0277778
        k(   48) = (   0.0833333   0.4166667  -0.5000000), wk =   0.0277778
        k(   49) = (   0.0833333  -0.5000000  -0.5000000), wk =   0.0069444
        k(   50) = (   0.1666667   0.1666667   0.1666667), wk =   0.0092593
        k(   51) = (   0.1666667   0.1666667   0.2500000), wk =   0.0277778
        k(   52) = (   0.1666667   0.1666667   0.3333333), wk =   0.0277778
        k(   53) = (   0.1666667   0.1666667   0.4166667), wk =   0.0277778
        k(   54) = (   0.1666667   0.1666667  -0.5000000), wk =   0.0138889
        k(   55) = (   0.1666667   0.2500000   0.2500000), wk =   0.0277778
        k(   56) = (   0.1666667   0.2500000   0.3333333), wk =   0.0555556
        k(   57) = (   0.1666667   0.2500000   0.4166667), wk =   0.0555556
        k(   58) = (   0.1666667   0.2500000  -0.5000000), wk =   0.0277778
        k(   59) = (   0.1666667   0.3333333   0.3333333), wk =   0.0277778
        k(   60) = (   0.1666667   0.3333333   0.4166667), wk =   0.0555556
        k(   61) = (   0.1666667   0.3333333  -0.5000000), wk =   0.0277778
        k(   62) = (   0.1666667   0.4166667   0.4166667), wk =   0.0277778
        k(   63) = (   0.1666667   0.4166667  -0.5000000), wk =   0.0277778
        k(   64) = (   0.1666667  -0.5000000  -0.5000000), wk =   0.0069444
        k(   65) = (   0.2500000   0.2500000   0.2500000), wk =   0.0092593
        k(   66) = (   0.2500000   0.2500000   0.3333333), wk =   0.0277778
        k(   67) = (   0.2500000   0.2500000   0.4166667), wk =   0.0277778
        k(   68) = (   0.2500000   0.2500000  -0.5000000), wk =   0.0138889
        k(   69) = (   0.2500000   0.3333333   0.3333333), wk =   0.0277778
        k(   70) = (   0.2500000   0.3333333   0.4166667), wk =   0.0555556
        k(   71) = (   0.2500000   0.3333333  -0.5000000), wk =   0.0277778
        k(   72) = (   0.2500000   0.4166667   0.4166667), wk =   0.0277778
        k(   73) = (   0.2500000   0.4166667  -0.5000000), wk =   0.0277778
        k(   74) = (   0.2500000  -0.5000000  -0.5000000), wk =   0.0069444
        k(   75) = (   0.3333333   0.3333333   0.3333333), wk =   0.0092593
        k(   76) = (   0.3333333   0.3333333   0.4166667), wk =   0.0277778
        k(   77) = (   0.3333333   0.3333333  -0.5000000), wk =   0.0138889
        k(   78) = (   0.3333333   0.4166667   0.4166667), wk =   0.0277778
        k(   79) = (   0.3333333   0.4166667  -0.5000000), wk =   0.0277778
        k(   80) = (   0.3333333  -0.5000000  -0.5000000), wk =   0.0069444
        k(   81) = (   0.4166667   0.4166667   0.4166667), wk =   0.0092593
        k(   82) = (   0.4166667   0.4166667  -0.5000000), wk =   0.0138889
        k(   83) = (   0.4166667  -0.5000000  -0.5000000), wk =   0.0069444
        k(   84) = (  -0.5000000  -0.5000000  -0.5000000), wk =   0.0011574

     Dense  grid:    46297 G-vectors     FFT dimensions: (  45,  45,  45)

     Estimated max dynamical RAM per process >      37.82 MB

     Estimated total dynamical RAM >     378.15 MB

     Initial potential from superposition of free atoms

     starting charge      43.9996, renormalised to      44.0000
     Starting wfcs are   36 randomized atomic wfcs
     Checking if some PAW data can be deallocated... 

     total cpu time spent up to now is        2.0 secs

     Self-consistent Calculation

     iteration #  1     ecut=    50.00 Ry     beta= 0.70
     Davidson diagonalization with overlap
     ethr =  1.00E-02,  avg # of iterations =  2.0

     Threshold (ethr) on eigenvalues was too large:
     Diagonalizing with lowered threshold

     Davidson diagonalization with overlap
     ethr =  7.19E-04,  avg # of iterations =  2.5

     total cpu time spent up to now is        6.3 secs

     total energy              =   -3100.38937578 Ry
     estimated scf accuracy    <       0.33247506 Ry

     iteration #  2     ecut=    50.00 Ry     beta= 0.70
     Davidson diagonalization with overlap
     ethr =  7.56E-04,  avg # of iterations =  2.1

     total cpu time spent up to now is        9.1 secs

     total energy              =   -3100.51451252 Ry
     estimated scf accuracy    <       0.17994698 Ry

     iteration #  3     ecut=    50.00 Ry     beta= 0.70
     Davidson diagonalization with overlap
     ethr =  4.09E-04,  avg # of iterations =  1.6

     total cpu time spent up to now is       11.2 secs

     total energy              =   -3100.54028192 Ry
     estimated scf accuracy    <       0.00833724 Ry

     iteration #  4     ecut=    50.00 Ry     beta= 0.70
     Davidson diagonalization with overlap
     ethr =  1.89E-05,  avg # of iterations =  4.8

     total cpu time spent up to now is       14.8 secs

     total energy              =   -3100.54438026 Ry
     estimated scf accuracy    <       0.00236954 Ry

     iteration #  5     ecut=    50.00 Ry     beta= 0.70
     Davidson diagonalization with overlap
     ethr =  5.39E-06,  avg # of iterations =  6.4

     total cpu time spent up to now is       19.8 secs

     total energy              =   -3100.53851882 Ry
     estimated scf accuracy    <       0.03343961 Ry

     iteration #  6     ecut=    50.00 Ry     beta= 0.70
     Davidson diagonalization with overlap
     ethr =  5.39E-06,  avg # of iterations =  4.3

     total cpu time spent up to now is       23.7 secs

     total energy              =   -3100.54417970 Ry
     estimated scf accuracy    <       0.00037176 Ry

     iteration #  7     ecut=    50.00 Ry     beta= 0.70
     Davidson diagonalization with overlap
     c_bands:  1 eigenvalues not converged
     ethr =  8.45E-07,  avg # of iterations =  5.7

     total cpu time spent up to now is       27.7 secs

     total energy              =   -3100.54434164 Ry
     estimated scf accuracy    <       0.00009156 Ry

     iteration #  8     ecut=    50.00 Ry     beta= 0.70
     Davidson diagonalization with overlap
     ethr =  2.08E-07,  avg # of iterations =  6.0

     total cpu time spent up to now is       32.1 secs

     total energy              =   -3100.54441599 Ry
     estimated scf accuracy    <       0.00003225 Ry

     iteration #  9     ecut=    50.00 Ry     beta= 0.70
     Davidson diagonalization with overlap
     ethr =  7.33E-08,  avg # of iterations =  4.9

     total cpu time spent up to now is       35.9 secs

     total energy              =   -3100.54444428 Ry
     estimated scf accuracy    <       0.00012247 Ry

     iteration # 10     ecut=    50.00 Ry     beta= 0.70
     Davidson diagonalization with overlap
     ethr =  7.33E-08,  avg # of iterations =  1.1

     total cpu time spent up to now is       37.7 secs

     total energy              =   -3100.54443677 Ry
     estimated scf accuracy    <       0.00006074 Ry

     iteration # 11     ecut=    50.00 Ry     beta= 0.70
     Davidson diagonalization with overlap
     ethr =  7.33E-08,  avg # of iterations =  1.0

     total cpu time spent up to now is       39.6 secs

     total energy              =   -3100.54443540 Ry
     estimated scf accuracy    <       0.00003485 Ry

     iteration # 12     ecut=    50.00 Ry     beta= 0.70
     Davidson diagonalization with overlap
     ethr =  7.33E-08,  avg # of iterations =  1.0

     total cpu time spent up to now is       41.5 secs

     total energy              =   -3100.54443425 Ry
     estimated scf accuracy    <       0.00002798 Ry

     iteration # 13     ecut=    50.00 Ry     beta= 0.70
     Davidson diagonalization with overlap
     ethr =  6.36E-08,  avg # of iterations =  1.0

     total cpu time spent up to now is       43.3 secs

     total energy              =   -3100.54443160 Ry
     estimated scf accuracy    <       0.00002263 Ry

     iteration # 14     ecut=    50.00 Ry     beta= 0.70
     Davidson diagonalization with overlap
     ethr =  5.14E-08,  avg # of iterations =  1.0

     total cpu time spent up to now is       45.3 secs

     total energy              =   -3100.54442740 Ry
     estimated scf accuracy    <       0.00001474 Ry

     iteration # 15     ecut=    50.00 Ry     beta= 0.70
     Davidson diagonalization with overlap
     ethr =  3.35E-08,  avg # of iterations =  1.6

     total cpu time spent up to now is       47.2 secs

     total energy              =   -3100.54442636 Ry
     estimated scf accuracy    <       0.00000388 Ry

     iteration # 16     ecut=    50.00 Ry     beta= 0.70
     Davidson diagonalization with overlap
     ethr =  8.81E-09,  avg # of iterations =  5.8

     total cpu time spent up to now is       51.1 secs

     End of self-consistent calculation

          k = 0.0000 0.0000 0.0000 (  5743 PWs)   bands (ev):

    -0.1684   0.9002   0.9002   0.9003   0.9153   0.9153   0.9153   1.3924
     1.3924   1.3924   1.7370   1.7370   2.0093   2.0096   2.0096   2.1042
     2.1042   2.1042   2.1043   2.1043   2.1043   5.7284   5.7284   5.7284
     6.7756   6.7756

          k = 0.0000 0.0000 0.0833 (  5763 PWs)   bands (ev):

    -0.1261   0.9102   0.9163   0.9164   0.9230   0.9292   0.9292   1.3839
     1.4025   1.4025   1.7285   1.7416   1.9980   1.9982   2.0047   2.0723
     2.0723   2.0894   2.0894   2.1042   2.1043   5.1631   5.7235   5.7235
     6.8481   6.8481

          k = 0.0000 0.0000 0.1667 (  5790 PWs)   bands (ev):

    -0.0003   0.9388   0.9458   0.9626   0.9627   0.9708   0.9708   1.3590
     1.4323   1.4323   1.7044   1.7548   1.9646   1.9648   1.9833   1.9833
     1.9907   2.0467   2.0467   2.1043   2.1043   4.3395   5.7097   5.7097
     7.0584   7.0584

          k = 0.0000 0.0000 0.2500 (  5790 PWs)   bands (ev):

     0.2045   0.9809   0.9823   1.0326   1.0326   1.0394   1.0394   1.3196
     1.4808   1.4808   1.6709   1.7760   1.8532   1.8532   1.9122   1.9125
     1.9686   1.9809   1.9809   2.1043   2.1044   3.5580   5.6905   5.6905
     7.3888   7.3888

          k = 0.0000 0.0000 0.3333 (  5774 PWs)   bands (ev):

     0.4755   1.0261   1.0303   1.1139   1.1139   1.1337   1.1337   1.2687
     1.5460   1.5460   1.6431   1.7007   1.7007   1.8037   1.8486   1.8489
     1.8985   1.8985   1.9399   2.1044   2.1044   2.8573   5.6708   5.6708
     7.8178   7.8178

          k = 0.0000 0.0000 0.4167 (  5794 PWs)   bands (ev):

     0.7734   1.0501   1.0867   1.1852   1.1852   1.2101   1.2517   1.2517
     1.5422   1.5422   1.6250   1.6250   1.6637   1.7903   1.7905   1.8070
     1.8070   1.8362   1.9067   2.1044   2.1045   2.2657   5.6559   5.6559
     8.3249   8.3249

          k = 0.0000 0.0000-0.5000 (  5750 PWs)   bands (ev):

     0.9909   0.9910   1.1480   1.1481   1.2154   1.2154   1.3896   1.3896
     1.3898   1.3898   1.7136   1.7136   1.7139   1.7139   1.7649   1.7651
     1.8438   1.8440   1.8713   1.8714   2.1045   2.1045   5.6504   5.6504
     8.8914   8.8915

          k = 0.0000 0.0833 0.0833 (  5783 PWs)   bands (ev):

    -0.0842   0.9207   0.9264   0.9265   0.9368   0.9368   0.9541   1.3827
     1.4055   1.4120   1.7266   1.7403   1.9871   1.9892   1.9894   2.0525
     2.0613   2.0613   2.0894   2.0894   2.0932   5.1877   5.1878   5.7169
     6.9196   7.4463

          k = 0.0000 0.0833 0.1667 (  5771 PWs)   bands (ev):

     0.0401   0.9498   0.9553   0.9591   0.9730   0.9779   1.0107   1.3616
     1.4321   1.4398   1.7061   1.7529   1.9313   1.9549   1.9603   1.9710
     1.9966   2.0325   2.0466   2.0882   2.0893   4.3821   5.2521   5.6978
     7.1277   7.5629

          k = 0.0000 0.0833 0.2500 (  5777 PWs)   bands (ev):

     0.2421   0.9948   0.9980   1.0055   1.0434   1.0456   1.0898   1.3238
     1.4800   1.4833   1.6767   1.7768   1.8154   1.8451   1.9045   1.9059
     1.9310   1.9805   1.9961   2.0874   2.0891   3.6126   5.3340   5.6681
     7.4551   7.7611

          k = 0.0000 0.0833 0.3333 (  5788 PWs)   bands (ev):

     0.5087   1.0417   1.0444   1.0836   1.1251   1.1387   1.1822   1.2744
     1.5302   1.5450   1.6655   1.6703   1.6962   1.8092   1.8273   1.8432
     1.8627   1.8978   1.9572   2.0874   2.0888   2.9239   5.4136   5.6304
     7.8810   8.0385

          k = 0.0000 0.0833 0.4167 (  5783 PWs)   bands (ev):

     0.8003   1.0703   1.0969   1.1694   1.1959   1.2173   1.2550   1.2786
     1.5215   1.5408   1.5609   1.6239   1.7293   1.7304   1.7880   1.7996
     1.8062   1.8508   1.9150   2.0877   2.0885   2.3501   5.4816   5.5870
     8.3832   8.3853

          k = 0.0000 0.0833-0.5000 (  5806 PWs)   bands (ev):

     1.0134   1.0134   1.1567   1.1567   1.2194   1.2194   1.3868   1.3870
     1.3908   1.3910   1.6257   1.6259   1.7126   1.7129   1.7677   1.7680
     1.8587   1.8587   1.9621   1.9622   2.0881   2.0881   5.5382   5.5382
     8.7763   8.7763

          k = 0.0000 0.1667 0.1667 (  5792 PWs)   bands (ev):

     0.1598   0.9614   0.9987   0.9987   1.0027   1.0028   1.0780   1.3575
     1.4436   1.4615   1.6989   1.7614   1.8714   1.8715   1.9187   1.9263
     1.9974   1.9976   2.0460   2.0460   2.0607   4.4992   4.4993   5.6612
     7.3296   8.4483

          k = 0.0000 0.1667 0.2500 (  5790 PWs)   bands (ev):

     0.3529   1.0005   1.0319   1.0473   1.0638   1.0745   1.1629   1.3314
     1.4827   1.4925   1.6793   1.7439   1.7939   1.7940   1.8148   1.8810
     1.9459   1.9793   1.9808   2.0451   2.0469   3.7615   4.6661   5.5979
     7.6488   8.4645

          k = 0.0000 0.1667 0.3333 (  5780 PWs)   bands (ev):

     0.6046   1.0651   1.0756   1.0970   1.1533   1.1577   1.2541   1.2891
     1.5122   1.5444   1.6028   1.6803   1.6835   1.7017   1.8260   1.8484
     1.8813   1.8961   1.9483   2.0425   2.0441   3.0979   4.8563   5.5051
     8.0663   8.4883

          k = 0.0000 0.1667 0.4167 (  5785 PWs)   bands (ev):

     0.8758   1.1267   1.1281   1.1485   1.2265   1.2376   1.2645   1.3331
     1.4722   1.5041   1.5355   1.6003   1.6221   1.7478   1.7792   1.8040
     1.8148   1.9006   1.9424   2.0415   2.0429   2.5445   5.0485   5.3811
     8.5368   8.5632

          k = 0.0000 0.1667-0.5000 (  5794 PWs)   bands (ev):

     1.0759   1.0759   1.1821   1.1821   1.2258   1.2259   1.3877   1.3878
     1.3938   1.3940   1.5191   1.5193   1.7104   1.7106   1.7715   1.7717
     1.8344   1.8345   2.0419   2.0419   2.1500   2.1501   5.2270   5.2270
     8.6404   8.6404

          k = 0.0000 0.2500 0.2500 (  5764 PWs)   bands (ev):

     0.5287   1.0215   1.0929   1.0930   1.1219   1.1220   1.2489   1.3279
     1.5038   1.5088   1.6580   1.6581   1.6640   1.7487   1.8431   1.8488
     1.9407   1.9408   1.9776   1.9777   2.0081   3.9755   3.9755   5.4730
     7.9571   9.0827

          k = 0.0000 0.2500 0.3333 (  5791 PWs)   bands (ev):

     0.7511   1.0679   1.1308   1.1762   1.1772   1.2087   1.3046   1.3357
     1.5131   1.5209   1.5525   1.5637   1.6457   1.6633   1.7965   1.8832
     1.8938   1.9136   1.9449   1.9757   1.9860   3.3394   4.2293   5.2897
     8.3630   8.7764

          k = 0.0000 0.2500 0.4167 (  5802 PWs)   bands (ev):

     0.9821   1.1378   1.1749   1.2153   1.2666   1.2712   1.2789   1.3998
     1.4160   1.4746   1.4804   1.5228   1.6237   1.7158   1.7595   1.8017
     1.8179   1.8644   1.9742   1.9767   2.1040   2.7952   4.5048   5.0547
     8.6351   8.7658

          k = 0.0000 0.2500-0.5000 (  5778 PWs)   bands (ev):

     1.1601   1.1602   1.2215   1.2216   1.2235   1.2236   1.3967   1.3969
     1.4102   1.4103   1.4446   1.4448   1.7090   1.7093   1.7658   1.7661
     1.7945   1.7946   1.9739   1.9740   2.3769   2.3770   4.7860   4.7860
     8.6420   8.6420

          k = 0.0000 0.3333 0.3333 (  5788 PWs)   bands (ev):

     0.9239   1.0932   1.2054   1.2055   1.2721   1.2721   1.3091   1.4163
     1.4344   1.4345   1.5277   1.5813   1.5840   1.6349   1.7572   1.8610
     1.8611   1.8917   1.8918   1.9382   2.0958   3.6260   3.6260   4.9951
     8.6126   8.7563

          k = 0.0000 0.3333 0.4167 (  5794 PWs)   bands (ev):

     1.0880   1.1419   1.2382   1.2958   1.2962   1.3012   1.3102   1.3763
     1.3887   1.4716   1.4966   1.5013   1.6365   1.6651   1.7257   1.7983
     1.8011   1.8128   1.8916   1.9093   2.3205   3.0897   3.9470   4.6515
     8.6261   9.0696

          k = 0.0000 0.3333-0.5000 (  5806 PWs)   bands (ev):

     1.2133   1.2134   1.2198   1.2200   1.2703   1.2703   1.3959   1.3961
     1.4357   1.4359   1.4583   1.4584   1.7128   1.7130   1.7412   1.7415
     1.7415   1.7415   1.8959   1.8959   2.6488   2.6489   4.2936   4.2936
     8.7882   8.7883

          k = 0.0000 0.4167 0.4167 (  5802 PWs)   bands (ev):

     1.1639   1.1665   1.2693   1.2694   1.3112   1.3114   1.3160   1.4370
     1.4371   1.4508   1.5316   1.5471   1.6239   1.6701   1.6856   1.7512
     1.7512   1.8058   1.8059   1.8550   2.6065   3.4274   3.4274   4.2229
     8.7766   9.4517

          k = 0.0000 0.4167-0.5000 (  5810 PWs)   bands (ev):

     1.2062   1.2063   1.2217   1.2218   1.3201   1.3202   1.3859   1.3860
     1.5060   1.5062   1.5209   1.5210   1.6800   1.6801   1.6929   1.6931
     1.7283   1.7285   1.8215   1.8216   2.9755   2.9755   3.8078   3.8078
     9.0587   9.0588

          k = 0.0000-0.5000-0.5000 (  5824 PWs)   bands (ev):

     1.2093   1.2094   1.2094   1.2096   1.3610   1.3610   1.3610   1.3613
     1.5687   1.5687   1.5688   1.5690   1.6397   1.6398   1.6398   1.6401
     1.7634   1.7634   1.7635   1.7638   3.3629   3.3629   3.3629   3.3630
     9.4376   9.4377

          k = 0.0833 0.0833 0.0833 (  5800 PWs)   bands (ev):

    -0.0429   0.9295   0.9295   0.9296   0.9628   0.9628   0.9628   1.3831
     1.4140   1.4140   1.7323   1.7323   1.9769   1.9772   1.9772   2.0361
     2.0361   2.0362   2.0845   2.0846   2.0846   5.2103   5.2103   5.2103
     7.4826   7.4826

          k = 0.0833 0.0833 0.1667 (  5778 PWs)   bands (ev):

     0.0797   0.9542   0.9577   0.9578   0.9890   1.0199   1.0199   1.3663
     1.4380   1.4393   1.7106   1.7490   1.9254   1.9255   1.9470   1.9738
     1.9738   1.9887   2.0607   2.0798   2.0799   4.4233   5.2682   5.2682
     7.5924   7.5924

          k = 0.0833 0.0833 0.2500 (  5777 PWs)   bands (ev):

     0.2783   0.9905   1.0129   1.0129   1.0308   1.0989   1.0989   1.3310
     1.4804   1.4824   1.6852   1.7756   1.8105   1.8105   1.8974   1.9142
     1.9156   1.9158   2.0264   2.0769   2.0770   3.6650   5.3391   5.3391
     7.7752   7.7752

          k = 0.0833 0.0833 0.3333 (  5775 PWs)   bands (ev):

     0.5389   1.0329   1.0814   1.0907   1.0907   1.1900   1.1901   1.2842
     1.5234   1.5357   1.6683   1.6683   1.6903   1.8105   1.8172   1.8317
     1.8525   1.8528   1.9857   2.0753   2.0753   2.9855   5.4009   5.4009
     8.0185   8.0185

          k = 0.0833 0.0833 0.4167 (  5788 PWs)   bands (ev):

     0.8212   1.0659   1.1298   1.1778   1.1778   1.2309   1.2803   1.2803
     1.5249   1.5249   1.5390   1.6028   1.7029   1.7563   1.7868   1.7937
     1.7939   1.8514   1.9414   2.0745   2.0745   2.4182   5.4409   5.4409
     8.2775   8.2775

          k = 0.0833 0.0833-0.5000 (  5794 PWs)   bands (ev):

     1.0229   1.0230   1.1771   1.1771   1.2247   1.2247   1.3494   1.3496
     1.4264   1.4266   1.5911   1.5914   1.6778   1.6780   1.7673   1.7676
     1.8958   1.8959   2.0124   2.0125   2.0742   2.0743   5.4544   5.4544
     8.4148   8.4149

          k = 0.0833 0.1667 0.1667 (  5791 PWs)   bands (ev):

     0.1965   0.9682   0.9801   0.9802   1.0473   1.0473   1.0876   1.3679
     1.4467   1.4584   1.7090   1.7545   1.8680   1.8681   1.9005   1.9083
     1.9500   1.9501   2.0592   2.0593   2.0627   4.5364   4.5364   5.3066
     7.6782   8.4168

          k = 0.0833 0.1667 0.2500 (  5781 PWs)   bands (ev):

     0.3840   1.0061   1.0129   1.0331   1.0912   1.1264   1.1719   1.3474
     1.4801   1.4893   1.6943   1.7419   1.7880   1.7907   1.7912   1.8716
     1.8952   1.9124   2.0312   2.0489   2.0506   3.8095   4.6971   5.3422
     7.8077   8.3770

          k = 0.0833 0.1667 0.3333 (  5779 PWs)   bands (ev):

     0.6252   1.0500   1.0695   1.1095   1.1461   1.2143   1.2604   1.3114
     1.5091   1.5291   1.6055   1.6601   1.6974   1.7162   1.8204   1.8225
     1.8415   1.8591   1.9946   2.0405   2.0429   3.1506   4.8780   5.3472
     7.9492   8.3078

          k = 0.0833 0.1667 0.4167 (  5788 PWs)   bands (ev):

     0.8773   1.0784   1.1528   1.1995   1.2001   1.2710   1.2843   1.3265
     1.4904   1.4973   1.5345   1.5891   1.5921   1.7387   1.7751   1.8000
     1.8062   1.9385   1.9481   2.0367   2.0381   2.5937   5.0535   5.3019
     8.0614   8.2229

          k = 0.0833 0.1667-0.5000 (  5782 PWs)   bands (ev):

     1.0477   1.0478   1.2330   1.2330   1.2366   1.2366   1.3182   1.3184
     1.4615   1.4617   1.5090   1.5092   1.6597   1.6599   1.7622   1.7625
     1.8897   1.8899   2.0360   2.0361   2.1775   2.1776   5.2009   5.2009
     8.1423   8.1424

          k = 0.0833 0.2500 0.2500 (  5788 PWs)   bands (ev):

     0.5496   1.0250   1.0615   1.0615   1.1715   1.1715   1.2561   1.3560
     1.4938   1.5068   1.6581   1.6582   1.6851   1.7345   1.8194   1.8411
     1.8746   1.8746   2.0179   2.0179   2.0198   4.0188   4.0188   5.3125
     7.8363   8.9769

          k = 0.0833 0.2500 0.3333 (  5791 PWs)   bands (ev):

     0.7529   1.0691   1.0916   1.1334   1.2303   1.2560   1.3363   1.3453
     1.5144   1.5295   1.5309   1.5662   1.6390   1.7001   1.7764   1.8081
     1.8387   1.9378   1.9793   1.9977   2.0002   3.3859   4.2682   5.2163
     7.8612   8.6489

          k = 0.0833 0.2500 0.4167 (  5790 PWs)   bands (ev):

     0.9510   1.1104   1.1364   1.2231   1.2901   1.2919   1.3285   1.3735
     1.4633   1.4775   1.4805   1.5494   1.5822   1.7287   1.7417   1.7742
     1.7888   1.9283   1.9853   1.9874   2.1062   2.8361   4.5370   5.0409
     7.9316   8.3380

          k = 0.0833 0.2500-0.5000 (  5782 PWs)   bands (ev):

     1.0803   1.0804   1.2207   1.2209   1.3184   1.3185   1.3234   1.3235
     1.4413   1.4415   1.4971   1.4972   1.6502   1.6503   1.7444   1.7446
     1.8598   1.8599   1.9822   1.9823   2.4007   2.4008   4.8039   4.8040
     8.0901   8.0902

          k = 0.0833 0.3333 0.3333 (  5802 PWs)   bands (ev):

     0.8957   1.0904   1.1528   1.1528   1.3136   1.3137   1.3650   1.3994
     1.4578   1.4578   1.5398   1.5444   1.6011   1.6849   1.7293   1.7865
     1.7866   1.9532   1.9532   1.9584   2.0934   3.6695   3.6696   4.9859
     7.8512   9.0411

          k = 0.0833 0.3333 0.4167 (  5793 PWs)   bands (ev):

     1.0227   1.1333   1.1530   1.2168   1.3102   1.3660   1.3759   1.4032
     1.4062   1.4656   1.5200   1.5733   1.5831   1.6973   1.7159   1.7362
     1.7517   1.8959   1.9302   1.9312   2.3302   3.1288   3.9889   4.6762
     7.9762   8.5951

          k = 0.0833 0.3333-0.5000 (  5792 PWs)   bands (ev):

     1.1121   1.1122   1.1930   1.1932   1.3407   1.3408   1.3677   1.3678
     1.4583   1.4585   1.5364   1.5365   1.6435   1.6436   1.7098   1.7100
     1.8215   1.8216   1.9214   1.9215   2.6753   2.6754   4.3316   4.3316
     8.2318   8.2318

          k = 0.0833 0.4167 0.4167 (  5805 PWs)   bands (ev):

     1.0835   1.1451   1.1813   1.1814   1.3386   1.3388   1.3712   1.3955
     1.4990   1.4991   1.5695   1.5994   1.6063   1.6537   1.6963   1.6963
     1.7297   1.8658   1.8658   1.8839   2.6272   3.4681   3.4681   4.2627
     8.1835   8.9649

          k = 0.0833 0.4167-0.5000 (  5794 PWs)   bands (ev):

     1.1353   1.1354   1.1685   1.1687   1.3589   1.3590   1.3606   1.3608
     1.5459   1.5461   1.5788   1.5789   1.6402   1.6403   1.6653   1.6655
     1.7913   1.7915   1.8582   1.8583   3.0080   3.0080   3.8502   3.8503
     8.5213   8.5213

          k = 0.0833-0.5000-0.5000 (  5796 PWs)   bands (ev):

     1.1511   1.1511   1.1511   1.1513   1.3629   1.3629   1.3630   1.3632
     1.6009   1.6010   1.6010   1.6013   1.6333   1.6333   1.6334   1.6336
     1.8036   1.8036   1.8036   1.8039   3.4019   3.4019   3.4019   3.4019
     8.9269   8.9270

          k = 0.1667 0.1667 0.1667 (  5809 PWs)   bands (ev):

     0.3042   0.9870   0.9870   0.9871   1.1160   1.1160   1.1160   1.3909
     1.4569   1.4569   1.7372   1.7372   1.8479   1.8480   1.8480   1.8625
     1.8628   1.8628   2.0618   2.0619   2.0619   4.6382   4.6382   4.6382
     8.3120   8.3120

          k = 0.1667 0.1667 0.2500 (  5796 PWs)   bands (ev):

     0.4734   1.0136   1.0210   1.0210   1.1621   1.1990   1.1990   1.3927
     1.4767   1.4842   1.7273   1.7326   1.7326   1.7666   1.7794   1.8019
     1.8369   1.8370   2.0499   2.0509   2.0510   3.9434   4.7802   4.7802
     8.1261   8.1262

          k = 0.1667 0.1667 0.3333 (  5782 PWs)   bands (ev):

     0.6820   1.0404   1.0801   1.0801   1.2221   1.2792   1.2793   1.3743
     1.5049   1.5078   1.6131   1.6132   1.6646   1.7347   1.7831   1.8017
     1.8019   1.8304   2.0243   2.0358   2.0359   3.2985   4.9290   4.9290
     7.8994   7.8994

          k = 0.1667 0.1667 0.4167 (  5787 PWs)   bands (ev):

     0.8849   1.0530   1.1602   1.1602   1.2882   1.3106   1.3107   1.3591
     1.4810   1.5367   1.5368   1.5508   1.5558   1.6673   1.7583   1.7585
     1.8851   1.9666   1.9862   2.0244   2.0245   2.7372   5.0453   5.0454
     7.7127   7.7127

          k = 0.1667 0.1667-0.5000 (  5770 PWs)   bands (ev):

     1.0162   1.0163   1.2468   1.2469   1.2537   1.2538   1.3419   1.3420
     1.4772   1.4774   1.5283   1.5284   1.6047   1.6049   1.7342   1.7345
     1.9384   1.9386   2.0204   2.0205   2.2862   2.2863   5.0902   5.0902
     7.6404   7.6404

          k = 0.1667 0.2500 0.2500 (  5791 PWs)   bands (ev):

     0.6075   1.0333   1.0398   1.0399   1.2434   1.2435   1.2775   1.4350
     1.4768   1.5095   1.6572   1.6573   1.6959   1.7351   1.7649   1.7794
     1.7795   1.8197   2.0388   2.0448   2.0448   4.1411   4.1411   4.8857
     7.7869   8.4907

          k = 0.1667 0.2500 0.3333 (  5786 PWs)   bands (ev):

     0.7616   1.0537   1.0692   1.0891   1.3026   1.3093   1.3382   1.4325
     1.4941   1.5480   1.5619   1.5759   1.6247   1.7104   1.7298   1.7579
     1.7767   1.9178   2.0194   2.0248   2.0265   3.5205   4.3769   4.9648
     7.4860   8.0408

          k = 0.1667 0.2500 0.4167 (  5786 PWs)   bands (ev):

     0.9029   1.0481   1.1250   1.1532   1.3034   1.3346   1.3711   1.4278
     1.5019   1.5072   1.5373   1.5482   1.5966   1.6413   1.6991   1.7257
     1.8676   1.9891   2.0024   2.0070   2.1292   2.9605   4.6214   4.9578
     7.3389   7.6574

          k = 0.1667 0.2500-0.5000 (  5778 PWs)   bands (ev):

     1.0021   1.0022   1.1816   1.1818   1.2830   1.2831   1.4312   1.4314
     1.4626   1.4626   1.5804   1.5805   1.5884   1.5886   1.6920   1.6923
     1.9375   1.9376   1.9972   1.9973   2.4878   2.4879   4.8332   4.8332
     7.4034   7.4035

          k = 0.1667 0.3333 0.3333 (  5795 PWs)   bands (ev):

     0.8488   1.0769   1.0847   1.0848   1.3451   1.3452   1.3685   1.4361
     1.4915   1.5265   1.5265   1.6392   1.6473   1.6701   1.6999   1.6999
     1.7583   1.9951   2.0058   2.0059   2.0923   3.7968   3.7968   4.9138
     7.2329   8.3334

          k = 0.1667 0.3333 0.4167 (  5793 PWs)   bands (ev):

     0.9321   1.0569   1.1000   1.1189   1.3203   1.3514   1.3768   1.4210
     1.5068   1.5213   1.5630   1.6374   1.6441   1.6468   1.6587   1.6892
     1.8287   1.9682   1.9717   1.9802   2.3729   3.2484   4.1101   4.7263
     7.2269   7.8352

          k = 0.1667 0.3333-0.5000 (  5802 PWs)   bands (ev):

     1.0039   1.0040   1.1246   1.1247   1.3166   1.3167   1.4004   1.4006
     1.5260   1.5262   1.6103   1.6105   1.6201   1.6202   1.6757   1.6759
     1.9096   1.9098   1.9644   1.9646   2.7654   2.7655   4.4355   4.4355
     7.4493   7.4494

          k = 0.1667 0.4167 0.4167 (  5785 PWs)   bands (ev):

     0.9712   1.0694   1.0695   1.0858   1.3511   1.3512   1.3545   1.4066
     1.5069   1.5566   1.5566   1.5917   1.6826   1.6827   1.7088   1.7370
     1.8075   1.9367   1.9374   1.9375   2.7011   3.5910   3.5910   4.3727
     7.3737   8.1751

          k = 0.1667 0.4167-0.5000 (  5800 PWs)   bands (ev):

     1.0181   1.0182   1.0781   1.0783   1.3474   1.3475   1.3826   1.3827
     1.5274   1.5276   1.5694   1.5696   1.7139   1.7140   1.7213   1.7214
     1.8742   1.8743   1.9191   1.9193   3.1122   3.1123   3.9751   3.9751
     7.7084   7.7085

          k = 0.1667-0.5000-0.5000 (  5812 PWs)   bands (ev):

     1.0428   1.0428   1.0428   1.0430   1.3691   1.3691   1.3692   1.3694
     1.5372   1.5373   1.5373   1.5376   1.7558   1.7558   1.7559   1.7561
     1.8710   1.8710   1.8710   1.8713   3.5213   3.5213   3.5214   3.5214
     8.1155   8.1157

          k = 0.2500 0.2500 0.2500 (  5809 PWs)   bands (ev):

     0.6902   1.0395   1.0395   1.0396   1.3114   1.3114   1.3115   1.4672
     1.4672   1.6145   1.6446   1.6448   1.6448   1.6996   1.6998   1.6998
     1.7972   1.7972   2.0479   2.0480   2.0480   4.3220   4.3220   4.3220
     7.9357   7.9358

          k = 0.2500 0.2500 0.3333 (  5796 PWs)   bands (ev):

     0.7828   1.0336   1.0588   1.0589   1.3433   1.3434   1.3527   1.4537
     1.4713   1.5996   1.6111   1.6111   1.6342   1.6788   1.6788   1.6921
     1.8621   1.9176   2.0342   2.0343   2.0410   3.7299   4.5298   4.5298
     7.4304   7.4305

          k = 0.2500 0.2500 0.4167 (  5781 PWs)   bands (ev):

     0.8727   1.0052   1.0895   1.0896   1.3206   1.3206   1.3905   1.4357
     1.4910   1.5748   1.5829   1.6148   1.6149   1.6514   1.6764   1.6765
     1.9236   2.0147   2.0148   2.0167   2.2432   3.1681   4.7124   4.7124
     7.0606   7.0606

          k = 0.2500 0.2500-0.5000 (  5784 PWs)   bands (ev):

     0.9498   0.9499   1.1077   1.1078   1.2981   1.2982   1.4163   1.4165
     1.5259   1.5261   1.6053   1.6054   1.6259   1.6261   1.6758   1.6759
     1.9764   1.9766   2.0051   2.0053   2.6665   2.6666   4.7899   4.7899
     6.9193   6.9194

          k = 0.2500 0.3333 0.3333 (  5796 PWs)   bands (ev):

     0.8183   1.0291   1.0292   1.0432   1.3510   1.3557   1.3558   1.4480
     1.4567   1.5820   1.5821   1.6045   1.6603   1.6604   1.6851   1.8291
     1.8327   2.0245   2.0336   2.0336   2.1379   3.9963   3.9964   4.6736
     6.9414   7.6253

          k = 0.2500 0.3333 0.4167 (  5794 PWs)   bands (ev):

     0.8667   0.9809   1.0334   1.0386   1.3343   1.3377   1.3764   1.4273
     1.4661   1.5349   1.5657   1.5724   1.6854   1.7207   1.7373   1.7810
     1.9161   2.0061   2.0131   2.0142   2.4974   3.4512   4.2925   4.7106
     6.6927   7.1144

          k = 0.2500 0.3333-0.5000 (  5806 PWs)   bands (ev):

     0.9233   0.9234   1.0374   1.0375   1.3256   1.3257   1.4017   1.4019
     1.4935   1.4936   1.5623   1.5625   1.7296   1.7297   1.7543   1.7545
     1.9751   1.9752   1.9983   1.9984   2.9428   2.9428   4.5636   4.5636
     6.7695   6.7696

          k = 0.2500 0.4167 0.4167 (  5797 PWs)   bands (ev):

     0.8839   0.9732   0.9733   1.0022   1.3494   1.3614   1.3615   1.4157
     1.4569   1.5142   1.5142   1.5284   1.7751   1.7751   1.8025   1.8770
     1.8812   1.9847   1.9922   1.9922   2.8608   3.7948   3.7949   4.5139
     6.6678   7.4045

          k = 0.2500 0.4167-0.5000 (  5798 PWs)   bands (ev):

     0.9210   0.9211   0.9804   0.9805   1.3545   1.3546   1.3912   1.3913
     1.4752   1.4754   1.5100   1.5102   1.8237   1.8239   1.8293   1.8294
     1.9484   1.9486   1.9726   1.9728   3.3028   3.3028   4.1706   4.1706
     6.9426   6.9427

          k = 0.2500-0.5000-0.5000 (  5812 PWs)   bands (ev):

     0.9407   0.9407   0.9407   0.9409   1.3778   1.3778   1.3778   1.3781
     1.4788   1.4788   1.4788   1.4791   1.8719   1.8719   1.8720   1.8723
     1.9345   1.9345   1.9345   1.9348   3.7246   3.7246   3.7247   3.7247
     7.3270   7.3271

          k = 0.3333 0.3333 0.3333 (  5794 PWs)   bands (ev):

     0.8130   0.9895   0.9895   0.9897   1.3553   1.3553   1.3553   1.4388
     1.4388   1.5434   1.5436   1.5436   1.7348   1.7350   1.7350   1.9018
     1.9018   2.0375   2.0376   2.0376   2.3698   4.2448   4.2448   4.2448
     6.9991   6.9993

          k = 0.3333 0.3333 0.4167 (  5798 PWs)   bands (ev):

     0.8325   0.9284   0.9662   0.9663   1.3492   1.3493   1.3742   1.4210
     1.4392   1.4933   1.5132   1.5134   1.7869   1.8080   1.8082   1.8818
     1.9607   2.0248   2.0250   2.0311   2.7561   3.7313   4.4874   4.4874
     6.5258   6.5259

          k = 0.3333 0.3333-0.5000 (  5782 PWs)   bands (ev):

     0.8730   0.8730   0.9585   0.9587   1.3456   1.3457   1.3980   1.3982
     1.4576   1.4578   1.5039   1.5041   1.8378   1.8380   1.8395   1.8397
     2.0048   2.0050   2.0144   2.0146   3.2205   3.2205   4.6018   4.6019
     6.3339   6.3341

          k = 0.3333 0.4167 0.4167 (  5793 PWs)   bands (ev):

     0.8288   0.9008   0.9009   0.9206   1.3613   1.3710   1.3711   1.4150
     1.4231   1.4664   1.4664   1.4743   1.8699   1.8699   1.8810   1.9446
     1.9637   2.0175   2.0236   2.0236   3.1333   4.0663   4.0664   4.5681
     6.2076   6.7175

          k = 0.3333 0.4167-0.5000 (  5802 PWs)   bands (ev):

     0.8529   0.8530   0.8983   0.8985   1.3678   1.3679   1.3947   1.3948
     1.4352   1.4353   1.4587   1.4589   1.9107   1.9108   1.9199   1.9201
     2.0006   2.0007   2.0092   2.0094   3.5858   3.5858   4.3943   4.3944
     6.3041   6.3042

          k = 0.3333-0.5000-0.5000 (  5808 PWs)   bands (ev):

     0.8621   0.8621   0.8621   0.8623   1.3865   1.3865   1.3866   1.3868
     1.4334   1.4335   1.4335   1.4338   1.9591   1.9591   1.9591   1.9594
     1.9848   1.9849   1.9849   1.9852   4.0031   4.0031   4.0032   4.0032
     6.6206   6.6208

          k = 0.4167 0.4167 0.4167 (  5812 PWs)   bands (ev):

     0.8068   0.8562   0.8562   0.8563   1.3785   1.3786   1.3786   1.4077
     1.4077   1.4342   1.4343   1.4343   1.9417   1.9418   1.9418   1.9929
     1.9929   2.0306   2.0307   2.0307   3.5079   4.3551   4.3551   4.3552
     6.1772   6.1774

          k = 0.4167 0.4167-0.5000 (  5802 PWs)   bands (ev):

     0.8168   0.8169   0.8411   0.8412   1.3817   1.3818   1.3950   1.3952
     1.4115   1.4116   1.4226   1.4228   1.9745   1.9747   1.9812   1.9814
     2.0223   2.0224   2.0244   2.0246   3.9431   3.9431   4.5054   4.5055
     5.9429   5.9430

          k = 0.4167-0.5000-0.5000 (  5812 PWs)   bands (ev):

     0.8131   0.8131   0.8131   0.8134   1.3929   1.3929   1.3929   1.3932
     1.4049   1.4050   1.4050   1.4052   2.0111   2.0111   2.0111   2.0114
     2.0171   2.0171   2.0171   2.0174   4.3097   4.3097   4.3098   4.3098
     6.0560   6.0561

          k =-0.5000-0.5000-0.5000 (  5832 PWs)   bands (ev):

     0.7966   0.7966   0.7966   0.7968   1.3952   1.3952   1.3952   1.3952
     1.3952   1.3952   1.3955   1.3955   2.0281   2.0281   2.0281   2.0282
     2.0282   2.0282   2.0285   2.0285   4.4764   4.4764   4.4764   4.4765
     5.8034   5.8036

     the Fermi energy is     4.8560 ev

!    total energy              =   -3100.54442861 Ry

     total all-electron energy =   -152095.928793 Ry
     estimated scf accuracy    <       0.00000014 Ry
     smearing contrib. (-TS)   =      -0.93139514 Ry
     internal energy E=F+TS    =   -3099.61303347 Ry

     The total energy is F=E-TS. E is the sum of the following terms:
     one-electron contribution =     -38.86964931 Ry
     hartree contribution      =      60.37739693 Ry
     xc contribution           =    -127.01657008 Ry
     ewald contribution        =    -224.18129810 Ry
     one-center paw contrib.   =   -2769.92291291 Ry

     convergence has been achieved in  16 iterations

     Forces acting on atoms (cartesian axes, Ry/au):

     atom    1 type  1   force =     0.00000000   -0.00000000    0.00000000
     atom    2 type  1   force =     0.00000000    0.00000000    0.00000000
     atom    3 type  1   force =     0.00000000    0.00000000    0.00000000
     atom    4 type  1   force =     0.00000000    0.00000000   -0.00000000

     Total force =     0.000000     Total SCF correction =     0.000000

     Writing all to output data dir ./pwscf.save/
 
     init_run     :      1.14s CPU      1.42s WALL (       1 calls)
     electrons    :     48.00s CPU     49.20s WALL (       1 calls)
     forces       :      0.25s CPU      0.35s WALL (       1 calls)

     Called by init_run:
     wfcinit      :      0.90s CPU      0.92s WALL (       1 calls)
     potinit      :      0.07s CPU      0.17s WALL (       1 calls)
     hinit0       :      0.15s CPU      0.20s WALL (       1 calls)

     Called by electrons:
     c_bands      :     41.84s CPU     42.40s WALL (      17 calls)
     sum_band     :      4.97s CPU      5.11s WALL (      17 calls)
     v_of_rho     :      0.28s CPU      0.79s WALL (      17 calls)
     newd         :      0.11s CPU      0.21s WALL (      17 calls)
     PAW_pot      :      0.82s CPU      0.83s WALL (      17 calls)
     mix_rho      :      0.01s CPU      0.02s WALL (      17 calls)

     Called by c_bands:
     init_us_2    :      0.33s CPU      0.34s WALL (    3024 calls)
     init_us_2:cp :      0.33s CPU      0.33s WALL (    3024 calls)
     cegterg      :     39.48s CPU     39.99s WALL (    1428 calls)

     Called by *egterg:
     cdiaghg      :      7.37s CPU      7.43s WALL (    5794 calls)
     h_psi        :     25.69s CPU     26.08s WALL (    5962 calls)
     s_psi        :      1.05s CPU      1.06s WALL (    5962 calls)
     g_psi        :      0.11s CPU      0.11s WALL (    4450 calls)

     Called by h_psi:
     h_psi:calbec :      1.51s CPU      1.53s WALL (    5962 calls)
     vloc_psi     :     23.07s CPU     23.42s WALL (    5962 calls)
     add_vuspsi   :      1.03s CPU      1.05s WALL (    5962 calls)

     General routines
     calbec       :      2.11s CPU      2.14s WALL (    7726 calls)
     fft          :      0.29s CPU      1.05s WALL (     199 calls)
     ffts         :      0.03s CPU      0.08s WALL (      17 calls)
     fftw         :     25.61s CPU     26.00s WALL (  268338 calls)
 
     Parallel routines
 
     PWSCF        :     51.54s CPU     54.74s WALL

 
   This run was terminated on:  12:36:46   5Apr2024            

=------------------------------------------------------------------------------=
   JOB DONE.
=------------------------------------------------------------------------------=
