MPI startup(): Warning: I_MPI_PMI_LIBRARY will be ignored since the hydra process manager was found
MPI startup(): Warning: I_MPI_PMI_LIBRARY will be ignored since the hydra process manager was found
MPI startup(): Warning: I_MPI_PMI_LIBRARY will be ignored since the hydra process manager was found
MPI startup(): Warning: I_MPI_PMI_LIBRARY will be ignored since the hydra process manager was found
MPI startup(): Warning: I_MPI_PMI_LIBRARY will be ignored since the hydra process manager was found
MPI startup(): Warning: I_MPI_PMI_LIBRARY will be ignored since the hydra process manager was found
MPI startup(): Warning: I_MPI_PMI_LIBRARY will be ignored since the hydra process manager was found
MPI startup(): Warning: I_MPI_PMI_LIBRARY will be ignored since the hydra process manager was found
MPI startup(): Warning: I_MPI_PMI_LIBRARY will be ignored since the hydra process manager was found
MPI startup(): Warning: I_MPI_PMI_LIBRARY will be ignored since the hydra process manager was found

     Program PWSCF v.7.0 starts on  5Apr2024 at 12:35:52 

     This program is part of the open-source Quantum ESPRESSO suite
     for quantum simulation of materials; please cite
         "P. Giannozzi et al., J. Phys.:Condens. Matter 21 395502 (2009);
         "P. Giannozzi et al., J. Phys.:Condens. Matter 29 465901 (2017);
         "P. Giannozzi et al., J. Chem. Phys. 152 154105 (2020);
          URL http://www.quantum-espresso.org", 
     in publications or presentations arising from this work. More details at
     http://www.quantum-espresso.org/quote

     Parallel version (MPI), running on    10 processors

     MPI processes distributed on     1 nodes
     R & G space division:  proc/nbgrp/npool/nimage =      10
     197607 MiB available memory on the printing compute node when the environment starts
 
     Reading input from VolumeFCC_5.5.in
Warning: card &CELL ignored
Warning: card / ignored

     Current dimensions of program PWSCF are:
     Max number of different atomic species (ntypx) = 10
     Max number of k-points (npk) =  40000
     Max angular momentum in pseudopotentials (lmaxx) =  4
     file Au.pbe-n-kjpaw_psl.1.0.0.UPF: wavefunction(s)  6S 5D renormalized
     Found identity + (  0.5000  0.5000  0.0000) symmetry
     This is a supercell, fractional translations are disabled
     Message from routine setup:
     using ibrav=0 with symmetry is DISCOURAGED, use correct ibrav instead

     Subspace diagonalization in iterative solution of the eigenvalue problem:
     one sub-group per band group will be used
     scalapack distributed-memory algorithm (size of sub-group:  3*  3 procs)

 
     Parallelization info
     --------------------
     sticks:   dense  smooth     PW     G-vecs:    dense   smooth      PW
     Min          48      48     14                  802      802     140
     Max          50      50     15                  805      805     143
     Sum         489     489    149                 8025     8025    1419
 
     Using Slab Decomposition
 


     bravais-lattice index     =            0
     lattice parameter (alat)  =       5.4992  a.u.
     unit-cell volume          =     166.3027 (a.u.)^3
     number of atoms/cell      =            4
     number of atomic types    =            1
     number of electrons       =        44.00
     number of Kohn-Sham states=           26
     kinetic-energy cutoff     =      50.0000  Ry
     charge density cutoff     =     200.0000  Ry
     scf convergence threshold =      1.0E-06
     mixing beta               =       0.7000
     number of iterations used =            8  plain     mixing
     Exchange-correlation= SLA  PW   PBX  PBC
                           (   1   4   3   4   0   0   0)

     celldm(1)=   5.499203  celldm(2)=   0.000000  celldm(3)=   0.000000
     celldm(4)=   0.000000  celldm(5)=   0.000000  celldm(6)=   0.000000

     crystal axes: (cart. coord. in units of alat)
               a(1) = (   1.000000   0.000000   0.000000 )  
               a(2) = (   0.000000   1.000000   0.000000 )  
               a(3) = (   0.000000   0.000000   1.000000 )  

     reciprocal axes: (cart. coord. in units 2 pi/alat)
               b(1) = (  1.000000  0.000000  0.000000 )  
               b(2) = (  0.000000  1.000000  0.000000 )  
               b(3) = (  0.000000  0.000000  1.000000 )  


     PseudoPot. # 1 for Au read from file:
     ./Au.pbe-n-kjpaw_psl.1.0.0.UPF
     MD5 check sum: 4db85c736373c707a97ce4c36c2a9d23
     Pseudo is Projector augmented-wave + core cor, Zval = 11.0
     Generated using &quot;atomic&quot; code by A. Dal Corso  v.6.3
     Shape of augmentation charge: PSQ
     Using radial grid of 1279 points,  6 beta functions with: 
                l(1) =   0
                l(2) =   0
                l(3) =   1
                l(4) =   1
                l(5) =   2
                l(6) =   2
     Q(r) pseudized with 0 coefficients 


     atomic species   valence    mass     pseudopotential
        Au            11.00   196.96657     Au( 1.00)

     48 Sym. Ops., with inversion, found



   Cartesian axes

     site n.     atom                  positions (alat units)
         1           Au  tau(   1) = (   0.0000000   0.0000000   0.0000000  )
         2           Au  tau(   2) = (   0.5000000   0.5000000   0.0000000  )
         3           Au  tau(   3) = (   0.5000000   0.0000000   0.5000000  )
         4           Au  tau(   4) = (   0.0000000   0.5000000   0.5000000  )

     number of k points=    84  Gaussian smearing, width (Ry)=  0.2000
                       cart. coord. in units 2pi/alat
        k(    1) = (   0.0000000   0.0000000   0.0000000), wk =   0.0011574
        k(    2) = (   0.0000000   0.0000000   0.0833333), wk =   0.0069444
        k(    3) = (   0.0000000   0.0000000   0.1666667), wk =   0.0069444
        k(    4) = (   0.0000000   0.0000000   0.2500000), wk =   0.0069444
        k(    5) = (   0.0000000   0.0000000   0.3333333), wk =   0.0069444
        k(    6) = (   0.0000000   0.0000000   0.4166667), wk =   0.0069444
        k(    7) = (   0.0000000   0.0000000  -0.5000000), wk =   0.0034722
        k(    8) = (   0.0000000   0.0833333   0.0833333), wk =   0.0138889
        k(    9) = (   0.0000000   0.0833333   0.1666667), wk =   0.0277778
        k(   10) = (   0.0000000   0.0833333   0.2500000), wk =   0.0277778
        k(   11) = (   0.0000000   0.0833333   0.3333333), wk =   0.0277778
        k(   12) = (   0.0000000   0.0833333   0.4166667), wk =   0.0277778
        k(   13) = (   0.0000000   0.0833333  -0.5000000), wk =   0.0138889
        k(   14) = (   0.0000000   0.1666667   0.1666667), wk =   0.0138889
        k(   15) = (   0.0000000   0.1666667   0.2500000), wk =   0.0277778
        k(   16) = (   0.0000000   0.1666667   0.3333333), wk =   0.0277778
        k(   17) = (   0.0000000   0.1666667   0.4166667), wk =   0.0277778
        k(   18) = (   0.0000000   0.1666667  -0.5000000), wk =   0.0138889
        k(   19) = (   0.0000000   0.2500000   0.2500000), wk =   0.0138889
        k(   20) = (   0.0000000   0.2500000   0.3333333), wk =   0.0277778
        k(   21) = (   0.0000000   0.2500000   0.4166667), wk =   0.0277778
        k(   22) = (   0.0000000   0.2500000  -0.5000000), wk =   0.0138889
        k(   23) = (   0.0000000   0.3333333   0.3333333), wk =   0.0138889
        k(   24) = (   0.0000000   0.3333333   0.4166667), wk =   0.0277778
        k(   25) = (   0.0000000   0.3333333  -0.5000000), wk =   0.0138889
        k(   26) = (   0.0000000   0.4166667   0.4166667), wk =   0.0138889
        k(   27) = (   0.0000000   0.4166667  -0.5000000), wk =   0.0138889
        k(   28) = (   0.0000000  -0.5000000  -0.5000000), wk =   0.0034722
        k(   29) = (   0.0833333   0.0833333   0.0833333), wk =   0.0092593
        k(   30) = (   0.0833333   0.0833333   0.1666667), wk =   0.0277778
        k(   31) = (   0.0833333   0.0833333   0.2500000), wk =   0.0277778
        k(   32) = (   0.0833333   0.0833333   0.3333333), wk =   0.0277778
        k(   33) = (   0.0833333   0.0833333   0.4166667), wk =   0.0277778
        k(   34) = (   0.0833333   0.0833333  -0.5000000), wk =   0.0138889
        k(   35) = (   0.0833333   0.1666667   0.1666667), wk =   0.0277778
        k(   36) = (   0.0833333   0.1666667   0.2500000), wk =   0.0555556
        k(   37) = (   0.0833333   0.1666667   0.3333333), wk =   0.0555556
        k(   38) = (   0.0833333   0.1666667   0.4166667), wk =   0.0555556
        k(   39) = (   0.0833333   0.1666667  -0.5000000), wk =   0.0277778
        k(   40) = (   0.0833333   0.2500000   0.2500000), wk =   0.0277778
        k(   41) = (   0.0833333   0.2500000   0.3333333), wk =   0.0555556
        k(   42) = (   0.0833333   0.2500000   0.4166667), wk =   0.0555556
        k(   43) = (   0.0833333   0.2500000  -0.5000000), wk =   0.0277778
        k(   44) = (   0.0833333   0.3333333   0.3333333), wk =   0.0277778
        k(   45) = (   0.0833333   0.3333333   0.4166667), wk =   0.0555556
        k(   46) = (   0.0833333   0.3333333  -0.5000000), wk =   0.0277778
        k(   47) = (   0.0833333   0.4166667   0.4166667), wk =   0.0277778
        k(   48) = (   0.0833333   0.4166667  -0.5000000), wk =   0.0277778
        k(   49) = (   0.0833333  -0.5000000  -0.5000000), wk =   0.0069444
        k(   50) = (   0.1666667   0.1666667   0.1666667), wk =   0.0092593
        k(   51) = (   0.1666667   0.1666667   0.2500000), wk =   0.0277778
        k(   52) = (   0.1666667   0.1666667   0.3333333), wk =   0.0277778
        k(   53) = (   0.1666667   0.1666667   0.4166667), wk =   0.0277778
        k(   54) = (   0.1666667   0.1666667  -0.5000000), wk =   0.0138889
        k(   55) = (   0.1666667   0.2500000   0.2500000), wk =   0.0277778
        k(   56) = (   0.1666667   0.2500000   0.3333333), wk =   0.0555556
        k(   57) = (   0.1666667   0.2500000   0.4166667), wk =   0.0555556
        k(   58) = (   0.1666667   0.2500000  -0.5000000), wk =   0.0277778
        k(   59) = (   0.1666667   0.3333333   0.3333333), wk =   0.0277778
        k(   60) = (   0.1666667   0.3333333   0.4166667), wk =   0.0555556
        k(   61) = (   0.1666667   0.3333333  -0.5000000), wk =   0.0277778
        k(   62) = (   0.1666667   0.4166667   0.4166667), wk =   0.0277778
        k(   63) = (   0.1666667   0.4166667  -0.5000000), wk =   0.0277778
        k(   64) = (   0.1666667  -0.5000000  -0.5000000), wk =   0.0069444
        k(   65) = (   0.2500000   0.2500000   0.2500000), wk =   0.0092593
        k(   66) = (   0.2500000   0.2500000   0.3333333), wk =   0.0277778
        k(   67) = (   0.2500000   0.2500000   0.4166667), wk =   0.0277778
        k(   68) = (   0.2500000   0.2500000  -0.5000000), wk =   0.0138889
        k(   69) = (   0.2500000   0.3333333   0.3333333), wk =   0.0277778
        k(   70) = (   0.2500000   0.3333333   0.4166667), wk =   0.0555556
        k(   71) = (   0.2500000   0.3333333  -0.5000000), wk =   0.0277778
        k(   72) = (   0.2500000   0.4166667   0.4166667), wk =   0.0277778
        k(   73) = (   0.2500000   0.4166667  -0.5000000), wk =   0.0277778
        k(   74) = (   0.2500000  -0.5000000  -0.5000000), wk =   0.0069444
        k(   75) = (   0.3333333   0.3333333   0.3333333), wk =   0.0092593
        k(   76) = (   0.3333333   0.3333333   0.4166667), wk =   0.0277778
        k(   77) = (   0.3333333   0.3333333  -0.5000000), wk =   0.0138889
        k(   78) = (   0.3333333   0.4166667   0.4166667), wk =   0.0277778
        k(   79) = (   0.3333333   0.4166667  -0.5000000), wk =   0.0277778
        k(   80) = (   0.3333333  -0.5000000  -0.5000000), wk =   0.0069444
        k(   81) = (   0.4166667   0.4166667   0.4166667), wk =   0.0092593
        k(   82) = (   0.4166667   0.4166667  -0.5000000), wk =   0.0138889
        k(   83) = (   0.4166667  -0.5000000  -0.5000000), wk =   0.0069444
        k(   84) = (  -0.5000000  -0.5000000  -0.5000000), wk =   0.0011574

     Dense  grid:     8025 G-vectors     FFT dimensions: (  25,  25,  25)

     Estimated max dynamical RAM per process >       7.47 MB

     Estimated total dynamical RAM >      74.69 MB

     Initial potential from superposition of free atoms

     starting charge      43.9996, renormalised to      44.0000
     Starting wfcs are   36 randomized atomic wfcs
     Checking if some PAW data can be deallocated... 

     total cpu time spent up to now is        1.1 secs

     Self-consistent Calculation

     iteration #  1     ecut=    50.00 Ry     beta= 0.70
     Davidson diagonalization with overlap
     ethr =  1.00E-02,  avg # of iterations =  7.4

     total cpu time spent up to now is        3.3 secs

     total energy              =   -3089.74529236 Ry
     estimated scf accuracy    <       0.56505363 Ry

     iteration #  2     ecut=    50.00 Ry     beta= 0.70
     Davidson diagonalization with overlap
     ethr =  1.28E-03,  avg # of iterations =  5.4

     total cpu time spent up to now is        5.4 secs

     total energy              =   -3090.15821691 Ry
     estimated scf accuracy    <       0.02823973 Ry

     iteration #  3     ecut=    50.00 Ry     beta= 0.70
     Davidson diagonalization with overlap
     c_bands:  1 eigenvalues not converged
     c_bands:  1 eigenvalues not converged
     c_bands:  1 eigenvalues not converged
     c_bands:  1 eigenvalues not converged
     c_bands:  1 eigenvalues not converged
     c_bands:  1 eigenvalues not converged
     c_bands:  1 eigenvalues not converged
     ethr =  6.42E-05,  avg # of iterations =  9.2

     total cpu time spent up to now is        8.1 secs

     total energy              =   -3090.18225175 Ry
     estimated scf accuracy    <       0.00327221 Ry

     iteration #  4     ecut=    50.00 Ry     beta= 0.70
     Davidson diagonalization with overlap
     c_bands:  1 eigenvalues not converged
     c_bands:  1 eigenvalues not converged
     c_bands:  1 eigenvalues not converged
     c_bands:  2 eigenvalues not converged
     c_bands:  1 eigenvalues not converged
     c_bands:  1 eigenvalues not converged
     c_bands:  1 eigenvalues not converged
     c_bands:  1 eigenvalues not converged
     c_bands:  1 eigenvalues not converged
     c_bands:  2 eigenvalues not converged
     c_bands:  1 eigenvalues not converged
     ethr =  7.44E-06,  avg # of iterations =  8.3

     total cpu time spent up to now is       10.5 secs

     total energy              =   -3090.18383615 Ry
     estimated scf accuracy    <       0.00038413 Ry

     iteration #  5     ecut=    50.00 Ry     beta= 0.70
     Davidson diagonalization with overlap
     c_bands:  1 eigenvalues not converged
     c_bands:  1 eigenvalues not converged
     c_bands:  1 eigenvalues not converged
     c_bands:  1 eigenvalues not converged
     ethr =  8.73E-07,  avg # of iterations =  7.4

     total cpu time spent up to now is       12.7 secs

     total energy              =   -3090.18397822 Ry
     estimated scf accuracy    <       0.00003077 Ry

     iteration #  6     ecut=    50.00 Ry     beta= 0.70
     Davidson diagonalization with overlap
     c_bands:  1 eigenvalues not converged
     c_bands:  1 eigenvalues not converged
     c_bands:  1 eigenvalues not converged
     ethr =  6.99E-08,  avg # of iterations =  6.4

     total cpu time spent up to now is       14.9 secs

     End of self-consistent calculation

          k = 0.0000 0.0000 0.0000 (  1021 PWs)   bands (ev):

    29.2308  29.2310  29.2310  30.1520  30.1520  30.1520  30.8658  39.3897
    39.3897  39.3897  47.2721  47.2721  53.7468  53.7468  53.7469  55.7115
    55.7115  55.7115  55.7115  55.7115  55.7115  57.9255  57.9255  57.9255
    66.1941  71.2352

          k = 0.0000 0.0000 0.0833 (   993 PWs)   bands (ev):

    29.4215  29.4523  29.4524  30.2636  30.4099  30.4099  31.1352  39.1368
    39.5723  39.5723  46.9279  47.3611  53.2114  53.2115  53.4635  53.4635
    53.6055  55.1148  55.1148  55.7139  55.7140  57.1655  60.0822  60.0822
    66.6741  71.1679

          k = 0.0000 0.0000 0.1667 (   985 PWs)   bands (ev):

    29.9776  30.0963  30.0964  30.5899  31.1695  31.1695  31.9090  38.4352
    40.1152  40.1152  45.9813  47.6252  50.3642  50.3642  51.7532  51.7533
    53.2001  53.5965  53.5965  55.1731  55.7201  55.7201  62.8960  62.8960
    68.0557  71.0762

          k = 0.0000 0.0000 0.2500 (   992 PWs)   bands (ev):

    30.8703  31.0877  31.0878  31.1266  32.4091  32.4091  33.0633  37.4199
    41.0039  41.0039  44.6875  47.2370  47.2370  48.0550  49.7360  49.7361
    51.6209  51.6209  52.4901  52.5811  55.7285  55.7285  65.5101  65.5102
    70.1985  71.1016

          k = 0.0000 0.0000 0.3333 (   980 PWs)   bands (ev):

    31.8617  32.0347  32.2752  32.2754  34.0927  34.0927  34.2928  36.2396
    42.2151  42.2151  43.5080  44.1859  44.1859  47.6096  47.6097  48.6343
    49.5036  49.5036  49.5624  51.8170  55.7369  55.7369  67.7668  67.7668
    71.2544  71.2547

          k = 0.0000 0.0000 0.4167 (   996 PWs)   bands (ev):

    32.7765  33.3409  33.3504  33.3506  34.9533  35.0170  36.1709  36.1709
    41.2808  41.2808  43.2137  43.7159  43.7159  45.8934  45.8936  46.7391
    47.4187  47.4187  49.3388  50.9798  55.7428  55.7428  69.5352  69.5353
    71.4352  71.4360

          k = 0.0000 0.0000-0.5000 (  1020 PWs)   bands (ev):

    33.8146  33.8147  33.8414  33.8415  34.5032  34.5033  38.5877  38.5877
    38.5877  38.5877  44.4184  44.4185  45.2035  45.2036  45.4671  45.4671
    45.4671  45.4671  50.1352  50.1353  55.7450  55.7451  70.7335  70.7335
    70.7336  70.7338

          k = 0.0000 0.0833 0.0833 (   991 PWs)   bands (ev):

    29.6060  29.6425  29.6426  30.5169  30.5169  30.7251  31.3920  39.0494
    39.6022  39.7447  46.8149  47.2475  52.4250  52.4454  52.4455  52.7425
    53.5392  53.5393  55.1159  55.1159  55.3316  59.3408  59.3409  61.4209
    67.1346  69.8559

          k = 0.0000 0.0833 0.1667 (   991 PWs)   bands (ev):

    30.1068  30.1990  30.2851  30.8370  31.2712  31.5985  32.1308  38.4501
    40.0757  40.2474  45.9954  47.4716  49.5140  49.9369  50.9392  51.4305
    52.0587  53.1497  53.5941  55.1187  55.1283  57.4615  62.1602  63.8536
    68.4619  68.8660

          k = 0.0000 0.0833 0.2500 (   990 PWs)   bands (ev):

    30.9772  31.0929  31.2768  31.3642  32.5006  32.9149  33.2397  37.4881
    40.9549  41.0085  44.8224  46.4716  47.0398  47.9616  49.0083  49.5551
    50.1255  51.6128  52.2779  55.0853  55.1212  55.1213  64.7229  66.3228
    68.3589  70.5235

          k = 0.0000 0.0833 0.3333 (   992 PWs)   bands (ev):

    32.0853  32.1275  32.2603  32.4623  34.1687  34.4464  34.5649  36.3512
    41.6977  42.1680  43.5559  44.0842  44.1019  46.8761  47.5370  48.0182
    48.6402  49.4882  50.7791  53.0448  55.0843  55.1212  66.7421  68.2376
    68.5199  71.6496

          k = 0.0000 0.0833 0.4167 (   990 PWs)   bands (ev):

    32.9802  33.2897  33.5194  33.5709  35.1454  35.1661  36.2262  36.4437
    40.8786  41.2630  41.9467  43.6754  44.7446  44.8505  45.9184  46.2157
    47.3949  48.6840  49.4803  51.5955  55.0954  55.1170  67.9246  68.3074
    70.2692  72.1141

          k = 0.0000 0.0833-0.5000 (  1002 PWs)   bands (ev):

    33.9023  33.9024  34.0215  34.0215  34.7321  34.7322  38.5179  38.5179
    38.6128  38.6129  42.9233  42.9233  45.3650  45.3651  45.4347  45.4347
    46.5751  46.5751  50.4617  50.4618  55.1078  55.1078  68.3164  68.3165
    71.4670  71.4672

          k = 0.0000 0.1667 0.1667 (   985 PWs)   bands (ev):

    30.3617  30.8428  30.8429  31.5738  31.5738  32.6379  32.7716  38.2539
    40.2337  40.6155  45.6947  47.4336  47.9150  47.9150  48.5554  50.4699
    52.0787  52.0788  53.5867  53.5867  54.2481  60.3178  60.3179  65.9184
    67.0493  69.6364

          k = 0.0000 0.1667 0.2500 (   997 PWs)   bands (ev):

    31.0035  31.7407  31.8366  32.0689  32.7719  33.7487  34.0437  37.5904
    40.9329  41.0672  44.8883  44.9773  46.0875  46.3669  48.0105  48.9746
    50.4638  51.4516  51.5895  53.5733  53.7661  58.0092  62.8575  65.9597
    68.2163  71.4686

          k = 0.0000 0.1667 0.3333 (   994 PWs)   bands (ev):

    32.0105  32.7453  32.9181  33.0174  34.3936  34.8744  35.6351  36.6381
    41.1004  42.0884  42.2785  43.8090  44.2141  44.5509  47.2626  48.5619
    49.0063  49.4454  50.2328  53.5539  53.5747  55.6991  64.7233  65.5409
    70.3561  72.1907

          k = 0.0000 0.1667 0.4167 (   991 PWs)   bands (ev):

    33.2191  33.5800  34.0143  34.2462  35.5850  35.6803  36.3851  37.1520
    40.0171  40.6727  41.1892  42.4480  43.5855  45.3810  45.9094  46.7610
    47.3318  48.6135  50.2925  53.5155  53.5311  53.6232  65.5685  65.6181
    72.1118  72.9113

          k = 0.0000 0.1667-0.5000 (   994 PWs)   bands (ev):

    34.1411  34.1412  34.5423  34.5424  35.4033  35.4034  38.4290  38.4290
    38.6777  38.6777  41.0717  41.0717  45.3540  45.3540  45.6693  45.6694
    46.8851  46.8851  51.8295  51.8295  53.5127  53.5127  65.7325  65.7325
    73.3441  73.3447

          k = 0.0000 0.2500 0.2500 (   995 PWs)   bands (ev):

    31.4015  32.7419  32.7421  33.2143  33.2143  34.5305  35.4706  37.4564
    41.1571  41.2664  43.3374  43.3374  44.4170  45.0689  47.9576  48.7995
    50.1572  50.1573  51.5539  51.5540  52.6126  60.6002  60.6002  64.3587
    70.4554  72.9567

          k = 0.0000 0.2500 0.3333 (   990 PWs)   bands (ev):

    32.1930  33.8113  33.9212  33.9405  34.7548  35.4818  36.9436  36.9606
    40.8355  40.9084  41.7434  42.1653  43.1889  44.1207  46.6666  48.5526
    49.1642  49.3867  50.2269  51.5138  51.9279  58.3030  62.5693  63.6140
    71.7733  72.6216

          k = 0.0000 0.2500 0.4167 (   990 PWs)   bands (ev):

    33.3073  34.5363  34.7939  35.3136  36.1860  36.3842  36.6280  38.1224
    39.1462  39.8434  40.3258  40.9938  43.5476  44.8095  45.6519  46.9098
    47.2562  47.7151  51.4851  51.6111  52.0008  56.0859  63.5270  63.5726
    72.2400  72.9401

          k = 0.0000 0.2500-0.5000 (   982 PWs)   bands (ev):

    34.4665  34.4665  35.3491  35.3492  36.4642  36.4643  38.5558  38.5559
    38.7474  38.7474  39.4125  39.4126  45.2786  45.2786  45.7171  45.7172
    46.1475  46.1475  51.4984  51.4984  53.9764  53.9764  63.7011  63.7011
    73.1514  73.1536

          k = 0.0000 0.3333 0.3333 (   999 PWs)   bands (ev):

    32.7438  35.1364  35.1365  35.2287  35.2287  36.1518  37.0362  38.2953
    39.6392  39.6393  40.6847  42.1049  42.6682  43.4118  45.7537  47.7948
    47.7949  49.3357  49.3357  50.6247  52.0557  60.4800  60.4800  62.6064
    71.5152  73.5016

          k = 0.0000 0.3333 0.4167 (   996 PWs)   bands (ev):

    33.6564  35.7390  35.7767  36.5964  36.8031  36.8375  36.9167  38.5498
    38.5514  39.1972  39.7835  40.5617  43.7032  43.7421  44.9731  46.3384
    46.4670  47.2199  49.3350  49.8338  54.1378  58.4070  61.8689  62.3528
    71.8807  73.0329

          k = 0.0000 0.3333-0.5000 (   986 PWs)   bands (ev):

    34.8344  34.8345  36.3360  36.3360  37.5600  37.5601  38.2881  38.2882
    38.7537  38.7537  39.0501  39.0502  44.9483  44.9483  45.1774  45.1774
    45.3094  45.3094  49.4596  49.4597  56.2872  56.2872  62.3419  62.3419
    72.6934  72.6953

          k = 0.0000 0.4167 0.4167 (   998 PWs)   bands (ev):

    34.3117  36.4928  36.4928  36.8481  37.1858  37.1858  37.2242  38.6044
    38.6045  39.7657  40.0491  40.1203  42.9494  44.1168  44.3901  45.1268
    45.1270  47.3125  47.3126  48.4841  56.3473  60.2442  60.2442  61.8337
    72.1321  73.1855

          k = 0.0000 0.4167-0.5000 (  1000 PWs)   bands (ev):

    35.2827  35.2827  36.7434  36.7434  37.3314  37.3315  38.5882  38.5882
    39.4670  39.4671  39.8397  39.8398  43.6999  43.6999  44.0882  44.0882
    45.6066  45.6066  47.6755  47.6756  58.4217  58.4217  61.3406  61.3406
    72.7637  72.7646

          k = 0.0000-0.5000-0.5000 (   992 PWs)   bands (ev):

    35.8985  35.8985  35.8985  35.8985  38.1264  38.1265  38.1265  38.1265
    40.3471  40.3473  40.3473  40.3473  43.1698  43.1698  43.1699  43.1700
    46.3615  46.3615  46.3615  46.3616  60.1341  60.1341  60.1341  60.1341
    72.9844  72.9846

          k = 0.0833 0.0833 0.0833 (   991 PWs)   bands (ev):

    29.7891  29.7892  29.7892  30.8360  30.8360  30.8360  31.6314  39.0004
    39.7588  39.7588  46.9318  46.9318  51.8547  51.8547  51.8548  52.3368
    52.3368  52.3369  55.1461  55.1461  55.1461  60.5945  60.5946  60.5946
    67.5678  70.5719

          k = 0.0833 0.0833 0.1667 (   981 PWs)   bands (ev):

    30.2820  30.2821  30.3224  31.1738  31.7113  31.7113  32.3196  38.5124
    40.1679  40.2240  46.0747  47.2785  49.2423  49.2423  50.3648  51.2508
    51.3122  51.3123  54.6130  54.9284  54.9284  58.5159  62.9775  62.9776
    68.8047  69.5373

          k = 0.0833 0.0833 0.2500 (   992 PWs)   bands (ev):

    31.1414  31.1469  31.1470  31.7642  33.0186  33.0186  33.3490  37.6370
    40.9176  40.9832  45.0004  46.3491  46.3491  47.8430  48.3632  49.7263
    49.7264  49.7511  53.7975  54.7312  54.7313  55.8283  65.3897  65.3897
    68.9448  68.9452

          k = 0.0833 0.0833 0.3333 (   998 PWs)   bands (ev):

    32.0781  32.2973  32.2973  32.7004  34.4418  34.6432  34.6433  36.6255
    41.4270  42.0134  43.5271  43.5271  44.5710  46.1729  47.8248  47.8249
    48.0720  48.6040  52.7908  52.9678  54.6292  54.6292  67.3987  67.3989
    68.7661  68.7661

          k = 0.0833 0.0833 0.4167 (   990 PWs)   bands (ev):

    33.0235  33.4556  33.4558  33.9434  34.8033  35.8378  36.4517  36.4517
    40.9456  40.9456  41.4524  43.2831  44.0426  45.6747  46.1556  46.1557
    46.3720  49.5301  50.1982  51.6886  54.5862  54.5862  68.4094  68.4095
    69.1369  69.1369

          k = 0.0833 0.0833-0.5000 (   998 PWs)   bands (ev):

    34.0018  34.0020  34.0059  34.0059  35.1363  35.1364  37.9590  37.9591
    39.1542  39.1542  42.2916  42.2917  44.7527  44.7527  45.4473  45.4474
    47.7032  47.7032  50.5774  50.5775  54.5747  54.5747  68.5269  68.5270
    69.5367  69.5367

          k = 0.0833 0.1667 0.1667 (   982 PWs)   bands (ev):

    30.5221  30.7867  30.7868  32.0562  32.0562  32.7532  32.8614  38.4572
    40.2938  40.5436  45.9094  47.1830  47.7428  47.7429  48.0755  49.9248
    50.5262  50.5263  54.4333  54.4333  54.4558  60.8534  60.8535  64.7636
    67.8516  69.7015

          k = 0.0833 0.1667 0.2500 (   995 PWs)   bands (ev):

    31.1542  31.5524  31.6376  32.6658  33.3384  33.6674  34.1454  37.9701
    40.8651  41.0064  44.9288  45.1963  45.8745  45.9385  47.8217  48.6589
    49.1164  49.5275  53.6117  53.9129  53.9270  58.2279  63.2448  66.0574
    67.5715  70.3922

          k = 0.0833 0.1667 0.3333 (   992 PWs)   bands (ev):

    32.1561  32.4435  32.7915  33.6028  34.4951  34.8812  35.6877  37.3032
    40.9763  41.8225  42.3374  43.3963  44.0545  45.1236  47.2167  47.4612
    48.0544  48.8601  52.3049  53.5178  53.5481  55.6313  65.1194  65.9792
    69.0331  70.0210

          k = 0.0833 0.1667 0.4167 (   989 PWs)   bands (ev):

    33.3414  33.3697  33.9440  34.7493  34.8371  36.4487  36.8221  37.0211
    40.2994  40.5052  41.1162  42.2719  42.9509  45.8096  45.9063  46.3536
    46.4875  50.1523  50.4517  53.3227  53.3482  53.4298  66.0508  66.0806
    70.1117  70.1396

          k = 0.0833 0.1667-0.5000 (   990 PWs)   bands (ev):

    34.1880  34.1881  34.2668  34.2669  36.0846  36.0847  37.4577  37.4577
    39.6799  39.6799  40.8883  40.8883  44.2867  44.2868  45.5447  45.5448
    48.3098  48.3098  51.6576  51.6577  53.2778  53.2778  66.2188  66.2188
    70.3824  70.3825

          k = 0.0833 0.2500 0.2500 (   998 PWs)   bands (ev):

    31.5361  32.3789  32.3789  33.9080  33.9081  34.1491  35.5408  38.1617
    41.0668  41.1009  43.3359  43.3360  44.7566  44.8846  47.3916  48.5228
    48.5228  48.5907  52.9113  52.9114  53.0432  60.7132  60.7133  64.6983
    69.2567  70.3158

          k = 0.0833 0.2500 0.3333 (   991 PWs)   bands (ev):

    32.3142  33.2250  33.5433  34.6607  34.8009  35.2984  36.9304  38.0579
    40.7977  41.0720  41.6972  41.7828  43.0271  44.8858  46.2412  47.0222
    47.5641  50.0257  51.5330  52.2496  52.2995  58.2177  62.6859  63.9602
    70.3736  70.8565

          k = 0.0833 0.2500 0.4167 (   992 PWs)   bands (ev):

    33.4240  34.0143  34.7207  34.9050  36.0377  36.3618  37.7331  37.9555
    39.7777  39.8000  40.4089  41.3179  42.6622  45.3281  45.4113  46.0064
    46.3241  49.7499  51.7980  51.8388  51.8417  55.9046  63.7687  63.8533
    70.9702  71.2811

          k = 0.0833 0.2500-0.5000 (   986 PWs)   bands (ev):

    34.5988  34.5989  34.6379  34.6380  37.2167  37.2167  37.3788  37.3789
    39.4676  39.4676  40.1656  40.1656  43.9180  43.9180  45.3210  45.3211
    47.7910  47.7911  51.7016  51.7016  53.7711  53.7711  63.9800  63.9800
    71.5454  71.5458

          k = 0.0833 0.3333 0.3333 (   992 PWs)   bands (ev):

    32.8370  34.3724  34.3725  34.9055  35.9827  35.9828  38.0400  38.4860
    39.9660  39.9661  40.8087  41.7337  42.2974  44.5962  45.1830  46.3746
    46.3746  50.7512  50.7512  51.2009  51.8466  60.3965  60.3965  62.8575
    70.1628  72.1103

          k = 0.0833 0.3333 0.4167 (  1001 PWs)   bands (ev):

    33.7197  34.9777  35.1385  35.7068  36.1483  37.0636  38.3170  38.5262
    39.1751  39.6315  40.0466  41.5052  42.3284  44.4262  44.8930  45.4029
    45.4646  48.9630  50.2128  50.4042  53.9258  58.2277  61.8384  62.5156
    70.5877  72.0332

          k = 0.0833 0.3333-0.5000 (   994 PWs)   bands (ev):

    34.8868  34.8868  35.2151  35.2152  37.3199  37.3199  38.2710  38.2710
    38.9718  38.9719  40.6536  40.6536  43.4664  43.4665  44.5726  44.5727
    47.0572  47.0572  50.0729  50.0729  56.0783  56.0783  62.4082  62.4082
    71.4984  72.0152

          k = 0.0833 0.4167 0.4167 (  1001 PWs)   bands (ev):

    34.2997  35.3538  35.8288  35.8288  36.8081  36.8081  38.2993  38.3274
    39.8938  39.8938  40.8828  41.6875  42.0224  43.5194  44.1838  44.1839
    45.5354  48.4438  48.4438  49.1845  56.1323  60.0852  60.0853  61.8548
    70.8562  72.1864

          k = 0.0833 0.4167-0.5000 (  1002 PWs)   bands (ev):

    35.1447  35.1448  35.5667  35.5667  37.5837  37.5838  37.7283  37.7283
    40.4849  40.4850  41.1875  41.1875  42.8674  42.8674  43.4629  43.4629
    46.7220  46.7220  48.4775  48.4775  58.2153  58.2153  61.2487  61.2487
    71.5812  71.5824

          k = 0.0833-0.5000-0.5000 (   996 PWs)   bands (ev):

    35.4326  35.4326  35.4327  35.4327  37.6831  37.6833  37.6833  37.6833
    41.5581  41.5583  41.5583  41.5583  42.4871  42.4871  42.4872  42.4872
    47.2153  47.2153  47.2153  47.2154  59.9564  59.9565  59.9565  59.9565
    71.9508  71.9508

          k = 0.1667 0.1667 0.1667 (   997 PWs)   bands (ev):

    30.9806  30.9807  30.9807  33.1086  33.1086  33.1086  33.1314  38.8537
    40.4893  40.4893  46.5271  46.5271  46.8146  46.8146  46.8146  48.6892
    48.6892  48.6893  54.6805  54.6805  54.6806  62.3091  62.3092  62.3092
    69.5799  69.5802

          k = 0.1667 0.1667 0.2500 (   992 PWs)   bands (ev):

    31.5836  31.5837  31.6720  33.5525  33.7332  34.4586  34.4586  38.8711
    40.7817  40.8546  44.7006  44.7006  45.1267  45.8679  47.2288  47.4814
    47.7308  47.7309  54.1632  54.1632  54.4990  59.2977  64.0911  64.0911
    68.5070  68.5074

          k = 0.1667 0.1667 0.3333 (   994 PWs)   bands (ev):

    32.4765  32.5700  32.5701  33.9910  34.6695  35.8458  35.8458  38.5910
    40.7262  41.4203  42.4918  42.4918  43.3212  45.7630  46.1331  46.7812
    46.7812  48.6859  53.4437  53.4437  53.8245  56.1338  65.5941  65.5942
    68.0308  68.0309

          k = 0.1667 0.1667 0.4167 (   992 PWs)   bands (ev):

    33.2576  33.8002  33.8003  34.1661  35.9129  36.6540  36.6540  38.2847
    40.0782  41.0248  41.0248  41.6423  42.2031  44.4004  45.6910  45.6911
    47.7570  50.0432  52.7538  52.9316  52.9316  53.0428  66.5231  66.5232
    67.8988  67.8988

          k = 0.1667 0.1667-0.5000 (   974 PWs)   bands (ev):

    33.8819  33.8819  34.6136  34.6137  36.5139  36.5139  37.3008  37.3009
    40.3703  40.3703  40.7391  40.7391  43.2020  43.2021  45.1121  45.1122
    50.1867  50.1867  51.4426  51.4427  52.7592  52.7592  66.8505  66.8506
    67.8533  67.8534

          k = 0.1667 0.2500 0.2500 (   994 PWs)   bands (ev):

    31.9132  32.2169  32.2170  33.5597  35.0106  35.0107  35.7557  39.6454
    40.7271  40.9412  43.2836  43.2837  43.9545  46.0153  46.1647  46.4166
    46.4166  48.0425  53.8180  54.1077  54.1077  61.1216  61.1216  64.5030
    67.9832  68.5506

          k = 0.1667 0.2500 0.3333 (   993 PWs)   bands (ev):

    32.6416  32.9143  33.1588  33.6984  35.8528  36.1242  36.8487  39.7123
    40.7855  41.1153  41.5626  41.9013  42.6698  45.0010  45.2469  45.8066
    46.3583  49.4957  53.0713  53.2418  53.4319  58.1163  62.8631  64.3758
    68.5498  69.5741

          k = 0.1667 0.2500 0.4167 (   994 PWs)   bands (ev):

    33.4967  33.7210  33.8482  34.4087  36.2021  36.9680  37.0146  39.5983
    39.9343  40.7494  41.0801  41.6760  41.9564  43.6749  44.5185  45.0277
    47.8731  51.2418  52.0112  52.3826  52.4738  55.4216  64.0120  64.3817
    68.9664  69.1222

          k = 0.1667 0.2500-0.5000 (   990 PWs)   bands (ev):

    33.8204  33.8205  34.9696  34.9697  35.9535  35.9535  38.4133  38.4133
    39.9966  39.9966  41.6736  41.6736  42.5471  42.5471  44.3319  44.3319
    49.9867  49.9867  52.1459  52.1459  53.1794  53.1795  64.4160  64.4160
    69.0198  69.0204

          k = 0.1667 0.3333 0.3333 (   994 PWs)   bands (ev):

    33.0607  33.6371  33.7154  33.7155  36.5996  36.5996  37.4806  39.8064
    40.7862  40.8991  40.8991  41.6877  42.7654  43.9933  44.5542  44.5543
    46.2771  51.2604  52.3602  52.5083  52.5083  60.1380  60.1380  63.2223
    68.0516  69.5312

          k = 0.1667 0.3333 0.4167 (   988 PWs)   bands (ev):

    33.7508  33.8122  33.9795  34.7364  36.2041  37.2516  37.3837  39.2630
    40.6526  40.9118  41.2818  41.8928  42.8624  43.2824  43.3131  44.0653
    47.2872  51.0562  51.5877  51.6602  53.3169  57.7005  61.6115  62.7059
    68.4156  69.9633

          k = 0.1667 0.3333-0.5000 (   988 PWs)   bands (ev):

    33.9258  33.9258  34.7674  34.7674  36.3123  36.3124  38.3729  38.3729
    40.7952  40.7952  42.2988  42.2988  42.3148  42.3149  43.4947  43.4947
    49.1388  49.1388  51.2783  51.2783  55.4667  55.4667  62.3720  62.3720
    69.3680  70.0730

          k = 0.1667 0.4167 0.4167 (   990 PWs)   bands (ev):

    33.8359  34.0962  34.4438  34.4438  37.0213  37.0214  37.2823  38.8206
    40.8689  41.4274  41.4274  42.3558  42.8768  43.2470  43.2470  43.4917
    47.3236  50.2620  50.2621  50.6201  55.5006  59.5604  59.5604  61.7058
    68.6104  70.3476

          k = 0.1667 0.4167-0.5000 (   998 PWs)   bands (ev):

    34.0797  34.0797  34.4432  34.4432  37.0264  37.0265  38.0204  38.0204
    41.1668  41.1668  41.9023  41.9023  43.0469  43.0470  43.5407  43.5408
    48.5627  48.5627  50.0342  50.0343  57.5881  57.5881  60.8436  60.8436
    69.4014  69.4016

          k = 0.1667-0.5000-0.5000 (  1000 PWs)   bands (ev):

    34.2326  34.2326  34.2326  34.2326  37.6322  37.6323  37.6323  37.6323
    41.3268  41.3268  41.3269  41.3269  43.6867  43.6868  43.6868  43.6869
    48.8612  48.8612  48.8612  48.8612  59.3701  59.3701  59.3701  59.3701
    69.9309  69.9310

          k = 0.2500 0.2500 0.2500 (  1003 PWs)   bands (ev):

    32.4413  32.4414  32.4414  33.1732  36.1358  36.1359  36.1359  40.5296
    40.5296  41.3565  42.9620  42.9620  42.9620  44.7962  44.7962  44.7963
    47.4865  47.4865  54.3119  54.3119  54.3119  61.8660  61.8661  61.8661
    67.3952  69.2248

          k = 0.2500 0.2500 0.3333 (   991 PWs)   bands (ev):

    32.9494  33.0465  33.0465  33.0483  36.7320  36.7913  36.7914  40.1140
    40.5801  42.0887  42.2093  42.3507  42.3508  43.5068  44.0962  44.0962
    47.7896  49.1216  53.6928  53.6928  54.2301  58.5953  62.6955  62.6956
    67.0236  68.6653

          k = 0.2500 0.2500 0.4167 (   989 PWs)   bands (ev):

    33.1212  33.2371  33.9653  33.9654  36.4211  36.4211  37.5825  39.4702
    40.9098  41.5809  41.9855  42.3966  42.4417  42.4418  43.6850  43.6850
    49.5817  50.7808  52.8751  52.8751  53.5222  55.3285  63.3046  63.3047
    67.4180  68.4566

          k = 0.2500 0.2500-0.5000 (   976 PWs)   bands (ev):

    33.2490  33.2490  34.7764  34.7764  35.6773  35.6774  38.5806  38.5806
    41.5205  41.5205  41.5728  41.5729  43.0932  43.0932  43.1082  43.1082
    52.2555  52.2555  52.3092  52.3092  52.5055  52.5055  63.5297  63.5297
    68.3849  68.3850

          k = 0.2500 0.3333 0.3333 (   992 PWs)   bands (ev):

    32.7350  33.2264  33.2848  33.2848  36.9792  36.9792  37.0449  40.0204
    40.1325  42.0881  42.0881  42.7300  43.1771  43.1771  43.3718  43.7412
    48.0974  50.4549  53.4239  53.7393  53.7393  59.7848  59.7849  62.2470
    66.4231  68.7395

          k = 0.2500 0.3333 0.4167 (   993 PWs)   bands (ev):

    32.7233  33.1942  33.6219  33.7586  36.6133  36.7877  37.5893  39.3473
    40.3018  41.4773  41.9144  42.0601  43.0633  43.8616  44.0130  44.1841
    49.2843  52.4097  52.7454  52.8691  52.9361  56.9458  60.9032  61.9191
    66.6447  69.0178

          k = 0.2500 0.3333-0.5000 (   994 PWs)   bands (ev):

    32.9280  32.9280  33.9485  33.9485  36.4275  36.4276  38.4694  38.4694
    40.7812  40.7813  41.8716  41.8716  43.5073  43.5075  44.4067  44.4067
    51.2697  51.2698  52.4108  52.4108  54.5172  54.5172  61.5828  61.5828
    67.5734  67.5735

          k = 0.2500 0.4167 0.4167 (   997 PWs)   bands (ev):

    32.6398  33.2634  33.2634  33.4341  37.0947  37.3894  37.3895  39.0897
    39.9659  41.0112  41.0112  41.1984  44.5630  44.5631  45.2351  45.3419
    49.2113  52.0185  52.0185  52.1041  54.5094  58.6040  58.6040  60.7995
    66.7041  68.7585

          k = 0.2500 0.4167-0.5000 (   998 PWs)   bands (ev):

    32.8406  32.8406  33.3431  33.3432  37.2511  37.2512  38.3196  38.3196
    40.2957  40.2957  40.8676  40.8676  45.2488  45.2489  45.4778  45.4778
    50.4871  50.4871  51.6327  51.6327  56.5489  56.5489  59.8392  59.8393
    67.5082  67.5129

          k = 0.2500-0.5000-0.5000 (  1004 PWs)   bands (ev):

    32.9772  32.9772  32.9772  32.9772  37.9492  37.9493  37.9493  37.9493
    40.2805  40.2805  40.2806  40.2806  45.9922  45.9924  45.9924  45.9924
    50.6200  50.6200  50.6200  50.6200  58.2808  58.2809  58.2809  58.2809
    68.1492  68.1493

          k = 0.3333 0.3333 0.3333 (   997 PWs)   bands (ev):

    32.2217  33.0792  33.0793  33.0793  37.1286  37.1287  37.1287  39.7972
    39.7972  41.6062  41.6062  41.6062  44.0686  44.0687  44.0687  45.7720
    49.9396  49.9396  54.0005  54.0005  54.0006  59.6524  59.6525  59.6525
    65.5973  69.1975

          k = 0.3333 0.3333 0.4167 (   994 PWs)   bands (ev):

    32.0825  32.6651  33.0322  33.0322  37.0938  37.0938  37.7320  39.2839
    39.7870  40.7126  40.9855  40.9855  44.8486  45.4189  45.4190  46.3348
    51.0692  51.6529  53.4590  53.4590  53.8756  56.6262  59.8229  59.8229
    65.6505  67.9800

          k = 0.3333 0.3333-0.5000 (   992 PWs)   bands (ev):

    32.2655  32.2656  33.0359  33.0359  37.0417  37.0418  38.5419  38.5419
    40.0973  40.0973  40.7931  40.7931  45.6811  45.6812  46.0193  46.0193
    53.0391  53.0392  53.0711  53.0711  53.6464  53.6464  59.9401  59.9402
    66.5167  66.5167

          k = 0.3333 0.4167 0.4167 (   999 PWs)   bands (ev):

    31.8322  32.3890  32.3890  32.5681  37.5186  37.8000  37.8000  39.2057
    39.3699  40.1474  40.1475  40.2369  46.5744  46.5744  46.8655  47.9025
    51.0208  53.2582  53.3212  53.3649  53.3649  57.3782  57.3782  58.9105
    65.5498  67.8156

          k = 0.3333 0.4167-0.5000 (   994 PWs)   bands (ev):

    31.9518  31.9518  32.3571  32.3571  37.7584  37.7585  38.5786  38.5786
    39.5928  39.5928  39.9554  39.9554  47.4383  47.4384  47.5936  47.5937
    52.2741  52.2741  52.9212  52.9212  55.2128  55.2128  58.2090  58.2091
    66.3220  66.3221

          k = 0.3333-0.5000-0.5000 (  1008 PWs)   bands (ev):

    31.9859  31.9859  31.9859  31.9859  38.3632  38.3632  38.3632  38.3633
    39.4885  39.4885  39.4886  39.4886  48.2814  48.2816  48.2816  48.2816
    52.1937  52.1937  52.1937  52.1938  56.7338  56.7339  56.7339  56.7339
    66.9708  66.9709

          k = 0.4167 0.4167 0.4167 (  1003 PWs)   bands (ev):

    31.4373  31.8541  31.8541  31.8541  38.1474  38.1475  38.1475  39.0995
    39.0995  39.5452  39.5452  39.5452  48.3645  48.3646  48.3646  49.9662
    52.5450  52.5450  53.7913  53.7913  53.7913  56.5197  56.5198  56.5198
    65.2909  67.4045

          k = 0.4167 0.4167-0.5000 (  1000 PWs)   bands (ev):

    31.4540  31.4540  31.6741  31.6741  38.2987  38.2987  38.7278  38.7278
    39.1603  39.1604  39.3175  39.3175  49.2116  49.2117  49.6752  49.6753
    53.5384  53.5384  53.5500  53.5501  54.0690  54.0691  56.3795  56.3796
    65.9412  65.9413

          k = 0.4167-0.5000-0.5000 (   992 PWs)   bands (ev):

    31.3634  31.3634  31.3634  31.3634  38.7031  38.7031  38.7031  38.7032
    38.9997  38.9997  38.9997  38.9998  50.4124  50.4126  50.4126  50.4126
    53.3096  53.3096  53.3096  53.3097  54.9689  54.9690  54.9690  54.9690
    66.3306  66.3310

          k =-0.5000-0.5000-0.5000 (   968 PWs)   bands (ev):

    31.1519  31.1519  31.1519  31.1519  38.8349  38.8349  38.8349  38.8350
    38.8350  38.8350  38.8350  38.8350  51.7723  51.7726  51.7726  51.7726
    53.7180  53.7180  53.7180  53.7180  53.7180  53.7180  53.7180  53.7180
    66.1257  66.1260

     the Fermi energy is    59.3463 ev

!    total energy              =   -3090.18400229 Ry

     total all-electron energy =   -152085.568366 Ry
     estimated scf accuracy    <       0.00000079 Ry
     smearing contrib. (-TS)   =      -0.12957394 Ry
     internal energy E=F+TS    =   -3090.05442836 Ry

     The total energy is F=E-TS. E is the sum of the following terms:
     one-electron contribution =     217.98293763 Ry
     hartree contribution      =       7.92776892 Ry
     xc contribution           =    -138.58954636 Ry
     ewald contribution        =    -403.52633657 Ry
     one-center paw contrib.   =   -2773.84925198 Ry

     convergence has been achieved in   6 iterations

     Forces acting on atoms (cartesian axes, Ry/au):

     atom    1 type  1   force =     0.00000000    0.00000000    0.00000000
     atom    2 type  1   force =     0.00000000    0.00000000    0.00000000
     atom    3 type  1   force =     0.00000000    0.00000000    0.00000000
     atom    4 type  1   force =     0.00000000   -0.00000000    0.00000000

     Total force =     0.000000     Total SCF correction =     0.000000

     Writing all to output data dir ./pwscf.save/
 
     init_run     :      0.53s CPU      0.57s WALL (       1 calls)
     electrons    :     13.65s CPU     13.94s WALL (       1 calls)
     forces       :      0.08s CPU      0.08s WALL (       1 calls)

     Called by init_run:
     wfcinit      :      0.41s CPU      0.42s WALL (       1 calls)
     potinit      :      0.06s CPU      0.06s WALL (       1 calls)
     hinit0       :      0.06s CPU      0.08s WALL (       1 calls)

     Called by electrons:
     c_bands      :     12.59s CPU     12.79s WALL (       6 calls)
     sum_band     :      0.69s CPU      0.71s WALL (       6 calls)
     v_of_rho     :      0.01s CPU      0.01s WALL (       7 calls)
     newd         :      0.01s CPU      0.01s WALL (       7 calls)
     PAW_pot      :      0.37s CPU      0.39s WALL (       7 calls)
     mix_rho      :      0.00s CPU      0.00s WALL (       6 calls)

     Called by c_bands:
     init_us_2    :      0.03s CPU      0.03s WALL (    1176 calls)
     init_us_2:cp :      0.02s CPU      0.02s WALL (    1176 calls)
     cegterg      :     12.43s CPU     12.62s WALL (     504 calls)

     Called by *egterg:
     cdiaghg      :      5.91s CPU      5.97s WALL (    4207 calls)
     h_psi        :      4.48s CPU      4.58s WALL (    4291 calls)
     s_psi        :      0.12s CPU      0.12s WALL (    4291 calls)
     g_psi        :      0.01s CPU      0.01s WALL (    3703 calls)

     Called by h_psi:
     h_psi:calbec :      0.34s CPU      0.35s WALL (    4291 calls)
     vloc_psi     :      3.99s CPU      4.08s WALL (    4291 calls)
     add_vuspsi   :      0.12s CPU      0.13s WALL (    4291 calls)

     General routines
     calbec       :      0.46s CPU      0.47s WALL (    5131 calls)
     fft          :      0.01s CPU      0.01s WALL (      88 calls)
     ffts         :      0.00s CPU      0.00s WALL (       6 calls)
     fftw         :      4.34s CPU      4.45s WALL (  120390 calls)
 
     Parallel routines
 
     PWSCF        :     14.85s CPU     16.75s WALL

 
   This run was terminated on:  12:36: 9   5Apr2024            

=------------------------------------------------------------------------------=
   JOB DONE.
=------------------------------------------------------------------------------=
