MPI startup(): Warning: I_MPI_PMI_LIBRARY will be ignored since the hydra process manager was found
MPI startup(): Warning: I_MPI_PMI_LIBRARY will be ignored since the hydra process manager was found
MPI startup(): Warning: I_MPI_PMI_LIBRARY will be ignored since the hydra process manager was found
MPI startup(): Warning: I_MPI_PMI_LIBRARY will be ignored since the hydra process manager was found
MPI startup(): Warning: I_MPI_PMI_LIBRARY will be ignored since the hydra process manager was found
MPI startup(): Warning: I_MPI_PMI_LIBRARY will be ignored since the hydra process manager was found
MPI startup(): Warning: I_MPI_PMI_LIBRARY will be ignored since the hydra process manager was found
MPI startup(): Warning: I_MPI_PMI_LIBRARY will be ignored since the hydra process manager was found
MPI startup(): Warning: I_MPI_PMI_LIBRARY will be ignored since the hydra process manager was found
MPI startup(): Warning: I_MPI_PMI_LIBRARY will be ignored since the hydra process manager was found

     Program PWSCF v.7.0 starts on  5Apr2024 at 12:35:51 

     This program is part of the open-source Quantum ESPRESSO suite
     for quantum simulation of materials; please cite
         "P. Giannozzi et al., J. Phys.:Condens. Matter 21 395502 (2009);
         "P. Giannozzi et al., J. Phys.:Condens. Matter 29 465901 (2017);
         "P. Giannozzi et al., J. Chem. Phys. 152 154105 (2020);
          URL http://www.quantum-espresso.org", 
     in publications or presentations arising from this work. More details at
     http://www.quantum-espresso.org/quote

     Parallel version (MPI), running on    10 processors

     MPI processes distributed on     1 nodes
     R & G space division:  proc/nbgrp/npool/nimage =      10
     224847 MiB available memory on the printing compute node when the environment starts
 
     Reading input from VolumeFCC_5.9.in
Warning: card &CELL ignored
Warning: card / ignored

     Current dimensions of program PWSCF are:
     Max number of different atomic species (ntypx) = 10
     Max number of k-points (npk) =  40000
     Max angular momentum in pseudopotentials (lmaxx) =  4
     file Au.pbe-n-kjpaw_psl.1.0.0.UPF: wavefunction(s)  6S 5D renormalized
     Found identity + (  0.5000  0.5000  0.0000) symmetry
     This is a supercell, fractional translations are disabled
     Message from routine setup:
     using ibrav=0 with symmetry is DISCOURAGED, use correct ibrav instead

     Subspace diagonalization in iterative solution of the eigenvalue problem:
     one sub-group per band group will be used
     scalapack distributed-memory algorithm (size of sub-group:  3*  3 procs)

 
     Parallelization info
     --------------------
     sticks:   dense  smooth     PW     G-vecs:    dense   smooth      PW
     Min          55      55     17                  979      979     177
     Max          56      56     18                  982      982     180
     Sum         553     553    177                 9795     9795    1791
 
     Using Slab Decomposition
 


     bravais-lattice index     =            0
     lattice parameter (alat)  =       5.8991  a.u.
     unit-cell volume          =     205.2897 (a.u.)^3
     number of atoms/cell      =            4
     number of atomic types    =            1
     number of electrons       =        44.00
     number of Kohn-Sham states=           26
     kinetic-energy cutoff     =      50.0000  Ry
     charge density cutoff     =     200.0000  Ry
     scf convergence threshold =      1.0E-06
     mixing beta               =       0.7000
     number of iterations used =            8  plain     mixing
     Exchange-correlation= SLA  PW   PBX  PBC
                           (   1   4   3   4   0   0   0)

     celldm(1)=   5.899145  celldm(2)=   0.000000  celldm(3)=   0.000000
     celldm(4)=   0.000000  celldm(5)=   0.000000  celldm(6)=   0.000000

     crystal axes: (cart. coord. in units of alat)
               a(1) = (   1.000000   0.000000   0.000000 )  
               a(2) = (   0.000000   1.000000   0.000000 )  
               a(3) = (   0.000000   0.000000   1.000000 )  

     reciprocal axes: (cart. coord. in units 2 pi/alat)
               b(1) = (  1.000000  0.000000  0.000000 )  
               b(2) = (  0.000000  1.000000  0.000000 )  
               b(3) = (  0.000000  0.000000  1.000000 )  


     PseudoPot. # 1 for Au read from file:
     ./Au.pbe-n-kjpaw_psl.1.0.0.UPF
     MD5 check sum: 4db85c736373c707a97ce4c36c2a9d23
     Pseudo is Projector augmented-wave + core cor, Zval = 11.0
     Generated using &quot;atomic&quot; code by A. Dal Corso  v.6.3
     Shape of augmentation charge: PSQ
     Using radial grid of 1279 points,  6 beta functions with: 
                l(1) =   0
                l(2) =   0
                l(3) =   1
                l(4) =   1
                l(5) =   2
                l(6) =   2
     Q(r) pseudized with 0 coefficients 


     atomic species   valence    mass     pseudopotential
        Au            11.00   196.96657     Au( 1.00)

     48 Sym. Ops., with inversion, found



   Cartesian axes

     site n.     atom                  positions (alat units)
         1           Au  tau(   1) = (   0.0000000   0.0000000   0.0000000  )
         2           Au  tau(   2) = (   0.5000000   0.5000000   0.0000000  )
         3           Au  tau(   3) = (   0.5000000   0.0000000   0.5000000  )
         4           Au  tau(   4) = (   0.0000000   0.5000000   0.5000000  )

     number of k points=    84  Gaussian smearing, width (Ry)=  0.2000
                       cart. coord. in units 2pi/alat
        k(    1) = (   0.0000000   0.0000000   0.0000000), wk =   0.0011574
        k(    2) = (   0.0000000   0.0000000   0.0833333), wk =   0.0069444
        k(    3) = (   0.0000000   0.0000000   0.1666667), wk =   0.0069444
        k(    4) = (   0.0000000   0.0000000   0.2500000), wk =   0.0069444
        k(    5) = (   0.0000000   0.0000000   0.3333333), wk =   0.0069444
        k(    6) = (   0.0000000   0.0000000   0.4166667), wk =   0.0069444
        k(    7) = (   0.0000000   0.0000000  -0.5000000), wk =   0.0034722
        k(    8) = (   0.0000000   0.0833333   0.0833333), wk =   0.0138889
        k(    9) = (   0.0000000   0.0833333   0.1666667), wk =   0.0277778
        k(   10) = (   0.0000000   0.0833333   0.2500000), wk =   0.0277778
        k(   11) = (   0.0000000   0.0833333   0.3333333), wk =   0.0277778
        k(   12) = (   0.0000000   0.0833333   0.4166667), wk =   0.0277778
        k(   13) = (   0.0000000   0.0833333  -0.5000000), wk =   0.0138889
        k(   14) = (   0.0000000   0.1666667   0.1666667), wk =   0.0138889
        k(   15) = (   0.0000000   0.1666667   0.2500000), wk =   0.0277778
        k(   16) = (   0.0000000   0.1666667   0.3333333), wk =   0.0277778
        k(   17) = (   0.0000000   0.1666667   0.4166667), wk =   0.0277778
        k(   18) = (   0.0000000   0.1666667  -0.5000000), wk =   0.0138889
        k(   19) = (   0.0000000   0.2500000   0.2500000), wk =   0.0138889
        k(   20) = (   0.0000000   0.2500000   0.3333333), wk =   0.0277778
        k(   21) = (   0.0000000   0.2500000   0.4166667), wk =   0.0277778
        k(   22) = (   0.0000000   0.2500000  -0.5000000), wk =   0.0138889
        k(   23) = (   0.0000000   0.3333333   0.3333333), wk =   0.0138889
        k(   24) = (   0.0000000   0.3333333   0.4166667), wk =   0.0277778
        k(   25) = (   0.0000000   0.3333333  -0.5000000), wk =   0.0138889
        k(   26) = (   0.0000000   0.4166667   0.4166667), wk =   0.0138889
        k(   27) = (   0.0000000   0.4166667  -0.5000000), wk =   0.0138889
        k(   28) = (   0.0000000  -0.5000000  -0.5000000), wk =   0.0034722
        k(   29) = (   0.0833333   0.0833333   0.0833333), wk =   0.0092593
        k(   30) = (   0.0833333   0.0833333   0.1666667), wk =   0.0277778
        k(   31) = (   0.0833333   0.0833333   0.2500000), wk =   0.0277778
        k(   32) = (   0.0833333   0.0833333   0.3333333), wk =   0.0277778
        k(   33) = (   0.0833333   0.0833333   0.4166667), wk =   0.0277778
        k(   34) = (   0.0833333   0.0833333  -0.5000000), wk =   0.0138889
        k(   35) = (   0.0833333   0.1666667   0.1666667), wk =   0.0277778
        k(   36) = (   0.0833333   0.1666667   0.2500000), wk =   0.0555556
        k(   37) = (   0.0833333   0.1666667   0.3333333), wk =   0.0555556
        k(   38) = (   0.0833333   0.1666667   0.4166667), wk =   0.0555556
        k(   39) = (   0.0833333   0.1666667  -0.5000000), wk =   0.0277778
        k(   40) = (   0.0833333   0.2500000   0.2500000), wk =   0.0277778
        k(   41) = (   0.0833333   0.2500000   0.3333333), wk =   0.0555556
        k(   42) = (   0.0833333   0.2500000   0.4166667), wk =   0.0555556
        k(   43) = (   0.0833333   0.2500000  -0.5000000), wk =   0.0277778
        k(   44) = (   0.0833333   0.3333333   0.3333333), wk =   0.0277778
        k(   45) = (   0.0833333   0.3333333   0.4166667), wk =   0.0555556
        k(   46) = (   0.0833333   0.3333333  -0.5000000), wk =   0.0277778
        k(   47) = (   0.0833333   0.4166667   0.4166667), wk =   0.0277778
        k(   48) = (   0.0833333   0.4166667  -0.5000000), wk =   0.0277778
        k(   49) = (   0.0833333  -0.5000000  -0.5000000), wk =   0.0069444
        k(   50) = (   0.1666667   0.1666667   0.1666667), wk =   0.0092593
        k(   51) = (   0.1666667   0.1666667   0.2500000), wk =   0.0277778
        k(   52) = (   0.1666667   0.1666667   0.3333333), wk =   0.0277778
        k(   53) = (   0.1666667   0.1666667   0.4166667), wk =   0.0277778
        k(   54) = (   0.1666667   0.1666667  -0.5000000), wk =   0.0138889
        k(   55) = (   0.1666667   0.2500000   0.2500000), wk =   0.0277778
        k(   56) = (   0.1666667   0.2500000   0.3333333), wk =   0.0555556
        k(   57) = (   0.1666667   0.2500000   0.4166667), wk =   0.0555556
        k(   58) = (   0.1666667   0.2500000  -0.5000000), wk =   0.0277778
        k(   59) = (   0.1666667   0.3333333   0.3333333), wk =   0.0277778
        k(   60) = (   0.1666667   0.3333333   0.4166667), wk =   0.0555556
        k(   61) = (   0.1666667   0.3333333  -0.5000000), wk =   0.0277778
        k(   62) = (   0.1666667   0.4166667   0.4166667), wk =   0.0277778
        k(   63) = (   0.1666667   0.4166667  -0.5000000), wk =   0.0277778
        k(   64) = (   0.1666667  -0.5000000  -0.5000000), wk =   0.0069444
        k(   65) = (   0.2500000   0.2500000   0.2500000), wk =   0.0092593
        k(   66) = (   0.2500000   0.2500000   0.3333333), wk =   0.0277778
        k(   67) = (   0.2500000   0.2500000   0.4166667), wk =   0.0277778
        k(   68) = (   0.2500000   0.2500000  -0.5000000), wk =   0.0138889
        k(   69) = (   0.2500000   0.3333333   0.3333333), wk =   0.0277778
        k(   70) = (   0.2500000   0.3333333   0.4166667), wk =   0.0555556
        k(   71) = (   0.2500000   0.3333333  -0.5000000), wk =   0.0277778
        k(   72) = (   0.2500000   0.4166667   0.4166667), wk =   0.0277778
        k(   73) = (   0.2500000   0.4166667  -0.5000000), wk =   0.0277778
        k(   74) = (   0.2500000  -0.5000000  -0.5000000), wk =   0.0069444
        k(   75) = (   0.3333333   0.3333333   0.3333333), wk =   0.0092593
        k(   76) = (   0.3333333   0.3333333   0.4166667), wk =   0.0277778
        k(   77) = (   0.3333333   0.3333333  -0.5000000), wk =   0.0138889
        k(   78) = (   0.3333333   0.4166667   0.4166667), wk =   0.0277778
        k(   79) = (   0.3333333   0.4166667  -0.5000000), wk =   0.0277778
        k(   80) = (   0.3333333  -0.5000000  -0.5000000), wk =   0.0069444
        k(   81) = (   0.4166667   0.4166667   0.4166667), wk =   0.0092593
        k(   82) = (   0.4166667   0.4166667  -0.5000000), wk =   0.0138889
        k(   83) = (   0.4166667  -0.5000000  -0.5000000), wk =   0.0069444
        k(   84) = (  -0.5000000  -0.5000000  -0.5000000), wk =   0.0011574

     Dense  grid:     9795 G-vectors     FFT dimensions: (  27,  27,  27)

     Estimated max dynamical RAM per process >       8.90 MB

     Estimated total dynamical RAM >      89.03 MB

     Initial potential from superposition of free atoms

     starting charge      43.9996, renormalised to      44.0000
     Starting wfcs are   36 randomized atomic wfcs
     Checking if some PAW data can be deallocated... 

     total cpu time spent up to now is        0.7 secs

     Self-consistent Calculation

     iteration #  1     ecut=    50.00 Ry     beta= 0.70
     Davidson diagonalization with overlap
     ethr =  1.00E-02,  avg # of iterations =  5.6

     Threshold (ethr) on eigenvalues was too large:
     Diagonalizing with lowered threshold

     Davidson diagonalization with overlap
     ethr =  5.20E-04,  avg # of iterations =  5.9

     total cpu time spent up to now is        3.7 secs

     total energy              =   -3095.34612623 Ry
     estimated scf accuracy    <       0.15690646 Ry

     iteration #  2     ecut=    50.00 Ry     beta= 0.70
     Davidson diagonalization with overlap
     ethr =  3.57E-04,  avg # of iterations =  2.8

     total cpu time spent up to now is        4.8 secs

     total energy              =   -3095.38296560 Ry
     estimated scf accuracy    <       0.01343495 Ry

     iteration #  3     ecut=    50.00 Ry     beta= 0.70
     Davidson diagonalization with overlap
     c_bands:  1 eigenvalues not converged
     c_bands:  1 eigenvalues not converged
     c_bands:  1 eigenvalues not converged
     ethr =  3.05E-05,  avg # of iterations =  7.0

     total cpu time spent up to now is        6.6 secs

     total energy              =   -3095.39095954 Ry
     estimated scf accuracy    <       0.00091174 Ry

     iteration #  4     ecut=    50.00 Ry     beta= 0.70
     Davidson diagonalization with overlap
     c_bands:  1 eigenvalues not converged
     c_bands:  1 eigenvalues not converged
     c_bands:  1 eigenvalues not converged
     c_bands:  2 eigenvalues not converged
     c_bands:  1 eigenvalues not converged
     c_bands:  2 eigenvalues not converged
     ethr =  2.07E-06,  avg # of iterations =  7.5

     total cpu time spent up to now is        8.4 secs

     total energy              =   -3095.39145650 Ry
     estimated scf accuracy    <       0.00024973 Ry

     iteration #  5     ecut=    50.00 Ry     beta= 0.70
     Davidson diagonalization with overlap
     ethr =  5.68E-07,  avg # of iterations =  4.5

     total cpu time spent up to now is        9.7 secs

     total energy              =   -3095.39153642 Ry
     estimated scf accuracy    <       0.00001315 Ry

     iteration #  6     ecut=    50.00 Ry     beta= 0.70
     Davidson diagonalization with overlap
     c_bands:  1 eigenvalues not converged
     ethr =  2.99E-08,  avg # of iterations =  7.0

     total cpu time spent up to now is       11.8 secs

     total energy              =   -3095.39154717 Ry
     estimated scf accuracy    <       0.00001167 Ry

     iteration #  7     ecut=    50.00 Ry     beta= 0.70
     Davidson diagonalization with overlap
     ethr =  2.65E-08,  avg # of iterations =  2.3

     total cpu time spent up to now is       12.7 secs

     total energy              =   -3095.39154828 Ry
     estimated scf accuracy    <       0.00000105 Ry

     iteration #  8     ecut=    50.00 Ry     beta= 0.70
     Davidson diagonalization with overlap
     ethr =  2.38E-09,  avg # of iterations =  5.8

     total cpu time spent up to now is       14.5 secs

     End of self-consistent calculation

          k = 0.0000 0.0000 0.0000 (  1237 PWs)   bands (ev):

    22.7790  23.8094  23.8094  23.8096  24.6485  24.6485  24.6485  31.6304
    31.6304  31.6304  37.3869  37.3869  42.0101  42.0101  42.0102  43.4298
    43.4298  43.4298  43.4301  43.4301  43.4301  44.6018  44.6018  44.6018
    56.6852  57.9689

          k = 0.0000 0.0000 0.0833 (  1229 PWs)   bands (ev):

    22.9775  23.9430  23.9707  23.9708  24.7344  24.8222  24.8222  31.4511
    31.7603  31.7603  37.1580  37.4526  41.4869  41.4869  41.6510  41.6511
    41.9134  43.0194  43.0194  43.4310  43.4313  43.9391  46.5294  46.5294
    57.6860  57.6876

          k = 0.0000 0.0000 0.1667 (  1253 PWs)   bands (ev):

    23.5543  24.3315  24.4386  24.4387  24.9897  25.3388  25.3388  30.9476
    32.1468  32.1468  36.5175  37.6471  39.0907  39.0907  40.6551  40.6552
    41.6347  41.9492  41.9492  42.2458  43.4344  43.4347  48.8711  48.8711
    57.1673  57.1673

          k = 0.0000 0.0000 0.2500 (  1245 PWs)   bands (ev):

    24.4456  24.9404  25.1599  25.1600  25.4091  26.1861  26.1861  30.2071
    32.7819  32.7819  35.6049  36.7429  36.7429  37.9627  39.2437  39.2438
    40.0516  40.5223  40.5223  41.2057  43.4389  43.4392  51.1027  51.1027
    56.7616  56.7617

          k = 0.0000 0.0000 0.3333 (  1221 PWs)   bands (ev):

    25.5073  25.6891  25.9818  26.0195  26.0197  27.3443  27.3443  29.3306
    33.6519  33.6519  34.4989  34.4989  34.6634  37.7298  37.7299  37.7745
    38.3863  38.9730  38.9730  40.6705  43.4435  43.4438  53.1283  53.1283
    56.5417  56.5417

          k = 0.0000 0.0000 0.4167 (  1218 PWs)   bands (ev):

    26.4100  26.4359  26.6909  26.7905  26.7906  28.4088  28.7874  28.7874
    32.3999  32.3999  34.0899  34.7375  34.7375  35.7571  36.5009  36.5011
    37.4422  37.4422  38.8985  40.0776  43.4469  43.4472  54.8563  54.8563
    56.4543  56.4546

          k = 0.0000 0.0000-0.5000 (  1222 PWs)   bands (ev):

    26.7785  26.7786  27.1200  27.1202  27.5120  27.5122  30.4837  30.4837
    30.4838  30.4838  34.4036  34.4037  36.0082  36.0084  36.0129  36.0129
    36.0130  36.0130  39.4733  39.4735  43.4481  43.4484  56.2027  56.2027
    56.2045  56.2087

          k = 0.0000 0.0833 0.0833 (  1241 PWs)   bands (ev):

    23.1700  24.0980  24.1045  24.1046  24.9063  24.9063  25.0231  31.3769
    31.7927  31.8802  37.0850  37.3813  40.6369  40.8725  40.8727  41.3307
    41.7347  41.7348  43.0198  43.0198  43.1776  45.9233  45.9234  47.6222
    56.5672  57.4024

          k = 0.0000 0.0833 0.1667 (  1246 PWs)   bands (ev):

    23.7301  24.4876  24.4950  24.5738  25.1571  25.4183  25.5986  30.9413
    32.1330  32.2316  36.5300  37.5495  38.5423  38.7313  39.6706  40.4250
    40.7712  41.4541  41.9476  43.0210  43.0380  44.4422  48.2411  49.6279
    55.5440  57.5761

          k = 0.0000 0.0833 0.2500 (  1243 PWs)   bands (ev):

    24.5977  25.1063  25.1330  25.2978  25.5685  26.2574  26.4885  30.2375
    32.7599  32.7754  35.6963  36.2473  36.5726  37.9068  38.1014  39.1086
    39.4286  40.5178  40.7614  42.7374  43.0045  43.0218  50.3959  51.7272
    54.8755  57.1209

          k = 0.0000 0.0833 0.3333 (  1219 PWs)   bands (ev):

    25.6393  25.8587  25.9679  26.1297  26.1606  27.4034  27.6196  29.3927
    33.3185  33.6298  34.0854  34.4232  35.0335  36.3723  37.6723  37.9462
    38.3980  38.9648  39.5316  41.4022  43.0006  43.0211  52.2140  53.6926
    54.5166  57.0112

          k = 0.0000 0.0833 0.4167 (  1219 PWs)   bands (ev):

    26.5707  26.5818  26.7963  26.8237  26.9277  28.4986  28.8284  28.9233
    32.1184  32.3798  33.3702  34.7179  34.7520  35.3902  36.5135  36.6851
    37.4300  37.9916  39.0005  40.4722  43.0057  43.0181  53.4630  54.3202
    55.3948  57.3580

          k = 0.0000 0.0833-0.5000 (  1218 PWs)   bands (ev):

    26.9388  26.9388  27.2164  27.2165  27.6251  27.6253  30.3999  30.3999
    30.4999  30.5000  33.6441  33.6441  35.9967  35.9969  36.1067  36.1069
    36.5387  36.5387  39.6941  39.6943  43.0124  43.0127  54.0727  54.0727
    56.7353  56.7354

          k = 0.0000 0.1667 0.1667 (  1253 PWs)   bands (ev):

    24.2423  24.7222  24.9692  24.9693  25.6547  25.6547  26.2707  30.7622
    32.2741  32.4709  36.3286  37.3630  37.3632  37.5398  37.6447  39.7423
    40.7022  40.7022  41.9429  41.9429  42.4507  46.7227  46.7229  51.2961
    53.9720  58.7005

          k = 0.0000 0.1667 0.2500 (  1230 PWs)   bands (ev):

    25.0408  25.2182  25.5897  25.7024  26.0414  26.4689  27.2100  30.2577
    32.7817  32.7856  35.1722  35.7493  35.9498  36.0197  37.9517  38.6802
    39.5638  40.1825  40.5050  41.9347  42.1157  44.9242  48.7898  52.9188
    53.2192  57.9983

          k = 0.0000 0.1667 0.3333 (  1215 PWs)   bands (ev):

    25.9628  26.0195  26.3556  26.5671  26.5767  27.5767  28.2808  29.5443
    32.8905  33.1710  33.6074  34.1706  34.4975  35.3731  37.4603  38.2271
    38.6489  38.9431  39.2291  41.9237  41.9706  43.2377  50.4427  52.3576
    55.1010  57.7465

          k = 0.0000 0.1667 0.4167 (  1224 PWs)   bands (ev):

    26.8411  26.9517  27.0867  27.2132  27.3318  28.7486  28.9472  29.3073
    31.4709  32.3059  32.5615  33.2196  34.6821  35.7868  36.4883  36.9862
    37.3999  38.0086  39.5377  41.8021  41.9122  41.9175  51.4782  52.1154
    56.7765  58.0735

          k = 0.0000 0.1667-0.5000 (  1218 PWs)   bands (ev):

    27.4015  27.4016  27.4807  27.4809  27.9532  27.9534  30.2351  30.2352
    30.5408  30.5409  32.4856  32.4856  35.9608  35.9609  36.2762  36.2764
    36.7762  36.7763  40.5860  40.5861  41.9059  41.9062  51.9329  51.9330
    58.1264  58.1269

          k = 0.0000 0.2500 0.2500 (  1219 PWs)   bands (ev):

    25.5511  25.7343  26.3411  26.3412  26.8124  26.8124  28.1465  30.0968
    32.8100  33.0586  33.9306  33.9308  35.0299  35.4389  37.9419  38.4892
    39.2610  39.2610  40.4866  40.4866  41.3325  46.9466  46.9467  51.5260
    55.0447  59.2228

          k = 0.0000 0.2500 0.3333 (  1228 PWs)   bands (ev):

    26.1529  26.6020  27.1375  27.2432  27.2745  27.8542  29.1255  29.6804
    32.1304  32.6262  32.7194  33.6748  33.7139  35.1515  37.0144  38.1283
    38.4838  38.9167  39.4661  40.4688  40.8454  45.1749  48.5989  50.7413
    56.8956  58.5421

          k = 0.0000 0.2500 0.4167 (  1228 PWs)   bands (ev):

    26.9817  27.5015  27.8337  27.8898  27.9793  29.0982  29.1285  29.8789
    30.7410  31.7497  32.0111  32.1358  34.7025  35.4734  36.2740  37.0016
    37.3719  37.4144  40.4639  40.5985  40.6881  43.5517  49.6791  50.4000
    58.4439  58.5889

          k = 0.0000 0.2500-0.5000 (  1234 PWs)   bands (ev):

    27.8337  27.8338  28.0970  28.0970  28.4577  28.4579  30.1830  30.1830
    30.5815  30.5816  31.4691  31.4691  35.9442  35.9443  36.2439  36.2441
    36.3222  36.3224  40.4938  40.4940  42.0602  42.0603  50.1798  50.1798
    58.8888  58.8889

          k = 0.0000 0.3333 0.3333 (  1222 PWs)   bands (ev):

    26.5870  27.3165  28.1008  28.1009  28.2178  28.2179  29.6646  29.9764
    31.1445  31.1446  32.3891  32.8761  34.1169  34.7165  36.3500  37.5203
    37.5203  38.9034  38.9035  39.9423  40.7224  46.8846  46.8848  49.7649
    58.7671  59.8192

          k = 0.0000 0.3333 0.4167 (  1226 PWs)   bands (ev):

    27.2704  28.0845  28.6379  28.8095  28.9182  29.3446  29.4407  30.1007
    30.4417  30.5344  31.7668  31.8023  34.7994  34.8993  35.7712  36.5266
    36.5537  37.3840  38.9346  39.3650  42.1811  45.2790  48.1496  49.2726
    58.8702  59.2078

          k = 0.0000 0.3333-0.5000 (  1232 PWs)   bands (ev):

    28.1587  28.1587  28.8011  28.8012  29.0685  29.0686  30.4164  30.4165
    30.5770  30.5771  30.8271  30.8272  35.5308  35.5310  35.8092  35.8094
    36.0181  36.0182  39.0618  39.0619  43.7167  43.7167  48.8776  48.8777
    58.8124  58.8126

          k = 0.0000 0.4167 0.4167 (  1222 PWs)   bands (ev):

    27.7444  28.5731  29.3200  29.3202  29.5502  29.5503  29.6542  30.0367
    30.0368  31.0309  31.2431  31.5763  34.3670  35.1733  35.4061  35.6585
    35.6586  37.4986  37.4987  38.4119  43.7672  46.7501  46.7503  48.5491
    58.9060  59.4477

          k = 0.0000 0.4167-0.5000 (  1218 PWs)   bands (ev):

    28.4258  28.4258  28.9742  28.9743  29.6787  29.6788  30.4615  30.4615
    30.8948  30.8949  30.9273  30.9275  34.7533  34.7534  35.0611  35.0613
    36.2872  36.2873  37.8070  37.8071  45.3086  45.3087  47.8211  47.8212
    58.9628  58.9631

          k = 0.0000-0.5000-0.5000 (  1228 PWs)   bands (ev):

    28.7082  28.7083  28.7084  28.7084  30.1673  30.1673  30.1674  30.1675
    31.2044  31.2045  31.2045  31.2046  34.5048  34.5052  34.5052  34.5052
    36.8650  36.8650  36.8651  36.8652  46.6878  46.6879  46.6881  46.6881
    59.3874  59.3876

          k = 0.0833 0.0833 0.0833 (  1240 PWs)   bands (ev):

    23.3551  24.2297  24.2297  24.2299  25.1082  25.1082  25.1082  31.3205
    31.9034  31.9034  37.1705  37.1705  40.2010  40.2012  40.2012  41.0525
    41.0525  41.0527  43.0331  43.0331  43.0334  46.9554  46.9555  46.9555
    57.1052  57.1053

          k = 0.0833 0.0833 0.1667 (  1240 PWs)   bands (ev):

    23.8935  24.6117  24.6150  24.6151  25.3635  25.6837  25.6837  30.9504
    32.1908  32.2330  36.5891  37.4234  38.2667  38.2667  39.0478  40.2773
    40.2775  40.2864  42.6367  42.8931  42.8933  45.2972  48.9108  48.9108
    56.0449  56.0449

          k = 0.0833 0.0833 0.2500 (  1233 PWs)   bands (ev):

    24.7280  25.1999  25.2578  25.2579  25.7910  26.5680  26.5680  30.2959
    32.7206  32.7740  35.8205  36.1233  36.1233  37.4824  37.8334  39.1461
    39.1462  39.1979  42.0545  42.7627  42.7629  43.2107  50.9346  50.9346
    55.3199  55.3199

          k = 0.0833 0.0833 0.3333 (  1224 PWs)   bands (ev):

    25.7320  25.8996  26.0950  26.0951  26.3953  27.6809  27.6810  29.4975
    33.1465  33.5138  34.0477  34.0477  35.3663  35.7870  37.8035  37.8036
    37.9607  38.3829  41.0671  41.3478  42.6915  42.6918  52.7087  52.7087
    54.9500  54.9500

          k = 0.0833 0.0833 0.4167 (  1222 PWs)   bands (ev):

    26.5705  26.6312  26.9279  26.9281  27.1269  28.6594  28.9328  28.9328
    32.1595  32.1595  33.0544  34.2425  34.4342  35.9672  36.6369  36.6371
    36.7032  39.0466  39.0661  40.5748  42.6600  42.6603  53.8705  53.8705
    54.9452  54.9453

          k = 0.0833 0.0833-0.5000 (  1214 PWs)   bands (ev):

    26.9588  26.9589  27.3165  27.3166  27.8682  27.8684  30.0003  30.0003
    30.8533  30.8534  33.2335  33.2336  35.5095  35.5096  36.1495  36.1496
    37.3239  37.3239  39.7911  39.7913  42.6513  42.6515  54.1590  54.1591
    55.1283  55.1284

          k = 0.0833 0.1667 0.1667 (  1244 PWs)   bands (ev):

    24.3689  24.8380  24.9817  24.9818  25.9414  25.9414  26.3591  30.8280
    32.3143  32.4401  36.4844  37.1618  37.1619  37.2850  37.3727  39.3539
    39.6697  39.6698  42.5198  42.5199  42.5774  47.1817  47.1818  50.4340
    54.4892  57.3890

          k = 0.0833 0.1667 0.2500 (  1233 PWs)   bands (ev):

    25.1064  25.3252  25.5343  25.6153  26.3838  26.8115  27.2907  30.4004
    32.7083  32.7726  35.1066  35.6837  35.7730  35.9694  37.8303  38.4139
    38.6470  38.9117  41.8962  42.1893  42.2138  45.1075  49.1303  52.1439
    53.4726  56.4931

          k = 0.0833 0.1667 0.3333 (  1226 PWs)   bands (ev):

    25.9980  26.0659  26.1700  26.4591  27.0227  27.8698  28.3289  29.7758
    32.8132  33.2037  33.4021  33.9036  34.3274  35.7771  37.3665  37.4527
    37.8590  38.5625  40.8821  41.9380  41.9410  43.1737  50.7606  52.7059
    53.9512  55.9767

          k = 0.0833 0.1667 0.4167 (  1222 PWs)   bands (ev):

    26.7616  26.8057  26.9518  27.3132  27.7894  28.9422  29.1108  29.2273
    31.6785  32.2565  32.4539  33.0603  34.2083  36.2615  36.4441  36.4869
    36.7812  39.4243  39.4610  41.6685  41.7984  41.8035  51.8193  52.4871
    55.1088  55.8111

          k = 0.0833 0.1667-0.5000 (  1222 PWs)   bands (ev):

    27.0978  27.0980  27.5906  27.5907  28.4899  28.4901  29.5813  29.5813
    31.1911  31.1911  32.3482  32.3482  35.1656  35.1656  36.1718  36.1720
    37.8299  37.8299  40.4872  40.4873  41.7594  41.7596  52.2937  52.2938
    55.6863  55.6865

          k = 0.0833 0.2500 0.2500 (  1224 PWs)   bands (ev):

    25.6418  25.6917  26.1421  26.1422  27.2406  27.2406  28.2088  30.3680
    32.7721  32.9110  33.9063  33.9065  34.8036  35.7766  37.5321  38.1555
    38.1555  38.3542  41.4232  41.4232  41.6221  47.0666  47.0667  51.7877
    53.9981  58.0774

          k = 0.0833 0.2500 0.3333 (  1222 PWs)   bands (ev):

    26.2288  26.4016  26.7163  26.9884  27.8881  28.2138  29.1223  30.1089
    32.2498  32.5939  32.7296  33.3587  33.5720  35.7049  36.6843  37.0744
    37.4390  39.3377  40.3703  40.9913  41.1071  45.1250  48.7122  51.0138
    55.4092  57.2775

          k = 0.0833 0.2500 0.4167 (  1221 PWs)   bands (ev):

    27.0502  27.0672  27.1918  27.9111  28.6954  28.9030  29.6464  29.7509
    31.2414  31.7808  31.9836  32.3510  34.0216  35.9310  36.0160  36.3665
    36.5778  39.0238  40.5568  40.7300  40.7753  43.4242  49.8286  50.6454
    56.3728  56.8888

          k = 0.0833 0.2500-0.5000 (  1224 PWs)   bands (ev):

    27.3811  27.3812  27.9309  27.9310  29.3301  29.3301  29.3681  29.3683
    31.4647  31.4647  31.4889  31.4889  34.8867  34.8867  35.9485  35.9487
    37.5908  37.5908  40.6562  40.6564  41.9211  41.9212  50.3820  50.3821
    56.7428  56.7430

          k = 0.0833 0.3333 0.3333 (  1226 PWs)   bands (ev):

    26.6305  26.8859  27.5048  27.5049  28.8002  28.8003  29.8340  30.3197
    31.3840  31.3841  32.4043  33.0132  33.4398  35.5699  35.9342  36.5672
    36.5672  39.8690  39.8690  40.3435  40.5849  46.8416  46.8417  49.9550
    56.6423  58.5913

          k = 0.0833 0.3333 0.4167 (  1222 PWs)   bands (ev):

    27.2733  27.3691  27.7847  28.4501  28.9680  29.6773  30.0378  30.3506
    30.7594  31.0508  31.8096  32.4042  33.8050  35.3698  35.5191  35.9160
    36.0770  38.5469  39.5480  39.7720  42.0386  45.1584  48.1358  49.3868
    57.2912  57.8823

          k = 0.0833 0.3333-0.5000 (  1230 PWs)   bands (ev):

    27.7229  27.7229  28.1147  28.1147  29.4443  29.4444  30.3424  30.3425
    30.8571  30.8572  31.7707  31.7707  34.5403  34.5403  35.3678  35.3680
    37.1875  37.1875  39.5021  39.5023  43.5738  43.5738  48.9209  48.9210
    57.5352  57.5354

          k = 0.0833 0.4167 0.4167 (  1228 PWs)   bands (ev):

    27.6463  27.6746  28.2868  28.2868  29.6895  29.6896  30.1277  30.5678
    31.1481  31.1481  31.8268  32.4043  33.6713  34.7355  34.9973  34.9973
    36.2540  38.2733  38.2733  38.9111  43.6208  46.6437  46.6439  48.5563
    57.7456  58.7157

          k = 0.0833 0.4167-0.5000 (  1228 PWs)   bands (ev):

    27.9809  27.9809  28.1193  28.1193  29.8195  29.8196  30.3338  30.3338
    31.5037  31.5038  32.0431  32.0432  34.1220  34.1221  34.5815  34.5817
    37.0726  37.0727  38.3770  38.3771  45.1681  45.1681  47.7540  47.7541
    58.1312  58.1315

          k = 0.0833-0.5000-0.5000 (  1228 PWs)   bands (ev):

    28.0862  28.0862  28.0862  28.0862  30.1220  30.1221  30.1221  30.1222
    32.1147  32.1147  32.1147  32.1148  33.9999  34.0001  34.0001  34.0002
    37.4851  37.4851  37.4851  37.4852  46.5658  46.5659  46.5660  46.5660
    58.6900  58.6902

          k = 0.1667 0.1667 0.1667 (  1219 PWs)   bands (ev):

    24.7364  25.1675  25.1675  25.1677  26.6304  26.6304  26.6305  30.9073
    32.4477  32.4477  36.3344  36.3345  36.3345  36.9311  36.9311  38.4589
    38.4589  38.4591  42.7023  42.7023  42.7025  48.4265  48.4266  48.4266
    55.8468  55.8468

          k = 0.1667 0.1667 0.2500 (  1226 PWs)   bands (ev):

    25.3036  25.6248  25.6249  25.6497  27.1026  27.5416  27.5416  30.7535
    32.6274  32.7031  34.8443  34.8444  35.0599  36.4540  37.3868  37.6170
    37.6922  37.6923  42.3651  42.3652  42.5539  46.0001  49.9874  49.9874
    54.7007  54.7008

          k = 0.1667 0.1667 0.3333 (  1219 PWs)   bands (ev):

    25.9797  26.1808  26.3471  26.3472  27.7898  28.4814  28.4814  30.3819
    32.6246  33.1075  33.2809  33.2810  33.7200  36.3029  36.4945  36.9601
    36.9603  38.4765  41.8891  41.8893  42.0776  43.5242  51.4176  51.4177
    53.9991  53.9992

          k = 0.1667 0.1667 0.4167 (  1224 PWs)   bands (ev):

    26.5788  26.6310  27.2525  27.2526  28.6360  29.0147  29.0147  29.9586
    32.1788  32.1878  32.1879  32.5697  33.6755  35.2936  36.2000  36.2001
    37.4634  39.4372  41.1864  41.3333  41.5438  41.5440  52.4181  52.4182
    53.6428  53.6429

          k = 0.1667 0.1667-0.5000 (  1218 PWs)   bands (ev):

    26.8250  26.8252  27.9007  27.9008  28.8616  28.8617  29.4326  29.4328
    31.9169  31.9170  31.9675  31.9675  34.4084  34.4084  35.8249  35.8251
    39.1164  39.1164  40.4195  40.4196  41.4255  41.4257  52.7899  52.7900
    53.5233  53.5234

          k = 0.1667 0.2500 0.2500 (  1225 PWs)   bands (ev):

    25.6258  25.8863  26.0437  26.0438  27.9895  27.9895  28.4059  31.0720
    32.6555  32.6613  33.7927  33.7928  34.2191  36.5934  36.6348  36.7161
    36.7161  38.0037  42.1361  42.2922  42.2923  47.4997  47.4998  50.8671
    53.6182  56.4091

          k = 0.1667 0.2500 0.3333 (  1227 PWs)   bands (ev):

    26.0379  26.4153  26.4568  26.7045  28.6691  28.7773  29.1350  31.1210
    32.4910  32.6007  32.7580  32.8759  33.3434  35.6834  35.9166  36.2036
    36.7581  39.0092  41.6360  41.7131  41.7816  45.1007  48.9738  51.1306
    53.6323  55.4869

          k = 0.1667 0.2500 0.4167 (  1220 PWs)   bands (ev):

    26.4520  26.7200  27.1816  27.5761  28.8527  29.2305  29.5662  31.0021
    31.9013  31.9298  32.2163  32.8053  33.2948  34.7251  35.3747  35.6411
    37.6869  40.2085  40.7043  41.1697  41.2062  43.0775  50.0787  50.9894
    54.1314  54.9011

          k = 0.1667 0.2500-0.5000 (  1226 PWs)   bands (ev):

    26.7211  26.7212  28.0840  28.0840  28.5473  28.5474  30.5248  30.5250
    31.5177  31.5178  32.5585  32.5585  33.9158  33.9159  35.2229  35.2231
    39.1723  39.1723  40.9987  40.9989  41.5231  41.5232  50.7038  50.7039
    54.5249  54.5250

          k = 0.1667 0.3333 0.3333 (  1231 PWs)   bands (ev):

    26.2039  26.6973  26.9529  26.9529  29.3001  29.3002  29.5687  31.5794
    32.0791  32.0792  32.5092  32.7335  33.3512  35.0604  35.2746  35.2746
    36.7932  40.2041  41.1435  41.1469  41.1469  46.7220  46.7221  50.1672
    54.4420  57.0462

          k = 0.1667 0.3333 0.4167 (  1223 PWs)   bands (ev):

    26.4605  26.9528  27.1644  27.5233  29.1774  29.5042  30.0727  31.5006
    31.8327  32.2227  32.3692  33.0112  33.3710  34.3592  34.5274  34.8675
    37.4336  40.0673  40.5907  40.6074  41.6309  44.8054  48.0180  49.4914
    55.1512  56.2514

          k = 0.1667 0.3333-0.5000 (  1230 PWs)   bands (ev):

    26.7459  26.7459  27.6408  27.6408  29.1105  29.1106  30.9287  30.9288
    31.8823  31.8824  33.0792  33.0792  33.5807  33.5808  34.4908  34.4909
    38.6830  38.6830  40.3692  40.3693  43.1540  43.1540  48.8924  48.8925
    55.6777  55.6779

          k = 0.1667 0.4167 0.4167 (  1222 PWs)   bands (ev):

    26.5987  27.1892  27.1892  27.2199  29.6891  29.8950  29.8950  31.2196
    32.5976  32.5977  32.8083  33.0211  33.7377  33.8768  34.0829  34.0829
    37.5572  39.5731  39.5731  39.9270  43.1901  46.2958  46.2960  48.4271
    55.9674  57.3014

          k = 0.1667 0.4167-0.5000 (  1218 PWs)   bands (ev):

    26.8514  26.8515  27.2742  27.2742  29.7548  29.7549  30.6510  30.6511
    32.7847  32.7848  33.3411  33.3412  33.4669  33.4671  33.9096  33.9097
    38.3916  38.3917  39.4879  39.4880  44.7397  44.7397  47.4709  47.4709
    56.6405  56.6407

          k = 0.1667-0.5000-0.5000 (  1232 PWs)   bands (ev):

    27.0203  27.0203  27.0204  27.0204  30.2918  30.2920  30.2920  30.2920
    33.1378  33.1380  33.1380  33.1380  33.7168  33.7168  33.7168  33.7169
    38.6712  38.6712  38.6712  38.6714  46.1645  46.1646  46.1647  46.1647
    57.2986  57.2987

          k = 0.2500 0.2500 0.2500 (  1226 PWs)   bands (ev):

    25.6359  26.1929  26.1929  26.1929  28.7718  28.7718  28.7719  31.9045
    32.5006  32.5006  33.4894  33.4895  33.4895  35.6259  35.6259  35.6260
    37.6508  37.6508  42.4500  42.4500  42.4502  48.2785  48.2785  48.2785
    55.1001  55.1002

          k = 0.2500 0.2500 0.3333 (  1228 PWs)   bands (ev):

    25.7681  26.4156  26.5785  26.5786  29.2586  29.2587  29.3564  32.1337
    32.5274  32.5521  32.8350  33.1490  33.1491  34.6722  35.0168  35.0169
    37.7814  38.8156  42.0413  42.0414  42.3760  45.5738  49.1427  49.1427
    54.3080  54.3081

          k = 0.2500 0.2500 0.4167 (  1221 PWs)   bands (ev):

    26.0036  26.4382  27.1212  27.1213  29.1199  29.1200  30.1577  31.7636
    32.4172  32.4600  32.7617  33.2753  33.2754  33.8516  34.6103  34.6105
    38.8545  39.9843  41.5001  41.5002  41.8843  43.0041  49.7699  49.7700
    53.9469  53.9470

          k = 0.2500 0.2500-0.5000 (  1218 PWs)   bands (ev):

    26.2660  26.2660  27.4806  27.4807  28.8236  28.8237  31.0494  31.0495
    32.3023  32.3024  33.2067  33.2068  33.5681  33.5681  34.3369  34.3370
    40.7031  40.7031  41.0477  41.0478  41.2567  41.2568  49.9928  49.9929
    53.8509  53.8510

          k = 0.2500 0.3333 0.3333 (  1221 PWs)   bands (ev):

    25.6776  26.5486  26.5486  26.6151  29.5098  29.6382  29.6382  32.1188
    32.2397  33.0887  33.0887  33.4912  33.7904  34.1273  34.1740  34.1740
    38.1055  39.7016  41.8619  42.0437  42.0438  46.6075  46.6076  49.0304
    54.0037  55.7700

          k = 0.2500 0.3333 0.4167 (  1221 PWs)   bands (ev):

    25.7711  26.3128  26.7477  26.7506  29.4937  29.5197  30.2777  31.6637
    32.3406  33.0400  33.3771  33.6241  33.6291  33.8709  34.2240  34.3457
    38.8489  41.0366  41.4055  41.4505  41.4621  44.3095  47.6152  48.7504
    54.2270  55.0911

          k = 0.2500 0.3333-0.5000 (  1216 PWs)   bands (ev):

    26.0100  26.0101  26.8399  26.8399  29.4166  29.4167  31.0120  31.0121
    32.6660  32.6660  33.4603  33.4605  33.7145  33.7146  34.4878  34.4879
    40.2217  40.2218  41.1721  41.1723  42.4979  42.4979  48.3233  48.3235
    54.6084  54.6085

          k = 0.2500 0.4167 0.4167 (  1218 PWs)   bands (ev):

    25.7567  26.2985  26.2985  26.5037  29.8331  30.1875  30.1876  31.4508
    32.1302  32.8381  32.8382  33.0189  34.5724  34.5724  34.8225  35.0535
    38.9131  40.8354  40.8354  40.9590  42.5144  45.6611  45.6613  47.7215
    54.9013  56.0910

          k = 0.2500 0.4167-0.5000 (  1224 PWs)   bands (ev):

    25.9440  25.9440  26.3616  26.3616  30.0533  30.0534  30.8938  30.8939
    32.3511  32.3512  32.7653  32.7655  34.9330  34.9331  35.1978  35.1978
    39.7628  39.7628  40.6173  40.6174  44.0231  44.0232  46.7687  46.7687
    55.5405  55.5409

          k = 0.2500-0.5000-0.5000 (  1232 PWs)   bands (ev):

    26.0619  26.0619  26.0619  26.0619  30.5924  30.5925  30.5926  30.5926
    32.3576  32.3578  32.3578  32.3578  35.4766  35.4766  35.4766  35.4766
    39.9190  39.9191  39.9191  39.9192  45.4105  45.4107  45.4107  45.4107
    56.0818  56.0819

          k = 0.3333 0.3333 0.3333 (  1229 PWs)   bands (ev):

    25.3888  26.2953  26.2953  26.2954  29.8361  29.8361  29.8361  31.9808
    31.9808  33.2958  33.2958  33.2960  34.2873  34.2874  34.2874  34.8913
    39.4156  39.4156  42.2375  42.2375  42.2377  46.6799  46.6799  46.6800
    55.0223  55.0225

          k = 0.3333 0.3333 0.4167 (  1229 PWs)   bands (ev):

    25.3466  25.8772  26.1675  26.1675  29.9131  29.9131  30.4255  31.6201
    31.9633  32.6363  32.8383  32.8385  34.8221  35.2550  35.2551  35.5531
    40.0705  40.6145  41.8787  41.8788  42.1418  44.1668  46.9094  46.9095
    54.7259  54.7261

          k = 0.3333 0.3333-0.5000 (  1212 PWs)   bands (ev):

    25.5275  25.5275  26.1307  26.1307  29.9249  29.9250  31.0732  31.0733
    32.1852  32.1853  32.6925  32.6927  35.3332  35.3334  35.6726  35.6726
    41.5691  41.5691  41.6238  41.6240  41.8476  41.8477  47.0276  47.0277
    54.6641  54.6645

          k = 0.3333 0.4167 0.4167 (  1221 PWs)   bands (ev):

    25.1946  25.6463  25.6464  25.7910  30.2646  30.5053  30.5053  31.5430
    31.6796  32.2281  32.2281  32.3055  36.0880  36.0881  36.2999  36.7342
    40.1897  41.7151  41.7424  41.7945  41.7945  44.8249  44.8249  46.1945
    54.9203  55.4449

          k = 0.3333 0.4167-0.5000 (  1226 PWs)   bands (ev):

    25.3035  25.3035  25.6178  25.6178  30.4721  30.4722  31.0937  31.0938
    31.8299  31.8299  32.0958  32.0960  36.7015  36.7015  36.7395  36.7396
    41.0235  41.0235  41.5098  41.5100  43.0809  43.0809  45.5565  45.5565
    55.2208  55.2210

          k = 0.3333-0.5000-0.5000 (  1220 PWs)   bands (ev):

    25.3363  25.3363  25.3364  25.3364  30.9216  30.9218  30.9218  30.9218
    31.7659  31.7661  31.7661  31.7661  37.2567  37.2567  37.2567  37.2567
    41.0122  41.0123  41.0123  41.0124  44.2901  44.2902  44.2903  44.2903
    55.4339  55.4341

          k = 0.4167 0.4167 0.4167 (  1235 PWs)   bands (ev):

    24.9257  25.2492  25.2492  25.2492  30.7693  30.7693  30.7694  31.4717
    31.4717  31.7935  31.7935  31.7936  37.4398  37.4398  37.4398  38.2889
    41.2436  41.2436  42.0940  42.0940  42.0942  44.2131  44.2131  44.2131
    54.9089  55.3651

          k = 0.4167 0.4167-0.5000 (  1232 PWs)   bands (ev):

    24.9489  24.9489  25.1161  25.1161  30.8832  30.8833  31.2040  31.2041
    31.5111  31.5111  31.6293  31.6294  38.0646  38.0646  38.3482  38.3483
    41.9191  41.9192  41.9344  41.9345  42.2633  42.2634  44.0988  44.0988
    55.1535  55.4965

          k = 0.4167-0.5000-0.5000 (  1228 PWs)   bands (ev):

    24.8878  24.8879  24.8879  24.8879  31.1787  31.1788  31.1789  31.1789
    31.4001  31.4003  31.4003  31.4003  38.9327  38.9327  38.9327  38.9328
    41.7702  41.7704  41.7704  41.7705  42.9491  42.9492  42.9492  42.9492
    55.4267  55.4267

          k =-0.5000-0.5000-0.5000 (  1208 PWs)   bands (ev):

    24.7365  24.7366  24.7366  24.7366  31.2766  31.2766  31.2767  31.2767
    31.2767  31.2768  31.2768  31.2768  39.9362  39.9362  39.9362  39.9363
    42.0434  42.0434  42.0435  42.0435  42.0435  42.0436  42.0436  42.0436
    55.8534  55.8536

     the Fermi energy is    46.2630 ev

!    total energy              =   -3095.39154906 Ry

     total all-electron energy =   -152090.775913 Ry
     estimated scf accuracy    <       0.00000005 Ry
     smearing contrib. (-TS)   =      -0.17233708 Ry
     internal energy E=F+TS    =   -3095.21921198 Ry

     The total energy is F=E-TS. E is the sum of the following terms:
     one-electron contribution =     177.91194083 Ry
     hartree contribution      =      10.48875856 Ry
     xc contribution           =    -135.14627580 Ry
     ewald contribution        =    -376.16861884 Ry
     one-center paw contrib.   =   -2772.30501672 Ry

     convergence has been achieved in   8 iterations

     Forces acting on atoms (cartesian axes, Ry/au):

     atom    1 type  1   force =     0.00000000    0.00000000    0.00000000
     atom    2 type  1   force =     0.00000000    0.00000000    0.00000000
     atom    3 type  1   force =     0.00000000    0.00000000    0.00000000
     atom    4 type  1   force =     0.00000000    0.00000000    0.00000000

     Total force =     0.000000     Total SCF correction =     0.000000

     Writing all to output data dir ./pwscf.save/
 
     init_run     :      0.45s CPU      0.47s WALL (       1 calls)
     electrons    :     13.41s CPU     13.82s WALL (       1 calls)
     forces       :      0.07s CPU      0.07s WALL (       1 calls)

     Called by init_run:
     wfcinit      :      0.36s CPU      0.37s WALL (       1 calls)
     potinit      :      0.06s CPU      0.06s WALL (       1 calls)
     hinit0       :      0.03s CPU      0.03s WALL (       1 calls)

     Called by electrons:
     c_bands      :     12.12s CPU     12.45s WALL (       9 calls)
     sum_band     :      0.86s CPU      0.89s WALL (       9 calls)
     v_of_rho     :      0.01s CPU      0.01s WALL (       9 calls)
     newd         :      0.01s CPU      0.02s WALL (       9 calls)
     PAW_pot      :      0.45s CPU      0.49s WALL (       9 calls)
     mix_rho      :      0.00s CPU      0.00s WALL (       9 calls)

     Called by c_bands:
     init_us_2    :      0.04s CPU      0.04s WALL (    1680 calls)
     init_us_2:cp :      0.04s CPU      0.04s WALL (    1680 calls)
     cegterg      :     11.83s CPU     12.15s WALL (     756 calls)

     Called by *egterg:
     cdiaghg      :      4.80s CPU      4.89s WALL (    4739 calls)
     h_psi        :      5.06s CPU      5.24s WALL (    4907 calls)
     s_psi        :      0.17s CPU      0.18s WALL (    4907 calls)
     g_psi        :      0.02s CPU      0.02s WALL (    4067 calls)

     Called by h_psi:
     h_psi:calbec :      0.41s CPU      0.42s WALL (    4907 calls)
     vloc_psi     :      4.45s CPU      4.61s WALL (    4907 calls)
     add_vuspsi   :      0.18s CPU      0.19s WALL (    4907 calls)

     General routines
     calbec       :      0.52s CPU      0.54s WALL (    5999 calls)
     fft          :      0.01s CPU      0.01s WALL (     111 calls)
     ffts         :      0.00s CPU      0.00s WALL (       9 calls)
     fftw         :      4.81s CPU      4.99s WALL (  170260 calls)
 
     Parallel routines
 
     PWSCF        :     14.22s CPU     15.67s WALL

 
   This run was terminated on:  12:36: 7   5Apr2024            

=------------------------------------------------------------------------------=
   JOB DONE.
=------------------------------------------------------------------------------=
