MPI startup(): Warning: I_MPI_PMI_LIBRARY will be ignored since the hydra process manager was found
MPI startup(): Warning: I_MPI_PMI_LIBRARY will be ignored since the hydra process manager was found
MPI startup(): Warning: I_MPI_PMI_LIBRARY will be ignored since the hydra process manager was found
MPI startup(): Warning: I_MPI_PMI_LIBRARY will be ignored since the hydra process manager was found
MPI startup(): Warning: I_MPI_PMI_LIBRARY will be ignored since the hydra process manager was found
MPI startup(): Warning: I_MPI_PMI_LIBRARY will be ignored since the hydra process manager was found
MPI startup(): Warning: I_MPI_PMI_LIBRARY will be ignored since the hydra process manager was found
MPI startup(): Warning: I_MPI_PMI_LIBRARY will be ignored since the hydra process manager was found
MPI startup(): Warning: I_MPI_PMI_LIBRARY will be ignored since the hydra process manager was found
MPI startup(): Warning: I_MPI_PMI_LIBRARY will be ignored since the hydra process manager was found

     Program PWSCF v.7.0 starts on  5Apr2024 at 12:35:51 

     This program is part of the open-source Quantum ESPRESSO suite
     for quantum simulation of materials; please cite
         "P. Giannozzi et al., J. Phys.:Condens. Matter 21 395502 (2009);
         "P. Giannozzi et al., J. Phys.:Condens. Matter 29 465901 (2017);
         "P. Giannozzi et al., J. Chem. Phys. 152 154105 (2020);
          URL http://www.quantum-espresso.org", 
     in publications or presentations arising from this work. More details at
     http://www.quantum-espresso.org/quote

     Parallel version (MPI), running on    10 processors

     MPI processes distributed on     1 nodes
     R & G space division:  proc/nbgrp/npool/nimage =      10
     224725 MiB available memory on the printing compute node when the environment starts
 
     Reading input from VolumeFCC_5.8.in
Warning: card &CELL ignored
Warning: card / ignored

     Current dimensions of program PWSCF are:
     Max number of different atomic species (ntypx) = 10
     Max number of k-points (npk) =  40000
     Max angular momentum in pseudopotentials (lmaxx) =  4
     file Au.pbe-n-kjpaw_psl.1.0.0.UPF: wavefunction(s)  6S 5D renormalized
     Found identity + ( -0.5000 -0.5000  0.0000) symmetry
     This is a supercell, fractional translations are disabled
     Message from routine setup:
     using ibrav=0 with symmetry is DISCOURAGED, use correct ibrav instead

     Subspace diagonalization in iterative solution of the eigenvalue problem:
     one sub-group per band group will be used
     scalapack distributed-memory algorithm (size of sub-group:  3*  3 procs)

 
     Parallelization info
     --------------------
     sticks:   dense  smooth     PW     G-vecs:    dense   smooth      PW
     Min          54      54     17                  931      931     173
     Max          55      55     18                  932      932     176
     Sum         545     545    177                 9315     9315    1743
 
     Using Slab Decomposition
 


     bravais-lattice index     =            0
     lattice parameter (alat)  =       5.7992  a.u.
     unit-cell volume          =     195.0272 (a.u.)^3
     number of atoms/cell      =            4
     number of atomic types    =            1
     number of electrons       =        44.00
     number of Kohn-Sham states=           26
     kinetic-energy cutoff     =      50.0000  Ry
     charge density cutoff     =     200.0000  Ry
     scf convergence threshold =      1.0E-06
     mixing beta               =       0.7000
     number of iterations used =            8  plain     mixing
     Exchange-correlation= SLA  PW   PBX  PBC
                           (   1   4   3   4   0   0   0)

     celldm(1)=   5.799160  celldm(2)=   0.000000  celldm(3)=   0.000000
     celldm(4)=   0.000000  celldm(5)=   0.000000  celldm(6)=   0.000000

     crystal axes: (cart. coord. in units of alat)
               a(1) = (   1.000000   0.000000   0.000000 )  
               a(2) = (   0.000000   1.000000   0.000000 )  
               a(3) = (   0.000000   0.000000   1.000000 )  

     reciprocal axes: (cart. coord. in units 2 pi/alat)
               b(1) = (  1.000000  0.000000  0.000000 )  
               b(2) = (  0.000000  1.000000  0.000000 )  
               b(3) = (  0.000000  0.000000  1.000000 )  


     PseudoPot. # 1 for Au read from file:
     ./Au.pbe-n-kjpaw_psl.1.0.0.UPF
     MD5 check sum: 4db85c736373c707a97ce4c36c2a9d23
     Pseudo is Projector augmented-wave + core cor, Zval = 11.0
     Generated using &quot;atomic&quot; code by A. Dal Corso  v.6.3
     Shape of augmentation charge: PSQ
     Using radial grid of 1279 points,  6 beta functions with: 
                l(1) =   0
                l(2) =   0
                l(3) =   1
                l(4) =   1
                l(5) =   2
                l(6) =   2
     Q(r) pseudized with 0 coefficients 


     atomic species   valence    mass     pseudopotential
        Au            11.00   196.96657     Au( 1.00)

     48 Sym. Ops., with inversion, found



   Cartesian axes

     site n.     atom                  positions (alat units)
         1           Au  tau(   1) = (   0.0000000   0.0000000   0.0000000  )
         2           Au  tau(   2) = (   0.5000000   0.5000000   0.0000000  )
         3           Au  tau(   3) = (   0.5000000   0.0000000   0.5000000  )
         4           Au  tau(   4) = (   0.0000000   0.5000000   0.5000000  )

     number of k points=    84  Gaussian smearing, width (Ry)=  0.2000
                       cart. coord. in units 2pi/alat
        k(    1) = (   0.0000000   0.0000000   0.0000000), wk =   0.0011574
        k(    2) = (   0.0000000   0.0000000   0.0833333), wk =   0.0069444
        k(    3) = (   0.0000000   0.0000000   0.1666667), wk =   0.0069444
        k(    4) = (   0.0000000   0.0000000   0.2500000), wk =   0.0069444
        k(    5) = (   0.0000000   0.0000000   0.3333333), wk =   0.0069444
        k(    6) = (   0.0000000   0.0000000   0.4166667), wk =   0.0069444
        k(    7) = (   0.0000000   0.0000000  -0.5000000), wk =   0.0034722
        k(    8) = (   0.0000000   0.0833333   0.0833333), wk =   0.0138889
        k(    9) = (   0.0000000   0.0833333   0.1666667), wk =   0.0277778
        k(   10) = (   0.0000000   0.0833333   0.2500000), wk =   0.0277778
        k(   11) = (   0.0000000   0.0833333   0.3333333), wk =   0.0277778
        k(   12) = (   0.0000000   0.0833333   0.4166667), wk =   0.0277778
        k(   13) = (   0.0000000   0.0833333  -0.5000000), wk =   0.0138889
        k(   14) = (   0.0000000   0.1666667   0.1666667), wk =   0.0138889
        k(   15) = (   0.0000000   0.1666667   0.2500000), wk =   0.0277778
        k(   16) = (   0.0000000   0.1666667   0.3333333), wk =   0.0277778
        k(   17) = (   0.0000000   0.1666667   0.4166667), wk =   0.0277778
        k(   18) = (   0.0000000   0.1666667  -0.5000000), wk =   0.0138889
        k(   19) = (   0.0000000   0.2500000   0.2500000), wk =   0.0138889
        k(   20) = (   0.0000000   0.2500000   0.3333333), wk =   0.0277778
        k(   21) = (   0.0000000   0.2500000   0.4166667), wk =   0.0277778
        k(   22) = (   0.0000000   0.2500000  -0.5000000), wk =   0.0138889
        k(   23) = (   0.0000000   0.3333333   0.3333333), wk =   0.0138889
        k(   24) = (   0.0000000   0.3333333   0.4166667), wk =   0.0277778
        k(   25) = (   0.0000000   0.3333333  -0.5000000), wk =   0.0138889
        k(   26) = (   0.0000000   0.4166667   0.4166667), wk =   0.0138889
        k(   27) = (   0.0000000   0.4166667  -0.5000000), wk =   0.0138889
        k(   28) = (   0.0000000  -0.5000000  -0.5000000), wk =   0.0034722
        k(   29) = (   0.0833333   0.0833333   0.0833333), wk =   0.0092593
        k(   30) = (   0.0833333   0.0833333   0.1666667), wk =   0.0277778
        k(   31) = (   0.0833333   0.0833333   0.2500000), wk =   0.0277778
        k(   32) = (   0.0833333   0.0833333   0.3333333), wk =   0.0277778
        k(   33) = (   0.0833333   0.0833333   0.4166667), wk =   0.0277778
        k(   34) = (   0.0833333   0.0833333  -0.5000000), wk =   0.0138889
        k(   35) = (   0.0833333   0.1666667   0.1666667), wk =   0.0277778
        k(   36) = (   0.0833333   0.1666667   0.2500000), wk =   0.0555556
        k(   37) = (   0.0833333   0.1666667   0.3333333), wk =   0.0555556
        k(   38) = (   0.0833333   0.1666667   0.4166667), wk =   0.0555556
        k(   39) = (   0.0833333   0.1666667  -0.5000000), wk =   0.0277778
        k(   40) = (   0.0833333   0.2500000   0.2500000), wk =   0.0277778
        k(   41) = (   0.0833333   0.2500000   0.3333333), wk =   0.0555556
        k(   42) = (   0.0833333   0.2500000   0.4166667), wk =   0.0555556
        k(   43) = (   0.0833333   0.2500000  -0.5000000), wk =   0.0277778
        k(   44) = (   0.0833333   0.3333333   0.3333333), wk =   0.0277778
        k(   45) = (   0.0833333   0.3333333   0.4166667), wk =   0.0555556
        k(   46) = (   0.0833333   0.3333333  -0.5000000), wk =   0.0277778
        k(   47) = (   0.0833333   0.4166667   0.4166667), wk =   0.0277778
        k(   48) = (   0.0833333   0.4166667  -0.5000000), wk =   0.0277778
        k(   49) = (   0.0833333  -0.5000000  -0.5000000), wk =   0.0069444
        k(   50) = (   0.1666667   0.1666667   0.1666667), wk =   0.0092593
        k(   51) = (   0.1666667   0.1666667   0.2500000), wk =   0.0277778
        k(   52) = (   0.1666667   0.1666667   0.3333333), wk =   0.0277778
        k(   53) = (   0.1666667   0.1666667   0.4166667), wk =   0.0277778
        k(   54) = (   0.1666667   0.1666667  -0.5000000), wk =   0.0138889
        k(   55) = (   0.1666667   0.2500000   0.2500000), wk =   0.0277778
        k(   56) = (   0.1666667   0.2500000   0.3333333), wk =   0.0555556
        k(   57) = (   0.1666667   0.2500000   0.4166667), wk =   0.0555556
        k(   58) = (   0.1666667   0.2500000  -0.5000000), wk =   0.0277778
        k(   59) = (   0.1666667   0.3333333   0.3333333), wk =   0.0277778
        k(   60) = (   0.1666667   0.3333333   0.4166667), wk =   0.0555556
        k(   61) = (   0.1666667   0.3333333  -0.5000000), wk =   0.0277778
        k(   62) = (   0.1666667   0.4166667   0.4166667), wk =   0.0277778
        k(   63) = (   0.1666667   0.4166667  -0.5000000), wk =   0.0277778
        k(   64) = (   0.1666667  -0.5000000  -0.5000000), wk =   0.0069444
        k(   65) = (   0.2500000   0.2500000   0.2500000), wk =   0.0092593
        k(   66) = (   0.2500000   0.2500000   0.3333333), wk =   0.0277778
        k(   67) = (   0.2500000   0.2500000   0.4166667), wk =   0.0277778
        k(   68) = (   0.2500000   0.2500000  -0.5000000), wk =   0.0138889
        k(   69) = (   0.2500000   0.3333333   0.3333333), wk =   0.0277778
        k(   70) = (   0.2500000   0.3333333   0.4166667), wk =   0.0555556
        k(   71) = (   0.2500000   0.3333333  -0.5000000), wk =   0.0277778
        k(   72) = (   0.2500000   0.4166667   0.4166667), wk =   0.0277778
        k(   73) = (   0.2500000   0.4166667  -0.5000000), wk =   0.0277778
        k(   74) = (   0.2500000  -0.5000000  -0.5000000), wk =   0.0069444
        k(   75) = (   0.3333333   0.3333333   0.3333333), wk =   0.0092593
        k(   76) = (   0.3333333   0.3333333   0.4166667), wk =   0.0277778
        k(   77) = (   0.3333333   0.3333333  -0.5000000), wk =   0.0138889
        k(   78) = (   0.3333333   0.4166667   0.4166667), wk =   0.0277778
        k(   79) = (   0.3333333   0.4166667  -0.5000000), wk =   0.0277778
        k(   80) = (   0.3333333  -0.5000000  -0.5000000), wk =   0.0069444
        k(   81) = (   0.4166667   0.4166667   0.4166667), wk =   0.0092593
        k(   82) = (   0.4166667   0.4166667  -0.5000000), wk =   0.0138889
        k(   83) = (   0.4166667  -0.5000000  -0.5000000), wk =   0.0069444
        k(   84) = (  -0.5000000  -0.5000000  -0.5000000), wk =   0.0011574

     Dense  grid:     9315 G-vectors     FFT dimensions: (  27,  27,  27)

     Estimated max dynamical RAM per process >       8.52 MB

     Estimated total dynamical RAM >      85.23 MB

     Initial potential from superposition of free atoms

     starting charge      43.9996, renormalised to      44.0000
     Starting wfcs are   36 randomized atomic wfcs
     Checking if some PAW data can be deallocated... 

     total cpu time spent up to now is        0.8 secs

     Self-consistent Calculation

     iteration #  1     ecut=    50.00 Ry     beta= 0.70
     Davidson diagonalization with overlap
     ethr =  1.00E-02,  avg # of iterations =  5.9

     Threshold (ethr) on eigenvalues was too large:
     Diagonalizing with lowered threshold

     Davidson diagonalization with overlap
     ethr =  6.67E-04,  avg # of iterations =  5.5

     total cpu time spent up to now is        4.2 secs

     total energy              =   -3094.30402128 Ry
     estimated scf accuracy    <       0.20617261 Ry

     iteration #  2     ecut=    50.00 Ry     beta= 0.70
     Davidson diagonalization with overlap
     ethr =  4.69E-04,  avg # of iterations =  3.2

     total cpu time spent up to now is        5.5 secs

     total energy              =   -3094.35601882 Ry
     estimated scf accuracy    <       0.01608744 Ry

     iteration #  3     ecut=    50.00 Ry     beta= 0.70
     Davidson diagonalization with overlap
     c_bands:  1 eigenvalues not converged
     ethr =  3.66E-05,  avg # of iterations =  6.8

     total cpu time spent up to now is        7.7 secs

     total energy              =   -3094.36732171 Ry
     estimated scf accuracy    <       0.00149225 Ry

     iteration #  4     ecut=    50.00 Ry     beta= 0.70
     Davidson diagonalization with overlap
     c_bands:  1 eigenvalues not converged
     c_bands:  1 eigenvalues not converged
     c_bands:  1 eigenvalues not converged
     c_bands:  1 eigenvalues not converged
     c_bands:  1 eigenvalues not converged
     c_bands:  1 eigenvalues not converged
     c_bands:  1 eigenvalues not converged
     c_bands:  1 eigenvalues not converged
     c_bands:  1 eigenvalues not converged
     c_bands:  1 eigenvalues not converged
     c_bands:  1 eigenvalues not converged
     ethr =  3.39E-06,  avg # of iterations =  7.4

     total cpu time spent up to now is        9.8 secs

     total energy              =   -3094.36787791 Ry
     estimated scf accuracy    <       0.00049512 Ry

     iteration #  5     ecut=    50.00 Ry     beta= 0.70
     Davidson diagonalization with overlap
     c_bands:  1 eigenvalues not converged
     c_bands:  1 eigenvalues not converged
     ethr =  1.13E-06,  avg # of iterations =  4.8

     total cpu time spent up to now is       11.3 secs

     total energy              =   -3094.36800878 Ry
     estimated scf accuracy    <       0.00001257 Ry

     iteration #  6     ecut=    50.00 Ry     beta= 0.70
     Davidson diagonalization with overlap
     ethr =  2.86E-08,  avg # of iterations =  7.8

     total cpu time spent up to now is       13.9 secs

     total energy              =   -3094.36802496 Ry
     estimated scf accuracy    <       0.00001734 Ry

     iteration #  7     ecut=    50.00 Ry     beta= 0.70
     Davidson diagonalization with overlap
     c_bands:  1 eigenvalues not converged
     ethr =  2.86E-08,  avg # of iterations =  2.9

     total cpu time spent up to now is       15.3 secs

     total energy              =   -3094.36802646 Ry
     estimated scf accuracy    <       0.00000114 Ry

     iteration #  8     ecut=    50.00 Ry     beta= 0.70
     Davidson diagonalization with overlap
     ethr =  2.59E-09,  avg # of iterations =  6.9

     total cpu time spent up to now is       18.5 secs

     End of self-consistent calculation

          k = 0.0000 0.0000 0.0000 (  1189 PWs)   bands (ev):

    24.5353  25.0638  25.0638  25.0640  25.9305  25.9305  25.9305  33.4163
    33.4163  33.4163  39.6388  39.6388  44.6634  44.6636  44.6636  46.2027
    46.2027  46.2027  46.2027  46.2027  46.2027  47.5098  47.5098  47.5098
    58.8600  60.9490

          k = 0.0000 0.0000 0.0833 (  1185 PWs)   bands (ev):

    24.7484  25.2097  25.2377  25.2379  26.0218  26.1214  26.1214  33.2205
    33.5568  33.5568  39.3856  39.7096  44.1586  44.1586  44.2663  44.2665
    44.5574  45.7513  45.7513  46.2041  46.2042  46.8254  49.5239  49.5239
    59.2512  60.7284

          k = 0.0000 0.0000 0.1667 (  1177 PWs)   bands (ev):

    25.3665  25.6366  25.7428  25.7429  26.2933  26.6890  26.6890  32.6736
    33.9762  33.9762  38.6799  39.9194  41.6008  41.6008  43.1697  43.1698
    44.2518  44.5816  44.5816  45.0652  46.2080  46.2081  51.9828  51.9828
    60.3142  60.3144

          k = 0.0000 0.0000 0.2500 (  1173 PWs)   bands (ev):

    26.3085  26.3149  26.5212  26.5213  26.7389  27.6188  27.6188  31.8722
    34.6650  34.6650  37.6828  39.0814  39.0814  40.2601  41.6253  41.6253
    42.7615  43.0321  43.0321  43.7821  46.2134  46.2135  54.3089  54.3089
    60.0043  60.0046

          k = 0.0000 0.0000 0.3333 (  1177 PWs)   bands (ev):

    27.1489  27.3484  27.4229  27.4495  27.4495  28.8866  28.8866  30.9281
    35.6076  35.6076  36.6629  36.6629  36.6760  39.9769  39.9769  40.3398
    40.7178  41.3566  41.3566  43.1977  46.2189  46.2189  56.3958  56.3958
    59.8613  59.8617

          k = 0.0000 0.0000 0.4167 (  1173 PWs)   bands (ev):

    28.0005  28.1036  28.2845  28.2845  28.3290  29.9387  30.4628  30.4628
    34.3916  34.3916  36.1227  36.7823  36.7823  38.1453  38.6420  38.6421
    39.7037  39.7037  41.2722  42.5519  46.2228  46.2228  58.1444  58.1444
    59.8267  59.8272

          k = 0.0000 0.0000-0.5000 (  1166 PWs)   bands (ev):

    28.5355  28.5356  28.6419  28.6419  28.9794  28.9794  32.3111  32.3111
    32.3112  32.3112  36.5898  36.5898  38.1069  38.1070  38.1605  38.1605
    38.1607  38.1607  41.8954  41.8955  46.2242  46.2243  59.4689  59.4689
    59.4691  59.4695

          k = 0.0000 0.0833 0.0833 (  1179 PWs)   bands (ev):

    24.9546  25.3719  25.3839  25.3840  26.2109  26.2109  26.3451  33.1424
    33.5897  33.6876  39.3043  39.6295  43.2599  43.4763  43.4763  43.9137
    44.3818  44.3819  45.7518  45.7519  45.9239  48.8888  48.8888  50.6788
    59.5679  59.6276

          k = 0.0000 0.0833 0.1667 (  1168 PWs)   bands (ev):

    25.5528  25.7868  25.8121  25.8902  26.4777  26.7738  26.9822  32.6704
    33.9577  34.0700  38.6928  39.8102  40.9971  41.2231  42.2010  42.9191
    43.3148  44.0797  44.5799  45.7533  45.7703  47.3222  51.3301  52.7874
    58.5559  60.7266

          k = 0.0000 0.0833 0.2500 (  1173 PWs)   bands (ev):

    26.4737  26.4801  26.4863  26.6707  26.9149  27.6943  27.9603  31.9096
    34.6380  34.6596  37.7831  38.5352  38.9034  40.1965  40.5474  41.4799
    41.8448  43.0269  43.3407  45.4866  45.7342  45.7545  53.5848  54.9768
    57.9251  60.3472

          k = 0.0000 0.0833 0.3333 (  1176 PWs)   bands (ev):

    27.3309  27.3813  27.5118  27.5601  27.6015  28.9494  29.1997  30.9996
    35.2368  35.5808  36.2081  36.5844  37.0880  38.7221  39.9160  40.2277
    40.7284  41.3471  42.0314  44.0141  45.7305  45.7540  55.4602  57.0028
    57.6186  60.3122

          k = 0.0000 0.0833 0.4167 (  1167 PWs)   bands (ev):

    28.1853  28.2511  28.2790  28.4295  28.4741  30.0404  30.5071  30.6244
    34.0865  34.3717  35.3107  36.7587  36.9775  37.5164  38.6572  38.8519
    39.6894  40.3639  41.3823  42.9879  45.7366  45.7508  56.7093  57.4780
    58.7268  60.7365

          k = 0.0000 0.0833-0.5000 (  1172 PWs)   bands (ev):

    28.7104  28.7105  28.7381  28.7381  29.1063  29.1063  32.2286  32.2287
    32.3290  32.3291  35.7088  35.7088  38.1413  38.1415  38.2179  38.2179
    38.7776  38.7777  42.1371  42.1372  45.7444  45.7445  57.2809  57.2810
    60.0460  60.0462

          k = 0.0000 0.1667 0.1667 (  1163 PWs)   bands (ev):

    26.0278  26.0947  26.3222  26.3223  27.0250  27.0250  27.7284  32.4847
    34.1043  34.3338  38.4705  39.7285  39.7286  39.7947  40.0675  42.1751
    43.2576  43.2576  44.5746  44.5747  45.1218  49.7416  49.7417  54.5490
    56.9281  61.6921

          k = 0.0000 0.1667 0.2500 (  1173 PWs)   bands (ev):

    26.5562  26.9355  27.0047  27.1102  27.4361  27.9189  28.7636  31.9439
    34.6526  34.6759  37.3727  37.8396  38.2230  38.3201  40.2414  41.0178
    42.0153  42.7079  43.0122  44.5655  44.7546  47.8346  51.9217  55.8673
    56.5606  61.2059

          k = 0.0000 0.1667 0.3333 (  1174 PWs)   bands (ev):

    27.3567  27.8630  27.9536  27.9953  28.0496  29.1342  29.9419  31.1774
    34.7719  35.2186  35.5481  36.3204  36.6740  37.4564  39.6902  40.5570
    41.0014  41.3214  41.6894  44.5530  44.5978  46.0192  53.6342  55.3384
    58.5072  61.0071

          k = 0.0000 0.1667 0.4167 (  1169 PWs)   bands (ev):

    28.3048  28.6837  28.7287  28.8564  28.8822  30.3244  30.6344  31.0708
    33.3942  34.2963  34.4136  35.2814  36.7130  37.9440  38.6350  39.1988
    39.6531  40.3764  41.9727  44.4537  44.5395  44.5420  54.6560  55.1555
    60.2109  61.4187

          k = 0.0000 0.1667-0.5000 (  1160 PWs)   bands (ev):

    29.0025  29.0025  29.2174  29.2175  29.4737  29.4737  32.0763  32.0764
    32.3745  32.3746  34.4089  34.4089  38.0970  38.0972  38.4131  38.4132
    39.0369  39.0369  43.1210  43.1210  44.5315  44.5315  55.0460  55.0461
    61.5457  61.5463

          k = 0.0000 0.2500 0.2500 (  1165 PWs)   bands (ev):

    26.9052  27.6554  27.8098  27.8098  28.2847  28.2848  29.8000  31.7846
    34.7082  34.9437  36.0437  36.0438  37.2609  37.4967  40.2180  40.8293
    41.7048  41.7049  42.9907  42.9907  43.8933  49.9884  49.9885  54.4298
    58.4815  62.4332

          k = 0.0000 0.2500 0.3333 (  1162 PWs)   bands (ev):

    27.5491  28.5502  28.6987  28.7717  28.7770  29.4301  30.8835  31.3451
    34.1056  34.4981  34.7447  35.6516  35.7944  37.1982  39.2111  40.4705
    40.8753  41.2892  41.8988  42.9690  43.3624  48.1042  51.7209  53.6566
    60.4091  61.7676

          k = 0.0000 0.2500 0.4167 (  1159 PWs)   bands (ev):

    28.4393  29.3732  29.4606  29.5389  29.5942  30.7237  30.8291  31.7210
    32.6309  33.6675  33.8103  34.1186  36.7237  37.5830  38.4099  39.2359
    39.6166  39.7210  42.9603  43.0976  43.2355  46.3555  52.8014  53.3726
    61.7250  62.1434

          k = 0.0000 0.2500-0.5000 (  1164 PWs)   bands (ev):

    29.3559  29.3559  29.9857  29.9858  30.0394  30.0394  32.0580  32.0581
    32.4205  32.4206  33.2632  33.2632  38.0701  38.0702  38.3929  38.3930
    38.5283  38.5284  42.9887  42.9887  44.7338  44.7339  53.2347  53.2348
    62.2557  62.2560

          k = 0.0000 0.3333 0.3333 (  1155 PWs)   bands (ev):

    28.0110  29.2717  29.7166  29.7166  29.8183  29.8183  31.3477  31.8315
    33.0505  33.0506  34.2610  34.9334  36.0785  36.7116  38.4925  39.8246
    39.8247  41.2695  41.2696  42.3741  43.2737  49.9229  49.9229  52.6773
    62.3718  62.6803

          k = 0.0000 0.3333 0.4167 (  1160 PWs)   bands (ev):

    28.7455  30.0395  30.2664  30.4026  30.7057  31.0607  31.1190  31.9944
    32.2310  32.4586  33.5782  33.7619  36.8250  36.9238  37.8683  38.7342
    38.7780  39.6209  41.2964  41.7486  44.8644  48.2149  51.2290  52.2380
    62.0906  62.5694

          k = 0.0000 0.3333-0.5000 (  1158 PWs)   bands (ev):

    29.6973  29.6974  30.7253  30.7253  30.7548  30.7548  32.3414  32.3414
    32.4172  32.4173  32.5376  32.5376  37.6525  37.6526  37.9310  37.9311
    38.1382  38.1383  41.4264  41.4265  46.5315  46.5317  51.9185  51.9187
    62.0932  62.0933

          k = 0.0000 0.4167 0.4167 (  1162 PWs)   bands (ev):

    29.2628  30.4703  30.9998  30.9999  31.2795  31.2796  31.3719  31.9209
    31.9209  33.0215  33.1525  33.4461  36.3357  37.2167  37.4639  37.7904
    37.7905  39.7344  39.7345  40.7103  46.5853  49.7740  49.7740  51.5553
    62.1807  62.6023

          k = 0.0000 0.4167-0.5000 (  1170 PWs)   bands (ev):

    30.0127  30.0128  30.7900  30.7901  31.4119  31.4119  32.2901  32.2902
    32.7876  32.7877  32.8721  32.8722  36.7822  36.7823  37.1115  37.1115
    38.4175  38.4176  40.0588  40.0588  48.2446  48.2448  50.8647  50.8649
    62.1692  62.1696

          k = 0.0000-0.5000-0.5000 (  1180 PWs)   bands (ev):

    30.3794  30.3795  30.3795  30.3796  31.9613  31.9613  31.9614  31.9614
    33.1985  33.1986  33.1986  33.1987  36.4896  36.4896  36.4897  36.4898
    39.0364  39.0364  39.0366  39.0366  49.7040  49.7041  49.7041  49.7043
    62.5188  62.5191

          k = 0.0833 0.0833 0.0833 (  1186 PWs)   bands (ev):

    25.1517  25.5151  25.5151  25.5153  26.4359  26.4359  26.4359  33.0853
    33.7097  33.7097  39.3966  39.3966  42.7947  42.7947  42.7948  43.6078
    43.6079  43.6079  45.7694  45.7694  45.7694  49.9768  49.9769  49.9769
    60.1434  60.1437

          k = 0.0833 0.0833 0.1667 (  1175 PWs)   bands (ev):

    25.7238  25.9249  25.9249  25.9321  26.7090  27.0728  27.0728  32.6874
    34.0218  34.0676  38.7564  39.6701  40.7160  40.7161  41.5675  42.7690
    42.7691  42.7711  45.3419  45.6132  45.6132  48.2239  52.0361  52.0361
    59.0912  59.0912

          k = 0.0833 0.0833 0.2500 (  1172 PWs)   bands (ev):

    26.5759  26.6049  26.6152  26.6153  27.1692  28.0451  28.0451  31.9819
    34.5970  34.6547  37.9186  38.4091  38.4091  39.9054  40.1138  41.5373
    41.5373  41.5908  44.7088  45.4683  45.4683  46.0021  54.1549  54.1550
    58.3963  58.3963

          k = 0.0833 0.0833 0.3333 (  1170 PWs)   bands (ev):

    27.3426  27.5185  27.5186  27.6458  27.8337  29.2650  29.2650  31.1268
    35.0446  35.4563  36.1712  36.1712  37.4529  38.0986  40.0740  40.0741
    40.2551  40.7094  43.7000  43.9376  45.3901  45.3902  55.9916  55.9916
    58.0694  58.0695

          k = 0.0833 0.0833 0.4167 (  1168 PWs)   bands (ev):

    28.1001  28.4189  28.4189  28.5144  28.6547  30.2425  30.6338  30.6338
    34.1324  34.1324  34.9600  36.4199  36.4517  38.1451  38.8013  38.8013
    38.8996  41.4300  41.5342  43.0940  45.3558  45.3558  57.1448  57.1448
    58.1339  58.1341

          k = 0.0833 0.0833-0.5000 (  1166 PWs)   bands (ev):

    28.6666  28.6667  28.8396  28.8396  29.4397  29.4398  31.7961  31.7962
    32.7195  32.7196  35.2505  35.2506  37.6126  37.6127  38.2682  38.2683
    39.6359  39.6360  42.2399  42.2400  45.3463  45.3464  57.3960  57.3960
    58.3693  58.3695

          k = 0.0833 0.1667 0.1667 (  1174 PWs)   bands (ev):

    26.1538  26.2201  26.3236  26.3236  27.3494  27.3494  27.8229  32.5708
    34.1483  34.2957  38.6391  39.5284  39.5285  39.6101  39.6820  41.7524
    42.1176  42.1176  45.2108  45.2108  45.2651  50.2186  50.2187  53.6324
    57.4960  60.5137

          k = 0.0833 0.1667 0.2500 (  1165 PWs)   bands (ev):

    26.6732  26.9261  26.9849  27.0032  27.8272  28.3054  28.8492  32.1213
    34.5794  34.6534  37.3091  37.9542  38.0473  38.0785  40.1064  40.7361
    41.0104  41.3027  44.5387  44.8431  44.8633  48.0226  52.2743  55.3569
    56.5430  59.6307

          k = 0.0833 0.1667 0.3333 (  1168 PWs)   bands (ev):

    27.4699  27.6243  27.8917  27.9123  28.5282  29.4648  29.9914  31.4657
    34.6848  35.2564  35.3288  36.0263  36.5013  37.8961  39.6008  39.7171
    40.1586  40.9036  43.4510  44.5634  44.5647  45.9499  53.9698  55.7040
    57.3232  59.1474

          k = 0.0833 0.1667 0.4167 (  1167 PWs)   bands (ev):

    28.2959  28.4247  28.6487  28.8293  29.3893  30.6411  30.7922  30.9808
    33.6172  34.2429  34.2941  35.1143  36.2033  38.4276  38.5962  38.7026
    38.9787  41.8844  41.8934  44.3066  44.4082  44.4163  55.0230  55.5516
    58.4751  59.0436

          k = 0.0833 0.1667-0.5000 (  1160 PWs)   bands (ev):

    28.7723  28.7724  29.1168  29.1168  30.1723  30.1723  31.3581  31.3582
    33.0952  33.0953  34.2590  34.2591  37.2409  37.2410  38.3036  38.3037
    40.1735  40.1736  43.0086  43.0086  44.3671  44.3671  55.4346  55.4347
    58.9965  58.9967

          k = 0.0833 0.2500 0.2500 (  1166 PWs)   bands (ev):

    27.0060  27.5693  27.5793  27.5793  28.7654  28.7655  29.8644  32.1199
    34.6655  34.7847  36.0230  36.0231  37.0167  37.8627  39.7743  40.4909
    40.4909  40.6792  44.0166  44.0166  44.2128  50.1063  50.1063  54.7062
    57.4040  61.2744

          k = 0.0833 0.2500 0.3333 (  1164 PWs)   bands (ev):

    27.6352  28.2165  28.2650  28.4931  29.4680  29.8259  30.8748  31.8751
    34.2345  34.4626  34.7600  35.2699  35.6809  37.7980  38.8581  39.3201
    39.7188  41.7558  42.8846  43.5377  43.6482  48.0452  51.8346  53.9439
    58.8663  60.4875

          k = 0.0833 0.2500 0.4167 (  1164 PWs)   bands (ev):

    28.5189  28.7678  28.8740  29.4729  30.3716  30.5905  31.4570  31.5444
    33.1601  33.7082  33.7795  34.3559  35.9946  38.0780  38.1358  38.5450
    38.7774  41.4361  43.0897  43.2467  43.2874  46.2155  52.9597  53.6350
    59.8072  60.1489

          k = 0.0833 0.2500-0.5000 (  1158 PWs)   bands (ev):

    29.0670  29.0670  29.4616  29.4616  31.1064  31.1065  31.1620  31.1621
    33.2637  33.2638  33.4307  33.4308  36.9400  36.9401  38.0755  38.0756
    39.8861  39.8861  43.1615  43.1616  44.5806  44.5807  53.4528  53.4530
    60.0915  60.0917

          k = 0.0833 0.3333 0.3333 (  1168 PWs)   bands (ev):

    28.0655  28.7103  29.0801  29.0801  30.4397  30.4397  31.6658  32.1423
    33.3107  33.3108  34.2859  35.0824  35.3452  37.6373  38.0433  38.7780
    38.7780  42.3271  42.3271  42.8128  43.1214  49.8707  49.8707  52.8799
    60.1255  61.7920

          k = 0.0833 0.3333 0.4167 (  1160 PWs)   bands (ev):

    28.7624  29.1461  29.4318  30.1321  30.5792  31.3834  31.8853  32.2015
    32.6273  32.9756  33.6411  34.4316  35.7505  37.4353  37.6380  38.0693
    38.2008  40.8989  41.9650  42.1912  44.7073  48.0813  51.2106  52.3619
    60.7005  61.1153

          k = 0.0833 0.3333-0.5000 (  1160 PWs)   bands (ev):

    29.4394  29.4394  29.6793  29.6794  31.2103  31.2103  32.2441  32.2441
    32.5730  32.5730  33.7545  33.7545  36.5657  36.5658  37.4542  37.4542
    39.4213  39.4214  41.9043  41.9043  46.3746  46.3747  51.9653  51.9655
    60.8393  60.8395

          k = 0.0833 0.4167 0.4167 (  1162 PWs)   bands (ev):

    29.1850  29.4236  30.0015  30.0016  31.3224  31.3224  31.9577  32.3560
    33.1043  33.1043  33.7921  34.4614  35.5891  36.7443  37.0709  37.0709
    38.3771  40.5813  40.5814  41.2530  46.4245  49.6562  49.6562  51.5642
    61.0552  61.8543

          k = 0.0833 0.4167-0.5000 (  1158 PWs)   bands (ev):

    29.7072  29.7073  29.7450  29.7451  31.5586  31.5586  32.0348  32.0348
    33.4951  33.4951  34.0793  34.0793  36.1028  36.1028  36.5961  36.5962
    39.2712  39.2712  40.6782  40.6782  48.0902  48.0904  50.7916  50.7918
    61.3489  61.3492

          k = 0.0833-0.5000-0.5000 (  1164 PWs)   bands (ev):

    29.7732  29.7732  29.7732  29.7733  31.8315  31.8315  31.8316  31.8316
    34.1920  34.1921  34.1921  34.1921  35.9460  35.9460  35.9460  35.9461
    39.7074  39.7074  39.7075  39.7075  49.5700  49.5702  49.5702  49.5704
    61.7887  61.7889

          k = 0.1667 0.1667 0.1667 (  1165 PWs)   bands (ev):

    26.5130  26.5130  26.5130  26.5839  28.1128  28.1128  28.1128  32.6948
    34.2943  34.2943  38.6645  38.6645  38.6646  39.1232  39.1232  40.7824
    40.7825  40.7825  45.4097  45.4097  45.4097  51.5182  51.5183  51.5183
    58.9418  58.9419

          k = 0.1667 0.1667 0.2500 (  1173 PWs)   bands (ev):

    27.0019  27.0020  27.0425  27.1423  28.6187  29.1144  29.1144  32.5627
    34.4911  34.5725  37.0468  37.0468  37.3001  38.6037  39.6245  39.8674
    39.9643  39.9643  45.0345  45.0346  45.2528  48.9551  53.1446  53.1446
    57.8030  57.8031

          k = 0.1667 0.1667 0.3333 (  1171 PWs)   bands (ev):

    27.6363  27.7809  27.7809  27.7938  29.3622  30.1460  30.1460  32.1958
    34.4791  35.0110  35.3478  35.3479  35.8573  38.4562  38.6748  39.1802
    39.1803  40.8016  44.5068  44.5068  44.7334  46.3227  54.6140  54.6141
    57.1407  57.1408

          k = 0.1667 0.1667 0.4167 (  1166 PWs)   bands (ev):

    28.1638  28.3265  28.7562  28.7562  30.2971  30.7363  30.7363  31.7871
    33.9897  34.1707  34.1708  34.5870  35.6250  37.3692  38.3511  38.3512
    39.7662  41.8479  43.8176  43.9189  44.1256  44.1256  55.6088  55.6090
    56.8405  56.8406

          k = 0.1667 0.1667-0.5000 (  1160 PWs)   bands (ev):

    28.4604  28.4605  29.4379  29.4379  30.5894  30.5895  31.2099  31.2100
    33.8420  33.8420  33.8897  33.8898  36.4156  36.4156  37.9364  37.9365
    41.5786  41.5786  42.9199  42.9200  43.9955  43.9955  55.9569  55.9571
    56.7594  56.7594

          k = 0.1667 0.2500 0.2500 (  1168 PWs)   bands (ev):

    27.2800  27.4164  27.4689  27.4689  29.5868  29.5868  30.0665  32.9688
    34.5102  34.5381  35.9167  35.9168  36.3866  38.7480  38.8049  38.9131
    38.9131  40.2890  44.7817  44.9622  44.9623  50.5366  50.5366  53.9612
    56.8103  59.5845

          k = 0.1667 0.2500 0.3333 (  1166 PWs)   bands (ev):

    27.7803  27.8532  27.9447  28.1901  30.3068  30.4409  30.8686  33.0497
    34.3550  34.6154  34.7547  34.8035  35.4292  37.7978  38.0366  38.3727
    38.9409  41.3877  44.2292  44.3215  44.4109  48.0005  52.0818  54.1291
    56.9693  58.6751

          k = 0.1667 0.2500 0.4167 (  1161 PWs)   bands (ev):

    28.1428  28.2778  28.6890  29.1471  30.5110  30.9678  31.2726  32.9557
    33.6905  33.8952  34.2068  34.8509  35.2104  36.7611  37.4533  37.7628
    39.9809  42.7003  43.2500  43.7152  43.7603  45.8354  53.2090  54.0166
    57.4734  58.1223

          k = 0.1667 0.2500-0.5000 (  1158 PWs)   bands (ev):

    28.3495  28.3495  29.6851  29.6852  30.1981  30.1982  32.3571  32.3572
    33.3771  33.3771  34.5930  34.5931  35.8845  35.8845  37.2930  37.2930
    41.6016  41.6016  43.5290  43.5290  44.1417  44.1418  53.7968  53.7970
    57.8050  57.8052

          k = 0.1667 0.3333 0.3333 (  1171 PWs)   bands (ev):

    27.8955  28.1673  28.5035  28.5035  30.9622  30.9622  31.3401  33.4956
    34.0620  34.0621  34.4824  34.5855  35.4489  37.1007  37.3719  37.3719
    38.9611  42.6988  43.6899  43.7129  43.7130  49.7208  49.7208  53.1223
    57.8369  60.2394

          k = 0.1667 0.3333 0.4167 (  1160 PWs)   bands (ev):

    28.1189  28.5553  28.6981  29.1611  30.7867  31.2406  31.7510  33.2991
    33.8147  34.2372  34.3765  34.9278  35.4819  36.3828  36.5274  36.9394
    39.6713  42.5463  43.0972  43.1025  44.2576  47.6901  51.0685  52.4818
    58.5123  59.4828

          k = 0.1667 0.3333-0.5000 (  1162 PWs)   bands (ev):

    28.3795  28.3795  29.2734  29.2735  30.7399  30.7399  32.6421  32.6421
    33.8953  33.8953  35.1552  35.1552  35.5417  35.5418  36.5163  36.5164
    41.0439  41.0440  42.8461  42.8462  45.9136  45.9137  51.9324  51.9326
    58.9674  58.9677

          k = 0.1667 0.4167 0.4167 (  1163 PWs)   bands (ev):

    28.2406  28.8000  28.8306  28.8306  31.3969  31.5357  31.5358  32.9688
    34.6141  34.6142  34.6620  35.1838  35.8193  35.8988  36.1184  36.1184
    39.7870  41.9935  41.9935  42.3600  45.9514  49.2702  49.2702  51.4277
    59.2763  60.3949

          k = 0.1667 0.4167-0.5000 (  1160 PWs)   bands (ev):

    28.4887  28.4888  28.9052  28.9052  31.4119  31.4119  32.3470  32.3470
    34.7413  34.7413  35.3329  35.3330  35.5487  35.5488  36.0093  36.0093
    40.7026  40.7026  41.8860  41.8860  47.6198  47.6199  50.4810  50.4812
    59.8552  59.8555

          k = 0.1667-0.5000-0.5000 (  1180 PWs)   bands (ev):

    28.6548  28.6550  28.6550  28.6550  31.9735  31.9735  31.9736  31.9736
    35.0185  35.0186  35.0186  35.0187  35.9150  35.9151  35.9151  35.9151
    40.9941  40.9941  40.9942  40.9942  49.1295  49.1296  49.1296  49.1298
    60.3169  60.3171

          k = 0.2500 0.2500 0.2500 (  1166 PWs)   bands (ev):

    27.3481  27.6354  27.6354  27.6354  30.4385  30.4386  30.4386  33.9577
    34.3452  34.3452  35.6010  35.6010  35.6011  37.7172  37.7172  37.7172
    39.8956  39.8956  45.1328  45.1329  45.1329  51.3196  51.3196  51.3197
    58.2886  58.2889

          k = 0.2500 0.2500 0.3333 (  1170 PWs)   bands (ev):

    27.4250  27.9178  28.0684  28.0684  30.9580  30.9580  31.0336  33.9939
    34.3761  34.6345  34.8985  35.2154  35.2155  36.6899  37.0746  37.0747
    40.0510  41.1625  44.6794  44.6794  45.0561  48.4769  52.1913  52.1914
    57.5427  57.5429

          k = 0.2500 0.2500 0.4167 (  1161 PWs)   bands (ev):

    27.6245  27.9934  28.6905  28.6905  30.7719  30.7719  31.8589  33.5388
    34.4576  34.5631  34.6304  35.3456  35.3457  35.8061  36.6507  36.6507
    41.2559  42.4372  44.0799  44.0799  44.5178  45.7474  52.8219  52.8220
    57.2236  57.2238

          k = 0.2500 0.2500-0.5000 (  1160 PWs)   bands (ev):

    27.8577  27.8577  29.1281  29.1282  30.4000  30.4000  32.7834  32.7835
    34.3603  34.3604  35.1109  35.1109  35.6910  35.6910  36.3331  36.3332
    43.2759  43.2759  43.6005  43.6006  43.8103  43.8103  53.0463  53.0465
    57.1416  57.1418

          k = 0.2500 0.3333 0.3333 (  1157 PWs)   bands (ev):

    27.2829  28.0895  28.0896  28.1347  31.2096  31.3094  31.3094  33.9359
    34.0561  35.1391  35.1392  35.7253  35.9250  36.0954  36.1866  36.1866
    40.3845  42.1370  44.4817  44.6882  44.6883  49.5577  49.5577  52.0140
    57.3212  58.9847

          k = 0.2500 0.3333 0.4167 (  1161 PWs)   bands (ev):

    27.3510  27.8776  28.3190  28.3375  31.1472  31.1508  31.9567  33.4333
    34.1703  34.9927  35.3386  35.5554  35.7096  36.1058  36.3585  36.5316
    41.2108  43.5997  43.9781  44.0443  44.0453  47.1362  50.6032  51.7253
    57.5742  58.3621

          k = 0.2500 0.3333-0.5000 (  1168 PWs)   bands (ev):

    27.5808  27.5808  28.4466  28.4467  31.0291  31.0291  32.7298  32.7298
    34.5295  34.5295  35.3846  35.3847  35.8879  35.8880  36.6894  36.6895
    42.7132  42.7133  43.7222  43.7222  45.1942  45.1943  51.3148  51.3150
    57.9297  57.9299

          k = 0.2500 0.4167 0.4167 (  1165 PWs)   bands (ev):

    27.3180  27.8743  27.8743  28.0771  31.4923  31.8469  31.8470  33.2086
    33.9341  34.7126  34.7126  34.8960  36.7908  36.7908  37.1341  37.3095
    41.2592  43.3657  43.3658  43.4895  45.2098  48.5675  48.5675  50.6759
    58.2456  59.1592

          k = 0.2500 0.4167-0.5000 (  1160 PWs)   bands (ev):

    27.5061  27.5062  27.9404  27.9405  31.7088  31.7088  32.6046  32.6046
    34.1773  34.1774  34.6250  34.6250  37.2147  37.2148  37.4736  37.4736
    42.1940  42.1940  43.1179  43.1180  46.8350  46.8351  49.7144  49.7145
    58.7832  58.7837

          k = 0.2500-0.5000-0.5000 (  1160 PWs)   bands (ev):

    27.6264  27.6266  27.6266  27.6266  32.2853  32.2853  32.2853  32.2853
    34.1801  34.1801  34.1801  34.1802  37.7968  37.7968  37.7969  37.7969
    42.3532  42.3532  42.3533  42.3533  48.3052  48.3053  48.3053  48.3055
    59.0245  59.0248

          k = 0.3333 0.3333 0.3333 (  1166 PWs)   bands (ev):

    26.9428  27.8400  27.8402  27.8402  31.5016  31.5016  31.5016  33.7797
    33.7797  35.2002  35.2002  35.2002  36.4657  36.4657  36.4658  37.2581
    41.8105  41.8105  44.8993  44.8994  44.8994  49.5943  49.5943  49.5944
    58.3020  58.3028

          k = 0.3333 0.3333 0.4167 (  1159 PWs)   bands (ev):

    26.8768  27.4169  27.7226  27.7227  31.5628  31.5628  32.1067  33.3860
    33.7629  34.4898  34.7069  34.7069  37.0533  37.5129  37.5130  37.9259
    42.5459  43.1205  44.5017  44.5018  44.7968  46.9562  49.8207  49.8208
    58.0852  58.0857

          k = 0.3333 0.3333-0.5000 (  1162 PWs)   bands (ev):

    27.0560  27.0561  27.6908  27.6909  31.5654  31.5654  32.7948  32.7949
    34.0033  34.0033  34.5503  34.5503  37.6304  37.6305  37.9673  37.9673
    44.1676  44.1677  44.2194  44.2194  44.4860  44.4860  49.9424  49.9426
    58.0600  58.0602

          k = 0.3333 0.4167 0.4167 (  1151 PWs)   bands (ev):

    26.7012  27.1731  27.1732  27.3247  31.9337  32.1868  32.1869  33.3075
    33.4512  34.0477  34.0478  34.1285  38.4158  38.4158  38.6419  39.1863
    42.6517  44.3317  44.3520  44.4127  44.4128  47.6479  47.6480  49.0651
    57.6448  58.3550

          k = 0.3333 0.4167-0.5000 (  1148 PWs)   bands (ev):

    26.8109  26.8110  27.1423  27.1424  32.1517  32.1517  32.8191  32.8192
    33.6164  33.6164  33.9029  33.9030  39.0788  39.0789  39.1417  39.1418
    43.5695  43.5695  44.0966  44.0966  45.8087  45.8087  48.4106  48.4107
    58.0354  58.5531

          k = 0.3333-0.5000-0.5000 (  1132 PWs)   bands (ev):

    26.8425  26.8427  26.8427  26.8427  32.6364  32.6364  32.6365  32.6365
    33.5445  33.5445  33.5445  33.5446  39.6912  39.6912  39.6913  39.6913
    43.5502  43.5502  43.5504  43.5504  47.0930  47.0930  47.0930  47.0932
    58.3172  58.3175

          k = 0.4167 0.4167 0.4167 (  1145 PWs)   bands (ev):

    26.4044  26.7451  26.7453  26.7453  32.4706  32.4706  32.4706  33.2295
    33.2295  33.5775  33.5776  33.5776  39.8617  39.8617  39.8617  40.8448
    43.8068  43.8068  44.7418  44.7419  44.7419  46.9843  46.9843  46.9845
    57.3763  58.5716

          k = 0.4167 0.4167-0.5000 (  1140 PWs)   bands (ev):

    26.4248  26.4249  26.6016  26.6017  32.5933  32.5933  32.9388  32.9388
    33.2729  33.2730  33.3997  33.3998  40.5324  40.5324  40.8533  40.8534
    44.5501  44.5502  44.5651  44.5651  44.9192  44.9192  46.8669  46.8670
    57.7923  57.7929

          k = 0.4167-0.5000-0.5000 (  1132 PWs)   bands (ev):

    26.3564  26.3566  26.3566  26.3566  32.9132  32.9132  32.9133  32.9133
    33.1516  33.1516  33.1516  33.1517  41.4686  41.4687  41.4687  41.4687
    44.3846  44.3846  44.3848  44.3848  45.6580  45.6581  45.6581  45.6582
    58.2244  58.2246

          k =-0.5000-0.5000-0.5000 (  1088 PWs)   bands (ev):

    26.1924  26.1926  26.1926  26.1926  33.0191  33.0191  33.0191  33.0192
    33.0192  33.0192  33.0192  33.0192  42.5400  42.5401  42.5401  42.5401
    44.6864  44.6864  44.6864  44.6864  44.6864  44.6866  44.6866  44.6866
    58.4104  59.4398

     the Fermi energy is    49.1830 ev

!    total energy              =   -3094.36802821 Ry

     total all-electron energy =   -152089.752392 Ry
     estimated scf accuracy    <       0.00000023 Ry
     smearing contrib. (-TS)   =      -0.15973885 Ry
     internal energy E=F+TS    =   -3094.20828937 Ry

     The total energy is F=E-TS. E is the sum of the following terms:
     one-electron contribution =     187.20509389 Ry
     hartree contribution      =       9.78492276 Ry
     xc contribution           =    -135.91385116 Ry
     ewald contribution        =    -382.65428468 Ry
     one-center paw contrib.   =   -2772.63017017 Ry

     convergence has been achieved in   8 iterations

     Forces acting on atoms (cartesian axes, Ry/au):

     atom    1 type  1   force =     0.00000000    0.00000000   -0.00000000
     atom    2 type  1   force =     0.00000000    0.00000000    0.00000000
     atom    3 type  1   force =     0.00000000    0.00000000    0.00000000
     atom    4 type  1   force =     0.00000000   -0.00000000   -0.00000000

     Total force =     0.000000     Total SCF correction =     0.000000

     Writing all to output data dir ./pwscf.save/
 
     init_run     :      0.45s CPU      0.48s WALL (       1 calls)
     electrons    :     17.27s CPU     17.69s WALL (       1 calls)
     forces       :      0.11s CPU      0.11s WALL (       1 calls)

     Called by init_run:
     wfcinit      :      0.36s CPU      0.37s WALL (       1 calls)
     potinit      :      0.06s CPU      0.07s WALL (       1 calls)
     hinit0       :      0.03s CPU      0.03s WALL (       1 calls)

     Called by electrons:
     c_bands      :     15.89s CPU     16.21s WALL (       9 calls)
     sum_band     :      0.91s CPU      0.94s WALL (       9 calls)
     v_of_rho     :      0.01s CPU      0.01s WALL (       9 calls)
     newd         :      0.01s CPU      0.02s WALL (       9 calls)
     PAW_pot      :      0.51s CPU      0.55s WALL (       9 calls)
     mix_rho      :      0.00s CPU      0.00s WALL (       9 calls)

     Called by c_bands:
     init_us_2    :      0.04s CPU      0.04s WALL (    1680 calls)
     init_us_2:cp :      0.04s CPU      0.04s WALL (    1680 calls)
     cegterg      :     15.62s CPU     15.94s WALL (     756 calls)

     Called by *egterg:
     cdiaghg      :      7.10s CPU      7.19s WALL (    4970 calls)
     h_psi        :      6.00s CPU      6.18s WALL (    5138 calls)
     s_psi        :      0.19s CPU      0.19s WALL (    5138 calls)
     g_psi        :      0.02s CPU      0.02s WALL (    4298 calls)

     Called by h_psi:
     h_psi:calbec :      0.54s CPU      0.55s WALL (    5138 calls)
     vloc_psi     :      5.24s CPU      5.40s WALL (    5138 calls)
     add_vuspsi   :      0.20s CPU      0.21s WALL (    5138 calls)

     General routines
     calbec       :      0.72s CPU      0.74s WALL (    6230 calls)
     fft          :      0.01s CPU      0.01s WALL (     111 calls)
     ffts         :      0.00s CPU      0.00s WALL (       9 calls)
     fftw         :      5.62s CPU      5.79s WALL (  178390 calls)
 
     Parallel routines
 
     PWSCF        :     18.24s CPU     19.78s WALL

 
   This run was terminated on:  12:36:11   5Apr2024            

=------------------------------------------------------------------------------=
   JOB DONE.
=------------------------------------------------------------------------------=
