MPI startup(): Warning: I_MPI_PMI_LIBRARY will be ignored since the hydra process manager was found
MPI startup(): Warning: I_MPI_PMI_LIBRARY will be ignored since the hydra process manager was found
MPI startup(): Warning: I_MPI_PMI_LIBRARY will be ignored since the hydra process manager was found
MPI startup(): Warning: I_MPI_PMI_LIBRARY will be ignored since the hydra process manager was found
MPI startup(): Warning: I_MPI_PMI_LIBRARY will be ignored since the hydra process manager was found
MPI startup(): Warning: I_MPI_PMI_LIBRARY will be ignored since the hydra process manager was found
MPI startup(): Warning: I_MPI_PMI_LIBRARY will be ignored since the hydra process manager was found
MPI startup(): Warning: I_MPI_PMI_LIBRARY will be ignored since the hydra process manager was found
MPI startup(): Warning: I_MPI_PMI_LIBRARY will be ignored since the hydra process manager was found
MPI startup(): Warning: I_MPI_PMI_LIBRARY will be ignored since the hydra process manager was found

     Program PWSCF v.7.0 starts on  5Apr2024 at 12:35:52 

     This program is part of the open-source Quantum ESPRESSO suite
     for quantum simulation of materials; please cite
         "P. Giannozzi et al., J. Phys.:Condens. Matter 21 395502 (2009);
         "P. Giannozzi et al., J. Phys.:Condens. Matter 29 465901 (2017);
         "P. Giannozzi et al., J. Chem. Phys. 152 154105 (2020);
          URL http://www.quantum-espresso.org", 
     in publications or presentations arising from this work. More details at
     http://www.quantum-espresso.org/quote

     Parallel version (MPI), running on    10 processors

     MPI processes distributed on     1 nodes
     R & G space division:  proc/nbgrp/npool/nimage =      10
     226213 MiB available memory on the printing compute node when the environment starts
 
     Reading input from VolumeFCC_9.8.in
Warning: card &CELL ignored
Warning: card / ignored

     Current dimensions of program PWSCF are:
     Max number of different atomic species (ntypx) = 10
     Max number of k-points (npk) =  40000
     Max angular momentum in pseudopotentials (lmaxx) =  4
     file Au.pbe-n-kjpaw_psl.1.0.0.UPF: wavefunction(s)  6S 5D renormalized
     Found identity + ( -0.5000 -0.5000  0.0000) symmetry
     This is a supercell, fractional translations are disabled
     Message from routine setup:
     using ibrav=0 with symmetry is DISCOURAGED, use correct ibrav instead

     Subspace diagonalization in iterative solution of the eigenvalue problem:
     one sub-group per band group will be used
     scalapack distributed-memory algorithm (size of sub-group:  3*  3 procs)

 
     Parallelization info
     --------------------
     sticks:   dense  smooth     PW     G-vecs:    dense   smooth      PW
     Min         153     153     43                 4501     4501     705
     Max         154     154     44                 4504     4504     710
     Sum        1533    1533    437                45025    45025    7075
 
     Using Slab Decomposition
 


     bravais-lattice index     =            0
     lattice parameter (alat)  =       9.7986  a.u.
     unit-cell volume          =     940.7829 (a.u.)^3
     number of atoms/cell      =            4
     number of atomic types    =            1
     number of electrons       =        44.00
     number of Kohn-Sham states=           26
     kinetic-energy cutoff     =      50.0000  Ry
     charge density cutoff     =     200.0000  Ry
     scf convergence threshold =      1.0E-06
     mixing beta               =       0.7000
     number of iterations used =            8  plain     mixing
     Exchange-correlation= SLA  PW   PBX  PBC
                           (   1   4   3   4   0   0   0)

     celldm(1)=   9.798580  celldm(2)=   0.000000  celldm(3)=   0.000000
     celldm(4)=   0.000000  celldm(5)=   0.000000  celldm(6)=   0.000000

     crystal axes: (cart. coord. in units of alat)
               a(1) = (   1.000000   0.000000   0.000000 )  
               a(2) = (   0.000000   1.000000   0.000000 )  
               a(3) = (   0.000000   0.000000   1.000000 )  

     reciprocal axes: (cart. coord. in units 2 pi/alat)
               b(1) = (  1.000000  0.000000  0.000000 )  
               b(2) = (  0.000000  1.000000  0.000000 )  
               b(3) = (  0.000000  0.000000  1.000000 )  


     PseudoPot. # 1 for Au read from file:
     ./Au.pbe-n-kjpaw_psl.1.0.0.UPF
     MD5 check sum: 4db85c736373c707a97ce4c36c2a9d23
     Pseudo is Projector augmented-wave + core cor, Zval = 11.0
     Generated using &quot;atomic&quot; code by A. Dal Corso  v.6.3
     Shape of augmentation charge: PSQ
     Using radial grid of 1279 points,  6 beta functions with: 
                l(1) =   0
                l(2) =   0
                l(3) =   1
                l(4) =   1
                l(5) =   2
                l(6) =   2
     Q(r) pseudized with 0 coefficients 


     atomic species   valence    mass     pseudopotential
        Au            11.00   196.96657     Au( 1.00)

     48 Sym. Ops., with inversion, found



   Cartesian axes

     site n.     atom                  positions (alat units)
         1           Au  tau(   1) = (   0.0000000   0.0000000   0.0000000  )
         2           Au  tau(   2) = (   0.5000000   0.5000000   0.0000000  )
         3           Au  tau(   3) = (   0.5000000   0.0000000   0.5000000  )
         4           Au  tau(   4) = (   0.0000000   0.5000000   0.5000000  )

     number of k points=    84  Gaussian smearing, width (Ry)=  0.2000
                       cart. coord. in units 2pi/alat
        k(    1) = (   0.0000000   0.0000000   0.0000000), wk =   0.0011574
        k(    2) = (   0.0000000   0.0000000   0.0833333), wk =   0.0069444
        k(    3) = (   0.0000000   0.0000000   0.1666667), wk =   0.0069444
        k(    4) = (   0.0000000   0.0000000   0.2500000), wk =   0.0069444
        k(    5) = (   0.0000000   0.0000000   0.3333333), wk =   0.0069444
        k(    6) = (   0.0000000   0.0000000   0.4166667), wk =   0.0069444
        k(    7) = (   0.0000000   0.0000000  -0.5000000), wk =   0.0034722
        k(    8) = (   0.0000000   0.0833333   0.0833333), wk =   0.0138889
        k(    9) = (   0.0000000   0.0833333   0.1666667), wk =   0.0277778
        k(   10) = (   0.0000000   0.0833333   0.2500000), wk =   0.0277778
        k(   11) = (   0.0000000   0.0833333   0.3333333), wk =   0.0277778
        k(   12) = (   0.0000000   0.0833333   0.4166667), wk =   0.0277778
        k(   13) = (   0.0000000   0.0833333  -0.5000000), wk =   0.0138889
        k(   14) = (   0.0000000   0.1666667   0.1666667), wk =   0.0138889
        k(   15) = (   0.0000000   0.1666667   0.2500000), wk =   0.0277778
        k(   16) = (   0.0000000   0.1666667   0.3333333), wk =   0.0277778
        k(   17) = (   0.0000000   0.1666667   0.4166667), wk =   0.0277778
        k(   18) = (   0.0000000   0.1666667  -0.5000000), wk =   0.0138889
        k(   19) = (   0.0000000   0.2500000   0.2500000), wk =   0.0138889
        k(   20) = (   0.0000000   0.2500000   0.3333333), wk =   0.0277778
        k(   21) = (   0.0000000   0.2500000   0.4166667), wk =   0.0277778
        k(   22) = (   0.0000000   0.2500000  -0.5000000), wk =   0.0138889
        k(   23) = (   0.0000000   0.3333333   0.3333333), wk =   0.0138889
        k(   24) = (   0.0000000   0.3333333   0.4166667), wk =   0.0277778
        k(   25) = (   0.0000000   0.3333333  -0.5000000), wk =   0.0138889
        k(   26) = (   0.0000000   0.4166667   0.4166667), wk =   0.0138889
        k(   27) = (   0.0000000   0.4166667  -0.5000000), wk =   0.0138889
        k(   28) = (   0.0000000  -0.5000000  -0.5000000), wk =   0.0034722
        k(   29) = (   0.0833333   0.0833333   0.0833333), wk =   0.0092593
        k(   30) = (   0.0833333   0.0833333   0.1666667), wk =   0.0277778
        k(   31) = (   0.0833333   0.0833333   0.2500000), wk =   0.0277778
        k(   32) = (   0.0833333   0.0833333   0.3333333), wk =   0.0277778
        k(   33) = (   0.0833333   0.0833333   0.4166667), wk =   0.0277778
        k(   34) = (   0.0833333   0.0833333  -0.5000000), wk =   0.0138889
        k(   35) = (   0.0833333   0.1666667   0.1666667), wk =   0.0277778
        k(   36) = (   0.0833333   0.1666667   0.2500000), wk =   0.0555556
        k(   37) = (   0.0833333   0.1666667   0.3333333), wk =   0.0555556
        k(   38) = (   0.0833333   0.1666667   0.4166667), wk =   0.0555556
        k(   39) = (   0.0833333   0.1666667  -0.5000000), wk =   0.0277778
        k(   40) = (   0.0833333   0.2500000   0.2500000), wk =   0.0277778
        k(   41) = (   0.0833333   0.2500000   0.3333333), wk =   0.0555556
        k(   42) = (   0.0833333   0.2500000   0.4166667), wk =   0.0555556
        k(   43) = (   0.0833333   0.2500000  -0.5000000), wk =   0.0277778
        k(   44) = (   0.0833333   0.3333333   0.3333333), wk =   0.0277778
        k(   45) = (   0.0833333   0.3333333   0.4166667), wk =   0.0555556
        k(   46) = (   0.0833333   0.3333333  -0.5000000), wk =   0.0277778
        k(   47) = (   0.0833333   0.4166667   0.4166667), wk =   0.0277778
        k(   48) = (   0.0833333   0.4166667  -0.5000000), wk =   0.0277778
        k(   49) = (   0.0833333  -0.5000000  -0.5000000), wk =   0.0069444
        k(   50) = (   0.1666667   0.1666667   0.1666667), wk =   0.0092593
        k(   51) = (   0.1666667   0.1666667   0.2500000), wk =   0.0277778
        k(   52) = (   0.1666667   0.1666667   0.3333333), wk =   0.0277778
        k(   53) = (   0.1666667   0.1666667   0.4166667), wk =   0.0277778
        k(   54) = (   0.1666667   0.1666667  -0.5000000), wk =   0.0138889
        k(   55) = (   0.1666667   0.2500000   0.2500000), wk =   0.0277778
        k(   56) = (   0.1666667   0.2500000   0.3333333), wk =   0.0555556
        k(   57) = (   0.1666667   0.2500000   0.4166667), wk =   0.0555556
        k(   58) = (   0.1666667   0.2500000  -0.5000000), wk =   0.0277778
        k(   59) = (   0.1666667   0.3333333   0.3333333), wk =   0.0277778
        k(   60) = (   0.1666667   0.3333333   0.4166667), wk =   0.0555556
        k(   61) = (   0.1666667   0.3333333  -0.5000000), wk =   0.0277778
        k(   62) = (   0.1666667   0.4166667   0.4166667), wk =   0.0277778
        k(   63) = (   0.1666667   0.4166667  -0.5000000), wk =   0.0277778
        k(   64) = (   0.1666667  -0.5000000  -0.5000000), wk =   0.0069444
        k(   65) = (   0.2500000   0.2500000   0.2500000), wk =   0.0092593
        k(   66) = (   0.2500000   0.2500000   0.3333333), wk =   0.0277778
        k(   67) = (   0.2500000   0.2500000   0.4166667), wk =   0.0277778
        k(   68) = (   0.2500000   0.2500000  -0.5000000), wk =   0.0138889
        k(   69) = (   0.2500000   0.3333333   0.3333333), wk =   0.0277778
        k(   70) = (   0.2500000   0.3333333   0.4166667), wk =   0.0555556
        k(   71) = (   0.2500000   0.3333333  -0.5000000), wk =   0.0277778
        k(   72) = (   0.2500000   0.4166667   0.4166667), wk =   0.0277778
        k(   73) = (   0.2500000   0.4166667  -0.5000000), wk =   0.0277778
        k(   74) = (   0.2500000  -0.5000000  -0.5000000), wk =   0.0069444
        k(   75) = (   0.3333333   0.3333333   0.3333333), wk =   0.0092593
        k(   76) = (   0.3333333   0.3333333   0.4166667), wk =   0.0277778
        k(   77) = (   0.3333333   0.3333333  -0.5000000), wk =   0.0138889
        k(   78) = (   0.3333333   0.4166667   0.4166667), wk =   0.0277778
        k(   79) = (   0.3333333   0.4166667  -0.5000000), wk =   0.0277778
        k(   80) = (   0.3333333  -0.5000000  -0.5000000), wk =   0.0069444
        k(   81) = (   0.4166667   0.4166667   0.4166667), wk =   0.0092593
        k(   82) = (   0.4166667   0.4166667  -0.5000000), wk =   0.0138889
        k(   83) = (   0.4166667  -0.5000000  -0.5000000), wk =   0.0069444
        k(   84) = (  -0.5000000  -0.5000000  -0.5000000), wk =   0.0011574

     Dense  grid:    45025 G-vectors     FFT dimensions: (  45,  45,  45)

     Estimated max dynamical RAM per process >      36.76 MB

     Estimated total dynamical RAM >     367.55 MB

     Initial potential from superposition of free atoms

     starting charge      43.9996, renormalised to      44.0000
     Starting wfcs are   36 randomized atomic wfcs
     Checking if some PAW data can be deallocated... 

     total cpu time spent up to now is        3.6 secs

     Self-consistent Calculation

     iteration #  1     ecut=    50.00 Ry     beta= 0.70
     Davidson diagonalization with overlap
     ethr =  1.00E-02,  avg # of iterations =  2.1

     Threshold (ethr) on eigenvalues was too large:
     Diagonalizing with lowered threshold

     Davidson diagonalization with overlap
     ethr =  7.20E-04,  avg # of iterations =  2.7

     total cpu time spent up to now is        8.5 secs

     total energy              =   -3100.40132663 Ry
     estimated scf accuracy    <       0.33425006 Ry

     iteration #  2     ecut=    50.00 Ry     beta= 0.70
     Davidson diagonalization with overlap
     ethr =  7.60E-04,  avg # of iterations =  2.1

     total cpu time spent up to now is       11.5 secs

     total energy              =   -3100.52697100 Ry
     estimated scf accuracy    <       0.17467521 Ry

     iteration #  3     ecut=    50.00 Ry     beta= 0.70
     Davidson diagonalization with overlap
     ethr =  3.97E-04,  avg # of iterations =  1.6

     total cpu time spent up to now is       13.9 secs

     total energy              =   -3100.55211470 Ry
     estimated scf accuracy    <       0.00802016 Ry

     iteration #  4     ecut=    50.00 Ry     beta= 0.70
     Davidson diagonalization with overlap
     ethr =  1.82E-05,  avg # of iterations =  5.0

     total cpu time spent up to now is       19.1 secs

     total energy              =   -3100.55636470 Ry
     estimated scf accuracy    <       0.00233017 Ry

     iteration #  5     ecut=    50.00 Ry     beta= 0.70
     Davidson diagonalization with overlap
     ethr =  5.30E-06,  avg # of iterations =  6.4

     total cpu time spent up to now is       25.9 secs

     total energy              =   -3100.55034118 Ry
     estimated scf accuracy    <       0.03310186 Ry

     iteration #  6     ecut=    50.00 Ry     beta= 0.70
     Davidson diagonalization with overlap
     ethr =  5.30E-06,  avg # of iterations =  4.3

     total cpu time spent up to now is       31.2 secs

     total energy              =   -3100.55598434 Ry
     estimated scf accuracy    <       0.00034655 Ry

     iteration #  7     ecut=    50.00 Ry     beta= 0.70
     Davidson diagonalization with overlap
     ethr =  7.88E-07,  avg # of iterations =  5.9

     total cpu time spent up to now is       36.8 secs

     total energy              =   -3100.55615416 Ry
     estimated scf accuracy    <       0.00007400 Ry

     iteration #  8     ecut=    50.00 Ry     beta= 0.70
     Davidson diagonalization with overlap
     ethr =  1.68E-07,  avg # of iterations =  6.5

     total cpu time spent up to now is       43.0 secs

     total energy              =   -3100.55621242 Ry
     estimated scf accuracy    <       0.00004928 Ry

     iteration #  9     ecut=    50.00 Ry     beta= 0.70
     Davidson diagonalization with overlap
     ethr =  1.12E-07,  avg # of iterations =  3.2

     total cpu time spent up to now is       47.2 secs

     total energy              =   -3100.55625244 Ry
     estimated scf accuracy    <       0.00012166 Ry

     iteration # 10     ecut=    50.00 Ry     beta= 0.70
     Davidson diagonalization with overlap
     ethr =  1.12E-07,  avg # of iterations =  1.0

     total cpu time spent up to now is       49.3 secs

     total energy              =   -3100.55624674 Ry
     estimated scf accuracy    <       0.00006340 Ry

     iteration # 11     ecut=    50.00 Ry     beta= 0.70
     Davidson diagonalization with overlap
     ethr =  1.12E-07,  avg # of iterations =  1.0

     total cpu time spent up to now is       51.3 secs

     total energy              =   -3100.55624117 Ry
     estimated scf accuracy    <       0.00004321 Ry

     iteration # 12     ecut=    50.00 Ry     beta= 0.70
     Davidson diagonalization with overlap
     ethr =  9.82E-08,  avg # of iterations =  1.0

     total cpu time spent up to now is       53.3 secs

     total energy              =   -3100.55623579 Ry
     estimated scf accuracy    <       0.00002768 Ry

     iteration # 13     ecut=    50.00 Ry     beta= 0.70
     Davidson diagonalization with overlap
     ethr =  6.29E-08,  avg # of iterations =  1.0

     total cpu time spent up to now is       55.3 secs

     total energy              =   -3100.55623264 Ry
     estimated scf accuracy    <       0.00001280 Ry

     iteration # 14     ecut=    50.00 Ry     beta= 0.70
     Davidson diagonalization with overlap
     ethr =  2.91E-08,  avg # of iterations =  2.2

     total cpu time spent up to now is       57.6 secs

     total energy              =   -3100.55623179 Ry
     estimated scf accuracy    <       0.00000357 Ry

     iteration # 15     ecut=    50.00 Ry     beta= 0.70
     Davidson diagonalization with overlap
     ethr =  8.10E-09,  avg # of iterations =  6.2

     total cpu time spent up to now is       62.4 secs

     End of self-consistent calculation

          k = 0.0000 0.0000 0.0000 (  5575 PWs)   bands (ev):

    -0.0078   1.1380   1.1384   1.1384   1.1591   1.1591   1.1591   1.6694
     1.6694   1.6694   2.0375   2.0375   2.3274   2.3274   2.3277   2.4277
     2.4277   2.4277   2.4280   2.4280   2.4280   6.1475   6.1475   6.1478
     7.0420   7.0420

          k = 0.0000 0.0000 0.0833 (  5594 PWs)   bands (ev):

     0.0357   1.1487   1.1553   1.1556   1.1674   1.1738   1.1738   1.6602
     1.6801   1.6801   2.0283   2.0423   2.3152   2.3153   2.3224   2.3931
     2.3931   2.4119   2.4119   2.4277   2.4280   5.5158   6.1418   6.1420
     7.1181   7.1181

          k = 0.0000 0.0000 0.1667 (  5602 PWs)   bands (ev):

     0.1650   1.1784   1.1917   1.2045   1.2048   1.2176   1.2176   1.6335
     1.7117   1.7117   2.0024   2.0564   2.2792   2.2794   2.2964   2.2964
     2.3075   2.3662   2.3662   2.4277   2.4280   4.6528   6.1259   6.1261
     7.3384   7.3384

          k = 0.0000 0.0000 0.2500 (  5622 PWs)   bands (ev):

     0.3755   1.2217   1.2306   1.2790   1.2793   1.2900   1.2900   1.5912
     1.7631   1.7631   1.9659   2.0789   2.1559   2.1559   2.2229   2.2231
     2.2839   2.2956   2.2956   2.4278   2.4281   3.8453   6.1037   6.1039
     7.6830   7.6830

          k = 0.0000 0.0000 0.3333 (  5598 PWs)   bands (ev):

     0.6549   1.2666   1.2818   1.3655   1.3659   1.3896   1.3896   1.5367
     1.8322   1.8322   1.9340   1.9922   1.9922   2.1084   2.1545   2.1547
     2.2075   2.2075   2.2534   2.4279   2.4281   3.1264   6.0808   6.0810
     8.1282   8.1282

          k = 0.0000 0.0000 0.4167 (  5610 PWs)   bands (ev):

     0.9660   1.2847   1.3421   1.4416   1.4419   1.4740   1.5144   1.5144
     1.8229   1.8229   1.9162   1.9162   1.9474   2.0918   2.0919   2.1099
     2.1099   2.1430   2.2180   2.4279   2.4282   2.5265   6.0637   6.0639
     8.6523   8.6523

          k = 0.0000 0.0000-0.5000 (  5622 PWs)   bands (ev):

     1.2064   1.2068   1.4075   1.4078   1.4737   1.4740   1.6606   1.6606
     1.6607   1.6607   2.0105   2.0105   2.0106   2.0106   2.0645   2.0647
     2.1126   2.1129   2.1802   2.1805   2.4279   2.4282   6.0573   6.0575
     9.2354   9.2356

          k = 0.0000 0.0833 0.0833 (  5601 PWs)   bands (ev):

     0.0787   1.1617   1.1658   1.1661   1.1819   1.1819   1.1985   1.6587
     1.6833   1.6901   2.0262   2.0409   2.3034   2.3057   2.3058   2.3712
     2.3811   2.3814   2.4119   2.4119   2.4161   5.5443   5.5445   6.1344
     7.1932   7.7807

          k = 0.0000 0.0833 0.1667 (  5599 PWs)   bands (ev):

     0.2065   1.1932   1.1960   1.2057   1.2155   1.2252   1.2577   1.6361
     1.7114   1.7195   2.0041   2.0543   2.2422   2.2689   2.2743   2.2828
     2.3118   2.3507   2.3660   2.4106   2.4118   4.6993   5.6184   6.1129
     7.4109   7.8951

          k = 0.0000 0.0833 0.2500 (  5620 PWs)   bands (ev):

     0.4143   1.2401   1.2437   1.2526   1.2905   1.2966   1.3412   1.5956
     1.7622   1.7654   1.9720   2.0797   2.1159   2.1470   2.2146   2.2152
     2.2422   2.2952   2.3121   2.4098   2.4116   3.9044   5.7118   6.0797
     7.7520   8.0921

          k = 0.0000 0.0833 0.3333 (  5612 PWs)   bands (ev):

     0.6894   1.2862   1.2938   1.3353   1.3776   1.3949   1.4393   1.5427
     1.8154   1.8312   1.9573   1.9598   1.9873   2.1140   2.1299   2.1487
     2.1692   2.2069   2.2708   2.4098   2.4113   3.1990   5.8010   6.0379
     8.1939   8.3715

          k = 0.0000 0.0833 0.4167 (  5607 PWs)   bands (ev):

     0.9945   1.3063   1.3527   1.4261   1.4532   1.4815   1.5179   1.5417
     1.8005   1.8213   1.8468   1.9151   2.0182   2.0242   2.0894   2.1016
     2.1090   2.1574   2.2254   2.4101   2.4109   2.6205   5.8758   5.9902
     8.7150   8.7218

          k = 0.0000 0.0833-0.5000 (  5622 PWs)   bands (ev):

     1.2304   1.2307   1.4166   1.4169   1.4785   1.4788   1.6570   1.6570
     1.6619   1.6619   1.9115   1.9115   2.0095   2.0095   2.0676   2.0678
     2.1577   2.1579   2.2517   2.2517   2.4104   2.4106   5.9371   5.9373
     9.1229   9.1232

          k = 0.0000 0.1667 0.1667 (  5603 PWs)   bands (ev):

     0.3297   1.2060   1.2464   1.2467   1.2474   1.2474   1.3286   1.6313
     1.7238   1.7421   1.9965   2.0630   2.1772   2.1774   2.2259   2.2381
     2.3131   2.3131   2.3654   2.3654   2.3813   4.8265   4.8267   6.0730
     7.6216   8.8257

          k = 0.0000 0.1667 0.2500 (  5620 PWs)   bands (ev):

     0.5288   1.2478   1.2829   1.2927   1.3161   1.3231   1.4182   1.6032
     1.7652   1.7745   1.9749   2.0391   2.0933   2.0971   2.1140   2.1895
     2.2578   2.2940   2.2952   2.3645   2.3666   4.0641   5.0066   6.0042
     7.9537   8.8360

          k = 0.0000 0.1667 0.3333 (  5606 PWs)   bands (ev):

     0.7895   1.3163   1.3295   1.3427   1.4105   1.4121   1.5147   1.5578
     1.7957   1.8307   1.8872   1.9699   1.9766   1.9932   2.1305   2.1534
     2.1887   2.2051   2.2599   2.3617   2.3633   3.3851   5.2106   5.9040
     8.3864   8.8529

          k = 0.0000 0.1667 0.4167 (  5609 PWs)   bands (ev):

     1.0749   1.3684   1.3841   1.4049   1.4862   1.5027   1.5281   1.5983
     1.7471   1.7872   1.8155   1.8835   1.9132   2.0411   2.0801   2.1068
     2.1177   2.2078   2.2461   2.3606   2.3621   2.8276   5.4159   5.7709
     8.8952   8.8993

          k = 0.0000 0.1667-0.5000 (  5606 PWs)   bands (ev):

     1.2972   1.2976   1.4431   1.4434   1.4867   1.4869   1.6561   1.6562
     1.6651   1.6651   1.8000   1.8001   2.0072   2.0072   2.0717   2.0719
     2.1344   2.1346   2.3609   2.3612   2.4427   2.4428   5.6062   5.6064
     8.9949   8.9952

          k = 0.0000 0.2500 0.2500 (  5574 PWs)   bands (ev):

     0.7112   1.2702   1.3472   1.3472   1.3725   1.3728   1.5090   1.5989
     1.7878   1.7906   1.9462   1.9465   1.9589   2.0427   2.1489   2.1533
     2.2518   2.2519   2.2922   2.2922   2.3252   4.2910   4.2912   5.8704
     8.2737   9.4385

          k = 0.0000 0.2500 0.3333 (  5594 PWs)   bands (ev):

     0.9438   1.3196   1.3876   1.4289   1.4349   1.4660   1.5737   1.6007
     1.7948   1.7988   1.8395   1.8445   1.9326   1.9565   2.0989   2.1901
     2.2026   2.2221   2.2505   2.2902   2.3016   3.6390   4.5582   5.6746
     8.6937   9.1313

          k = 0.0000 0.2500 0.4167 (  5610 PWs)   bands (ev):

     1.1904   1.3939   1.4347   1.4618   1.5329   1.5351   1.5435   1.6682
     1.6850   1.7505   1.7613   1.8018   1.9150   2.0090   2.0593   2.1044
     2.1206   2.1682   2.2886   2.2915   2.4071   3.0881   4.8471   5.4253
     8.9937   9.1409

          k = 0.0000 0.2500-0.5000 (  5590 PWs)   bands (ev):

     1.3885   1.3887   1.4845   1.4848   1.4852   1.4854   1.6682   1.6682
     1.6784   1.6785   1.7231   1.7232   2.0059   2.0059   2.0656   2.0657
     2.0921   2.0924   2.2883   2.2886   2.6731   2.6732   5.1420   5.1422
     9.0074   9.0077

          k = 0.0000 0.3333 0.3333 (  5610 PWs)   bands (ev):

     1.1291   1.3466   1.4662   1.4662   1.5317   1.5320   1.5777   1.6857
     1.7055   1.7058   1.8068   1.8666   1.8703   1.9274   2.0570   2.1655
     2.1657   2.2006   2.2006   2.2507   2.4013   3.9371   3.9373   5.3627
     8.9719   9.1001

          k = 0.0000 0.3333 0.4167 (  5604 PWs)   bands (ev):

     1.3104   1.3981   1.5012   1.5615   1.5618   1.5636   1.5685   1.6496
     1.6528   1.7436   1.7737   1.7792   1.9290   1.9564   2.0232   2.0987
     2.1039   2.1127   2.2005   2.2197   2.6231   3.3909   4.2699   5.0021
     8.9932   9.4581

          k = 0.0000 0.3333-0.5000 (  5616 PWs)   bands (ev):

     1.4596   1.4597   1.4740   1.4740   1.5355   1.5357   1.6673   1.6673
     1.7112   1.7113   1.7289   1.7291   2.0101   2.0101   2.0357   2.0359
     2.0388   2.0389   2.2051   2.2054   2.9481   2.9481   4.6292   4.6294
     9.1650   9.1652

          k = 0.0000 0.4167 0.4167 (  5614 PWs)   bands (ev):

     1.4049   1.4210   1.5292   1.5295   1.5781   1.5782   1.5839   1.7062
     1.7065   1.7251   1.8060   1.8209   1.9153   1.9648   1.9807   2.0471
     2.0473   2.1092   2.1092   2.1619   2.9081   3.7371   3.7373   4.5564
     9.1537   9.8527

          k = 0.0000 0.4167-0.5000 (  5612 PWs)   bands (ev):

     1.4648   1.4648   1.4726   1.4727   1.5877   1.5879   1.6567   1.6568
     1.7797   1.7799   1.7947   1.7949   1.9711   1.9713   1.9868   1.9868
     2.0268   2.0269   2.1260   2.1262   3.2786   3.2786   4.1278   4.1280
     9.4468   9.4470

          k = 0.0000-0.5000-0.5000 (  5656 PWs)   bands (ev):

     1.4652   1.4652   1.4655   1.4655   1.6304   1.6306   1.6306   1.6307
     1.8421   1.8426   1.8426   1.8427   1.9319   1.9319   1.9322   1.9322
     2.0643   2.0644   2.0644   2.0645   3.6723   3.6723   3.6724   3.6726
     9.8378   9.8380

          k = 0.0833 0.0833 0.0833 (  5596 PWs)   bands (ev):

     0.1212   1.1710   1.1713   1.1713   1.2075   1.2077   1.2077   1.6589
     1.6923   1.6923   2.0323   2.0323   2.2927   2.2927   2.2929   2.3535
     2.3535   2.3537   2.4067   2.4069   2.4069   5.5705   5.5705   5.5707
     7.8159   7.8159

          k = 0.0833 0.0833 0.1667 (  5615 PWs)   bands (ev):

     0.2473   1.1976   1.2017   1.2018   1.2347   1.2673   1.2674   1.6407
     1.7176   1.7190   2.0089   2.0500   2.2358   2.2359   2.2604   2.2870
     2.2870   2.3024   2.3815   2.4017   2.4019   4.7442   5.6375   5.6376
     7.9232   7.9232

          k = 0.0833 0.0833 0.2500 (  5619 PWs)   bands (ev):

     0.4518   1.2361   1.2603   1.2605   1.2779   1.3508   1.3509   1.6028
     1.7626   1.7644   1.9809   2.0783   2.1105   2.1105   2.2071   2.2217
     2.2258   2.2259   2.3449   2.3985   2.3987   3.9609   5.7188   5.7190
     8.1040   8.1040

          k = 0.0833 0.0833 0.3333 (  5612 PWs)   bands (ev):

     0.7211   1.2797   1.3304   1.3428   1.3429   1.4475   1.4477   1.5526
     1.8081   1.8214   1.9575   1.9575   1.9829   2.1154   2.1165   2.1368
     2.1584   2.1586   2.3017   2.3967   2.3969   3.2652   5.7891   5.7893
     8.3476   8.3477

          k = 0.0833 0.0833 0.4167 (  5614 PWs)   bands (ev):

     1.0174   1.3072   1.3823   1.4350   1.4352   1.4950   1.5436   1.5436
     1.8042   1.8042   1.8237   1.8926   1.9921   2.0562   2.0767   2.0954
     2.0956   2.1589   2.2547   2.3958   2.3961   2.6930   5.8339   5.8342
     8.6085   8.6087

          k = 0.0833 0.0833-0.5000 (  5606 PWs)   bands (ev):

     1.2429   1.2432   1.4360   1.4363   1.4845   1.4848   1.6173   1.6173
     1.6992   1.6992   1.8742   1.8743   1.9726   1.9726   2.0672   2.0674
     2.2061   2.2064   2.2950   2.2952   2.3955   2.3958   5.8490   5.8492
     8.7467   8.7470

          k = 0.0833 0.1667 0.1667 (  5612 PWs)   bands (ev):

     0.3677   1.2132   1.2255   1.2256   1.2959   1.2961   1.3387   1.6416
     1.7270   1.7390   2.0071   2.0556   2.1734   2.1736   2.2061   2.2188
     2.2616   2.2617   2.3799   2.3799   2.3836   4.8669   4.8671   5.6832
     8.0054   8.7908

          k = 0.0833 0.1667 0.2500 (  5619 PWs)   bands (ev):

     0.5614   1.2536   1.2601   1.2818   1.3419   1.3798   1.4279   1.6191
     1.7624   1.7711   1.9907   2.0367   2.0884   2.0901   2.0908   2.1789
     2.2030   2.2217   2.3499   2.3688   2.3705   4.1152   5.0406   5.7267
     8.1307   8.7415

          k = 0.0833 0.1667 0.3333 (  5609 PWs)   bands (ev):

     0.8121   1.2985   1.3209   1.3629   1.3988   1.4733   1.5216   1.5799
     1.7922   1.8144   1.8900   1.9484   1.9878   2.0105   2.1233   2.1263
     2.1463   2.1649   2.3107   2.3597   2.3622   3.4404   5.2351   5.7360
     8.2695   8.6603

          k = 0.0833 0.1667 0.4167 (  5616 PWs)   bands (ev):

     1.0798   1.3237   1.4093   1.4536   1.4589   1.5350   1.5481   1.5915
     1.7666   1.7800   1.8143   1.8739   1.8781   2.0366   2.0757   2.1019
     2.1033   2.2402   2.2607   2.3555   2.3570   2.8776   5.4234   5.6892
     8.3833   8.5628

          k = 0.0833 0.1667-0.5000 (  5612 PWs)   bands (ev):

     1.2750   1.2753   1.4941   1.4944   1.4945   1.4947   1.5833   1.5833
     1.7359   1.7360   1.7891   1.7892   1.9529   1.9530   2.0619   2.0620
     2.1968   2.1970   2.3547   2.3550   2.4668   2.4669   5.5813   5.5815
     8.4713   8.4716

          k = 0.0833 0.2500 0.2500 (  5610 PWs)   bands (ev):

     0.7339   1.2739   1.3118   1.3119   1.4272   1.4274   1.5168   1.6269
     1.7773   1.7880   1.9462   1.9464   1.9813   2.0272   2.1235   2.1453
     2.1809   2.1810   2.3355   2.3355   2.3377   4.3369   4.3371   5.6997
     8.1527   9.3642

          k = 0.0833 0.2500 0.3333 (  5606 PWs)   bands (ev):

     0.9486   1.3207   1.3428   1.3879   1.4888   1.5178   1.6016   1.6141
     1.7953   1.8095   1.8148   1.8468   1.9254   1.9954   2.0775   2.1098
     2.1425   2.2427   2.2939   2.3141   2.3165   3.6872   4.5996   5.5999
     8.1770   9.0185

          k = 0.0833 0.2500 0.4167 (  5609 PWs)   bands (ev):

     1.1642   1.3590   1.3921   1.4827   1.5516   1.5556   1.5933   1.6411
     1.7365   1.7529   1.7608   1.8297   1.8704   2.0254   2.0402   2.0716
     2.0894   2.2385   2.3007   2.3028   2.4071   3.1288   4.8822   5.4141
     8.2557   8.6909

          k = 0.0833 0.2500-0.5000 (  5606 PWs)   bands (ev):

     1.3153   1.3156   1.4816   1.4816   1.5824   1.5827   1.5835   1.5836
     1.7197   1.7197   1.7730   1.7731   1.9422   1.9423   2.0427   2.0428
     2.1639   2.1640   2.2973   2.2975   2.6945   2.6946   5.1632   5.1634
     8.4276   8.4278

          k = 0.0833 0.3333 0.3333 (  5603 PWs)   bands (ev):

     1.1050   1.3432   1.4074   1.4074   1.5795   1.5797   1.6344   1.6683
     1.7301   1.7303   1.8214   1.8261   1.8846   1.9807   2.0273   2.0865
     2.0866   2.2659   2.2659   2.2723   2.3973   3.9822   3.9824   5.3566
     8.1733   9.4248

          k = 0.0833 0.3333 0.4167 (  5600 PWs)   bands (ev):

     1.2487   1.3883   1.4041   1.4742   1.5787   1.6354   1.6492   1.6716
     1.6731   1.7380   1.7975   1.8540   1.8692   1.9930   2.0110   2.0329
     2.0491   2.2038   2.2416   2.2431   2.6303   3.4300   4.3137   5.0303
     8.3116   8.9617

          k = 0.0833 0.3333-0.5000 (  5614 PWs)   bands (ev):

     1.3533   1.3534   1.4507   1.4508   1.6085   1.6086   1.6368   1.6369
     1.7318   1.7318   1.8143   1.8144   1.9338   1.9339   2.0052   2.0052
     2.1232   2.1233   2.2324   2.2326   2.9727   2.9727   4.6699   4.6701
     8.5824   8.5827

          k = 0.0833 0.4167 0.4167 (  5622 PWs)   bands (ev):

     1.3209   1.3998   1.4340   1.4341   1.6096   1.6096   1.6432   1.6661
     1.7734   1.7736   1.8575   1.8738   1.8875   1.9467   1.9890   1.9891
     2.0283   2.1723   2.1723   2.1927   2.9265   3.7782   3.7784   4.5987
     8.5335   9.3455

          k = 0.0833 0.4167-0.5000 (  5620 PWs)   bands (ev):

     1.3815   1.3816   1.4228   1.4228   1.6291   1.6293   1.6327   1.6328
     1.8251   1.8252   1.8600   1.8601   1.9264   1.9266   1.9558   1.9558
     2.0928   2.0928   2.1650   2.1652   3.3099   3.3099   4.1716   4.1718
     8.8861   8.8864

          k = 0.0833-0.5000-0.5000 (  5612 PWs)   bands (ev):

     1.4015   1.4015   1.4017   1.4018   1.6345   1.6346   1.6346   1.6348
     1.8907   1.8907   1.8909   1.8910   1.9123   1.9126   1.9126   1.9127
     2.1070   2.1071   2.1071   2.1073   3.7112   3.7112   3.7113   3.7116
     9.3065   9.3066

          k = 0.1667 0.1667 0.1667 (  5617 PWs)   bands (ev):

     0.4792   1.2330   1.2332   1.2332   1.3685   1.3688   1.3688   1.6636
     1.7379   1.7379   2.0371   2.0371   2.1490   2.1490   2.1492   2.1699
     2.1699   2.1700   2.3828   2.3829   2.3829   4.9776   4.9776   4.9779
     8.6750   8.6752

          k = 0.1667 0.1667 0.2500 (  5613 PWs)   bands (ev):

     0.6553   1.2608   1.2691   1.2692   1.4173   1.4567   1.4569   1.6640
     1.7588   1.7651   2.0255   2.0261   2.0261   2.0607   2.0821   2.1050
     2.1412   2.1413   2.3702   2.3710   2.3712   4.2575   5.1317   5.1319
     8.4725   8.4728

          k = 0.1667 0.1667 0.3333 (  5624 PWs)   bands (ev):

     0.8750   1.2879   1.3317   1.3319   1.4804   1.5420   1.5422   1.6429
     1.7862   1.7919   1.8981   1.8981   1.9501   2.0333   2.0779   2.1037
     2.1037   2.1364   2.3429   2.3548   2.3549   3.5953   5.2935   5.2937
     8.2281   8.2284

          k = 0.1667 0.1667 0.4167 (  5616 PWs)   bands (ev):

     1.0953   1.2971   1.4165   1.4166   1.5491   1.5757   1.5759   1.6229
     1.7625   1.8162   1.8162   1.8337   1.8376   1.9615   2.0576   2.0576
     2.1946   2.2566   2.3023   2.3425   2.3427   3.0246   5.4206   5.4208
     8.0277   8.0280

          k = 0.1667 0.1667-0.5000 (  5608 PWs)   bands (ev):

     1.2474   1.2477   1.5067   1.5068   1.5172   1.5174   1.6025   1.6028
     1.7554   1.7555   1.8068   1.8068   1.8949   1.8950   2.0321   2.0322
     2.2514   2.2516   2.3381   2.3383   2.5723   2.5723   5.4699   5.4701
     7.9501   7.9504

          k = 0.1667 0.2500 0.2500 (  5610 PWs)   bands (ev):

     0.7977   1.2822   1.2885   1.2886   1.5041   1.5043   1.5400   1.7079
     1.7591   1.7861   1.9445   1.9447   1.9853   2.0345   2.0654   2.0795
     2.0796   2.1231   2.3582   2.3646   2.3646   4.4665   4.4667   5.2485
     8.1118   8.8539

          k = 0.1667 0.2500 0.3333 (  5613 PWs)   bands (ev):

     0.9645   1.3016   1.3200   1.3403   1.5675   1.5750   1.6046   1.7071
     1.7773   1.8222   1.8428   1.8563   1.9100   2.0060   2.0273   2.0563
     2.0753   2.2199   2.3374   2.3432   2.3449   3.8267   4.7157   5.3382
     7.7932   8.3834

          k = 0.1667 0.2500 0.4167 (  5628 PWs)   bands (ev):

     1.1217   1.2919   1.3786   1.4073   1.5700   1.6016   1.6410   1.7020
     1.7760   1.7842   1.8197   1.8282   1.8799   1.9325   1.9945   2.0220
     2.1726   2.3049   2.3192   2.3239   2.4215   3.2542   4.9750   5.3341
     7.6392   7.9810

          k = 0.1667 0.2500-0.5000 (  5620 PWs)   bands (ev):

     1.2360   1.2362   1.4370   1.4370   1.5487   1.5490   1.7092   1.7093
     1.7304   1.7307   1.8679   1.8680   1.8708   1.8709   1.9869   1.9869
     2.2491   2.2493   2.3134   2.3136   2.7763   2.7763   5.2010   5.2013
     7.7110   7.7112

          k = 0.1667 0.3333 0.3333 (  5627 PWs)   bands (ev):

     1.0637   1.3276   1.3337   1.3338   1.6149   1.6150   1.6371   1.7137
     1.7746   1.8043   1.8043   1.9201   1.9250   1.9643   1.9937   1.9938
     2.0589   2.3115   2.3227   2.3227   2.3897   4.1142   4.1144   5.2891
     7.5297   8.6910

          k = 0.1667 0.3333 0.4167 (  5615 PWs)   bands (ev):

     1.1587   1.3011   1.3510   1.3689   1.5898   1.6203   1.6506   1.6982
     1.7906   1.7990   1.8452   1.9263   1.9292   1.9328   1.9455   1.9812
     2.1309   2.2819   2.2864   2.2952   2.6644   3.5503   4.4408   5.0904
     7.5303   8.1737

          k = 0.1667 0.3333-0.5000 (  5614 PWs)   bands (ev):

     1.2404   1.2406   1.3754   1.3754   1.5852   1.5854   1.6765   1.6766
     1.8084   1.8085   1.8983   1.8983   1.9023   1.9025   1.9652   1.9653
     2.2184   2.2185   2.2785   2.2787   3.0581   3.0581   4.7821   4.7823
     7.7691   7.7694

          k = 0.1667 0.4167 0.4167 (  5614 PWs)   bands (ev):

     1.2046   1.3145   1.3146   1.3345   1.6236   1.6236   1.6248   1.6831
     1.7909   1.8415   1.8417   1.8808   1.9705   1.9705   1.9984   2.0218
     2.1113   2.2490   2.2490   2.2492   2.9939   3.9031   3.9033   4.7170
     7.6923   8.5294

          k = 0.1667 0.4167-0.5000 (  5628 PWs)   bands (ev):

     1.2576   1.2577   1.3248   1.3248   1.6188   1.6190   1.6575   1.6575
     1.8124   1.8124   1.8569   1.8569   2.0014   2.0017   2.0112   2.0113
     2.1809   2.1810   2.2301   2.2302   3.4116   3.4117   4.3012   4.3013
     8.0448   8.0450

          k = 0.1667-0.5000-0.5000 (  5628 PWs)   bands (ev):

     1.2857   1.2857   1.2857   1.2859   1.6425   1.6427   1.6427   1.6428
     1.8229   1.8229   1.8231   1.8232   2.0462   2.0464   2.0464   2.0465
     2.1790   2.1790   2.1790   2.1792   3.8315   3.8315   3.8315   3.8318
     8.4690   8.4691

          k = 0.2500 0.2500 0.2500 (  5614 PWs)   bands (ev):

     0.8898   1.2877   1.2878   1.2878   1.5768   1.5771   1.5771   1.7488
     1.7488   1.8773   1.9297   1.9297   1.9298   1.9958   1.9958   1.9959
     2.1006   2.1006   2.3680   2.3681   2.3681   4.6585   4.6585   4.6588
     8.2748   8.2750

          k = 0.2500 0.2500 0.3333 (  5630 PWs)   bands (ev):

     0.9940   1.2795   1.3075   1.3075   1.6117   1.6118   1.6224   1.7341
     1.7531   1.8804   1.8965   1.8966   1.9261   1.9683   1.9712   1.9713
     2.1699   2.2038   2.3533   2.3533   2.3607   4.0445   4.8806   4.8807
     7.7464   7.7467

          k = 0.2500 0.2500 0.4167 (  5629 PWs)   bands (ev):

     1.0955   1.2460   1.3388   1.3389   1.5889   1.5891   1.6647   1.7147
     1.7739   1.8613   1.8629   1.9031   1.9032   1.9325   1.9665   1.9665
     2.2354   2.3323   2.3324   2.3348   2.5235   3.4657   5.0784   5.0786
     7.3561   7.3563

          k = 0.2500 0.2500-0.5000 (  5632 PWs)   bands (ev):

     1.1828   1.1830   1.3572   1.3572   1.5660   1.5662   1.6936   1.6937
     1.8110   1.8112   1.8844   1.8846   1.9168   1.9168   1.9641   1.9642
     2.2918   2.2920   2.3221   2.3222   2.9524   2.9524   5.1638   5.1640
     7.2053   7.2055

          k = 0.2500 0.3333 0.3333 (  5637 PWs)   bands (ev):

     1.0375   1.2739   1.2739   1.2899   1.6207   1.6269   1.6269   1.7282
     1.7376   1.8693   1.8693   1.8944   1.9475   1.9476   1.9739   2.1214
     2.1383   2.3430   2.3526   2.3526   2.4148   4.3225   4.3227   5.0393
     7.2326   7.9575

          k = 0.2500 0.3333 0.4167 (  5643 PWs)   bands (ev):

     1.0931   1.2203   1.2776   1.2839   1.6051   1.6079   1.6505   1.7059
     1.7475   1.8202   1.8527   1.8601   1.9731   2.0122   2.0302   2.0758
     2.2256   2.3233   2.3307   2.3318   2.7761   3.7566   4.6347   5.0840
     6.9703   7.4241

          k = 0.2500 0.3333-0.5000 (  5640 PWs)   bands (ev):

     1.1565   1.1567   1.2818   1.2819   1.5960   1.5962   1.6784   1.6784
     1.7764   1.7765   1.8493   1.8494   2.0204   2.0206   2.0484   2.0485
     2.2897   2.2898   2.3149   2.3149   3.2322   3.2322   4.9250   4.9252
     7.0573   7.0575

          k = 0.2500 0.4167 0.4167 (  5630 PWs)   bands (ev):

     1.1142   1.2124   1.2124   1.2444   1.6211   1.6349   1.6349   1.6935
     1.7376   1.7981   1.7982   1.8135   2.0704   2.0705   2.1001   2.1783
     2.1899   2.3004   2.3080   2.3080   3.1464   4.1128   4.1129   4.8736
     6.9530   7.7330

          k = 0.2500 0.4167-0.5000 (  5632 PWs)   bands (ev):

     1.1554   1.1556   1.2206   1.2207   1.6273   1.6275   1.6671   1.6672
     1.7570   1.7571   1.7939   1.7939   2.1229   2.1230   2.1290   2.1292
     2.2606   2.2607   2.2874   2.2875   3.6016   3.6018   4.5070   4.5072
     7.2493   7.2495

          k = 0.2500-0.5000-0.5000 (  5644 PWs)   bands (ev):

     1.1775   1.1775   1.1776   1.1777   1.6525   1.6526   1.6526   1.6528
     1.7608   1.7608   1.7609   1.7610   2.1741   2.1742   2.1742   2.1744
     2.2468   2.2468   2.2468   2.2470   4.0391   4.0391   4.0391   4.0394
     7.6544   7.6545

          k = 0.3333 0.3333 0.3333 (  5644 PWs)   bands (ev):

     1.0360   1.2312   1.2312   1.2312   1.6271   1.6273   1.6273   1.7185
     1.7185   1.8295   1.8295   1.8296   2.0275   2.0275   2.0275   2.2121
     2.2121   2.3570   2.3570   2.3570   2.6334   4.5851   4.5851   4.5853
     7.3052   7.3054

          k = 0.3333 0.3333 0.4167 (  5647 PWs)   bands (ev):

     1.0595   1.1649   1.2060   1.2061   1.6214   1.6216   1.6485   1.6994
     1.7188   1.7762   1.7973   1.7974   2.0837   2.1067   2.1068   2.1884
     2.2749   2.3434   2.3434   2.3502   3.0318   4.0456   4.8477   4.8478
     6.8046   6.8049

          k = 0.3333 0.3333-0.5000 (  5642 PWs)   bands (ev):

     1.1044   1.1046   1.1977   1.1978   1.6178   1.6180   1.6747   1.6747
     1.7383   1.7385   1.7873   1.7874   2.1394   2.1395   2.1407   2.1408
     2.3221   2.3222   2.3322   2.3323   3.5133   3.5134   4.9755   4.9757
     6.5969   6.5971

          k = 0.3333 0.4167 0.4167 (  5636 PWs)   bands (ev):

     1.0574   1.1359   1.1360   1.1574   1.6348   1.6455   1.6455   1.6929
     1.7017   1.7474   1.7475   1.7559   2.1739   2.1740   2.1858   2.2577
     2.2766   2.3355   2.3420   2.3420   3.4196   4.3971   4.3972   4.9421
     6.4650   7.0183

          k = 0.3333 0.4167-0.5000 (  5640 PWs)   bands (ev):

     1.0842   1.0843   1.1335   1.1336   1.6420   1.6422   1.6712   1.6712
     1.7144   1.7146   1.7394   1.7394   2.2180   2.2181   2.2291   2.2292
     2.3171   2.3173   2.3266   2.3267   3.8908   3.8910   4.7504   4.7506
     6.5767   6.5769

          k = 0.3333-0.5000-0.5000 (  5644 PWs)   bands (ev):

     1.0946   1.0946   1.0946   1.0948   1.6622   1.6623   1.6623   1.6625
     1.7126   1.7126   1.7127   1.7128   2.2705   2.2706   2.2706   2.2707
     2.3007   2.3007   2.3007   2.3009   4.3296   4.3296   4.3296   4.3299
     6.9198   6.9199

          k = 0.4167 0.4167 0.4167 (  5658 PWs)   bands (ev):

     1.0353   1.0888   1.0888   1.0889   1.6537   1.6539   1.6539   1.6853
     1.6853   1.7134   1.7134   1.7134   2.2523   2.2524   2.2524   2.3093
     2.3093   2.3496   2.3497   2.3497   3.8065   4.7094   4.7094   4.7097
     6.4453   6.4455

          k = 0.4167 0.4167-0.5000 (  5648 PWs)   bands (ev):

     1.0466   1.0467   1.0729   1.0730   1.6572   1.6574   1.6717   1.6717
     1.6892   1.6894   1.7011   1.7011   2.2879   2.2881   2.2960   2.2961
     2.3407   2.3408   2.3430   2.3431   4.2646   4.2648   4.8802   4.8804
     6.1875   6.1877

          k = 0.4167-0.5000-0.5000 (  5620 PWs)   bands (ev):

     1.0431   1.0431   1.0431   1.0433   1.6693   1.6694   1.6694   1.6696
     1.6823   1.6823   1.6824   1.6825   2.3281   2.3281   2.3281   2.3283
     2.3351   2.3351   2.3352   2.3353   4.6609   4.6609   4.6609   4.6612
     6.3207   6.3209

          k =-0.5000-0.5000-0.5000 (  5616 PWs)   bands (ev):

     1.0257   1.0257   1.0257   1.0259   1.6719   1.6719   1.6719   1.6720
     1.6720   1.6720   1.6722   1.6722   2.3470   2.3470   2.3470   2.3470
     2.3470   2.3470   2.3472   2.3472   4.8517   4.8517   4.8517   4.8521
     6.0406   6.0409

     the Fermi energy is     5.1651 ev

!    total energy              =   -3100.55623418 Ry

     total all-electron energy =   -152095.940598 Ry
     estimated scf accuracy    <       0.00000030 Ry
     smearing contrib. (-TS)   =      -0.91908293 Ry
     internal energy E=F+TS    =   -3099.63715125 Ry

     The total energy is F=E-TS. E is the sum of the following terms:
     one-electron contribution =     -35.24709301 Ry
     hartree contribution      =      59.03681411 Ry
     xc contribution           =    -127.03428969 Ry
     ewald contribution        =    -226.46886237 Ry
     one-center paw contrib.   =   -2769.92372029 Ry

     convergence has been achieved in  15 iterations

     Forces acting on atoms (cartesian axes, Ry/au):

     atom    1 type  1   force =     0.00000000    0.00000000    0.00000000
     atom    2 type  1   force =     0.00000000    0.00000000    0.00000000
     atom    3 type  1   force =     0.00000000    0.00000000    0.00000000
     atom    4 type  1   force =     0.00000000    0.00000000    0.00000000

     Total force =     0.000000     Total SCF correction =     0.000000

     Writing all to output data dir ./pwscf.save/
 
     init_run     :      1.28s CPU      2.17s WALL (       1 calls)
     electrons    :     57.30s CPU     58.88s WALL (       1 calls)
     forces       :      0.23s CPU      0.30s WALL (       1 calls)

     Called by init_run:
     wfcinit      :      0.91s CPU      0.93s WALL (       1 calls)
     potinit      :      0.05s CPU      0.53s WALL (       1 calls)
     hinit0       :      0.12s CPU      0.40s WALL (       1 calls)

     Called by electrons:
     c_bands      :     50.47s CPU     51.08s WALL (      16 calls)
     sum_band     :      5.48s CPU      5.65s WALL (      16 calls)
     v_of_rho     :      0.14s CPU      1.38s WALL (      16 calls)
     newd         :      0.40s CPU      0.41s WALL (      16 calls)
     PAW_pot      :      0.94s CPU      0.96s WALL (      16 calls)
     mix_rho      :      0.01s CPU      0.01s WALL (      16 calls)

     Called by c_bands:
     init_us_2    :      0.32s CPU      0.32s WALL (    2856 calls)
     init_us_2:cp :      0.31s CPU      0.32s WALL (    2856 calls)
     cegterg      :     48.14s CPU     48.72s WALL (    1344 calls)

     Called by *egterg:
     cdiaghg      :      7.81s CPU      7.89s WALL (    5644 calls)
     h_psi        :     30.60s CPU     31.02s WALL (    5812 calls)
     s_psi        :      1.22s CPU      1.23s WALL (    5812 calls)
     g_psi        :      0.11s CPU      0.12s WALL (    4384 calls)

     Called by h_psi:
     h_psi:calbec :      2.21s CPU      2.25s WALL (    5812 calls)
     vloc_psi     :     27.10s CPU     27.47s WALL (    5812 calls)
     add_vuspsi   :      1.21s CPU      1.23s WALL (    5812 calls)

     General routines
     calbec       :      2.96s CPU      3.00s WALL (    7492 calls)
     fft          :      0.46s CPU      2.03s WALL (     188 calls)
     ffts         :      0.00s CPU      0.06s WALL (      16 calls)
     fftw         :     29.94s CPU     30.36s WALL (  259680 calls)
 
     Parallel routines
 
     PWSCF        :   1m 1.14s CPU   1m 5.58s WALL

 
   This run was terminated on:  12:36:57   5Apr2024            

=------------------------------------------------------------------------------=
   JOB DONE.
=------------------------------------------------------------------------------=
