MPI startup(): Warning: I_MPI_PMI_LIBRARY will be ignored since the hydra process manager was found
MPI startup(): Warning: I_MPI_PMI_LIBRARY will be ignored since the hydra process manager was found
MPI startup(): Warning: I_MPI_PMI_LIBRARY will be ignored since the hydra process manager was found
MPI startup(): Warning: I_MPI_PMI_LIBRARY will be ignored since the hydra process manager was found
MPI startup(): Warning: I_MPI_PMI_LIBRARY will be ignored since the hydra process manager was found
MPI startup(): Warning: I_MPI_PMI_LIBRARY will be ignored since the hydra process manager was found
MPI startup(): Warning: I_MPI_PMI_LIBRARY will be ignored since the hydra process manager was found
MPI startup(): Warning: I_MPI_PMI_LIBRARY will be ignored since the hydra process manager was found
MPI startup(): Warning: I_MPI_PMI_LIBRARY will be ignored since the hydra process manager was found
MPI startup(): Warning: I_MPI_PMI_LIBRARY will be ignored since the hydra process manager was found

     Program PWSCF v.7.0 starts on  5Apr2024 at 12:35:51 

     This program is part of the open-source Quantum ESPRESSO suite
     for quantum simulation of materials; please cite
         "P. Giannozzi et al., J. Phys.:Condens. Matter 21 395502 (2009);
         "P. Giannozzi et al., J. Phys.:Condens. Matter 29 465901 (2017);
         "P. Giannozzi et al., J. Chem. Phys. 152 154105 (2020);
          URL http://www.quantum-espresso.org", 
     in publications or presentations arising from this work. More details at
     http://www.quantum-espresso.org/quote

     Parallel version (MPI), running on    10 processors

     MPI processes distributed on     1 nodes
     R & G space division:  proc/nbgrp/npool/nimage =      10
     204186 MiB available memory on the printing compute node when the environment starts
 
     Reading input from VolumeFCC_5.in
Warning: card &CELL ignored
Warning: card / ignored

     Current dimensions of program PWSCF are:
     Max number of different atomic species (ntypx) = 10
     Max number of k-points (npk) =  40000
     Max angular momentum in pseudopotentials (lmaxx) =  4
     file Au.pbe-n-kjpaw_psl.1.0.0.UPF: wavefunction(s)  6S 5D renormalized
     Found identity + ( -0.5000 -0.5000  0.0000) symmetry
     This is a supercell, fractional translations are disabled
     Message from routine setup:
     using ibrav=0 with symmetry is DISCOURAGED, use correct ibrav instead

     Subspace diagonalization in iterative solution of the eigenvalue problem:
     one sub-group per band group will be used
     scalapack distributed-memory algorithm (size of sub-group:  3*  3 procs)

 
     Parallelization info
     --------------------
     sticks:   dense  smooth     PW     G-vecs:    dense   smooth      PW
     Min          40      40     13                  602      602     117
     Max          41      41     14                  605      605     120
     Sum         401     401    137                 6031     6031    1189
 
     Using Slab Decomposition
 


     bravais-lattice index     =            0
     lattice parameter (alat)  =       4.9993  a.u.
     unit-cell volume          =     124.9457 (a.u.)^3
     number of atoms/cell      =            4
     number of atomic types    =            1
     number of electrons       =        44.00
     number of Kohn-Sham states=           26
     kinetic-energy cutoff     =      50.0000  Ry
     charge density cutoff     =     200.0000  Ry
     scf convergence threshold =      1.0E-06
     mixing beta               =       0.7000
     number of iterations used =            8  plain     mixing
     Exchange-correlation= SLA  PW   PBX  PBC
                           (   1   4   3   4   0   0   0)

     celldm(1)=   4.999275  celldm(2)=   0.000000  celldm(3)=   0.000000
     celldm(4)=   0.000000  celldm(5)=   0.000000  celldm(6)=   0.000000

     crystal axes: (cart. coord. in units of alat)
               a(1) = (   1.000000   0.000000   0.000000 )  
               a(2) = (   0.000000   1.000000   0.000000 )  
               a(3) = (   0.000000   0.000000   1.000000 )  

     reciprocal axes: (cart. coord. in units 2 pi/alat)
               b(1) = (  1.000000  0.000000  0.000000 )  
               b(2) = (  0.000000  1.000000  0.000000 )  
               b(3) = (  0.000000  0.000000  1.000000 )  


     PseudoPot. # 1 for Au read from file:
     ./Au.pbe-n-kjpaw_psl.1.0.0.UPF
     MD5 check sum: 4db85c736373c707a97ce4c36c2a9d23
     Pseudo is Projector augmented-wave + core cor, Zval = 11.0
     Generated using &quot;atomic&quot; code by A. Dal Corso  v.6.3
     Shape of augmentation charge: PSQ
     Using radial grid of 1279 points,  6 beta functions with: 
                l(1) =   0
                l(2) =   0
                l(3) =   1
                l(4) =   1
                l(5) =   2
                l(6) =   2
     Q(r) pseudized with 0 coefficients 


     atomic species   valence    mass     pseudopotential
        Au            11.00   196.96657     Au( 1.00)

     48 Sym. Ops., with inversion, found



   Cartesian axes

     site n.     atom                  positions (alat units)
         1           Au  tau(   1) = (   0.0000000   0.0000000   0.0000000  )
         2           Au  tau(   2) = (   0.5000000   0.5000000   0.0000000  )
         3           Au  tau(   3) = (   0.5000000   0.0000000   0.5000000  )
         4           Au  tau(   4) = (   0.0000000   0.5000000   0.5000000  )

     number of k points=    84  Gaussian smearing, width (Ry)=  0.2000
                       cart. coord. in units 2pi/alat
        k(    1) = (   0.0000000   0.0000000   0.0000000), wk =   0.0011574
        k(    2) = (   0.0000000   0.0000000   0.0833333), wk =   0.0069444
        k(    3) = (   0.0000000   0.0000000   0.1666667), wk =   0.0069444
        k(    4) = (   0.0000000   0.0000000   0.2500000), wk =   0.0069444
        k(    5) = (   0.0000000   0.0000000   0.3333333), wk =   0.0069444
        k(    6) = (   0.0000000   0.0000000   0.4166667), wk =   0.0069444
        k(    7) = (   0.0000000   0.0000000  -0.5000000), wk =   0.0034722
        k(    8) = (   0.0000000   0.0833333   0.0833333), wk =   0.0138889
        k(    9) = (   0.0000000   0.0833333   0.1666667), wk =   0.0277778
        k(   10) = (   0.0000000   0.0833333   0.2500000), wk =   0.0277778
        k(   11) = (   0.0000000   0.0833333   0.3333333), wk =   0.0277778
        k(   12) = (   0.0000000   0.0833333   0.4166667), wk =   0.0277778
        k(   13) = (   0.0000000   0.0833333  -0.5000000), wk =   0.0138889
        k(   14) = (   0.0000000   0.1666667   0.1666667), wk =   0.0138889
        k(   15) = (   0.0000000   0.1666667   0.2500000), wk =   0.0277778
        k(   16) = (   0.0000000   0.1666667   0.3333333), wk =   0.0277778
        k(   17) = (   0.0000000   0.1666667   0.4166667), wk =   0.0277778
        k(   18) = (   0.0000000   0.1666667  -0.5000000), wk =   0.0138889
        k(   19) = (   0.0000000   0.2500000   0.2500000), wk =   0.0138889
        k(   20) = (   0.0000000   0.2500000   0.3333333), wk =   0.0277778
        k(   21) = (   0.0000000   0.2500000   0.4166667), wk =   0.0277778
        k(   22) = (   0.0000000   0.2500000  -0.5000000), wk =   0.0138889
        k(   23) = (   0.0000000   0.3333333   0.3333333), wk =   0.0138889
        k(   24) = (   0.0000000   0.3333333   0.4166667), wk =   0.0277778
        k(   25) = (   0.0000000   0.3333333  -0.5000000), wk =   0.0138889
        k(   26) = (   0.0000000   0.4166667   0.4166667), wk =   0.0138889
        k(   27) = (   0.0000000   0.4166667  -0.5000000), wk =   0.0138889
        k(   28) = (   0.0000000  -0.5000000  -0.5000000), wk =   0.0034722
        k(   29) = (   0.0833333   0.0833333   0.0833333), wk =   0.0092593
        k(   30) = (   0.0833333   0.0833333   0.1666667), wk =   0.0277778
        k(   31) = (   0.0833333   0.0833333   0.2500000), wk =   0.0277778
        k(   32) = (   0.0833333   0.0833333   0.3333333), wk =   0.0277778
        k(   33) = (   0.0833333   0.0833333   0.4166667), wk =   0.0277778
        k(   34) = (   0.0833333   0.0833333  -0.5000000), wk =   0.0138889
        k(   35) = (   0.0833333   0.1666667   0.1666667), wk =   0.0277778
        k(   36) = (   0.0833333   0.1666667   0.2500000), wk =   0.0555556
        k(   37) = (   0.0833333   0.1666667   0.3333333), wk =   0.0555556
        k(   38) = (   0.0833333   0.1666667   0.4166667), wk =   0.0555556
        k(   39) = (   0.0833333   0.1666667  -0.5000000), wk =   0.0277778
        k(   40) = (   0.0833333   0.2500000   0.2500000), wk =   0.0277778
        k(   41) = (   0.0833333   0.2500000   0.3333333), wk =   0.0555556
        k(   42) = (   0.0833333   0.2500000   0.4166667), wk =   0.0555556
        k(   43) = (   0.0833333   0.2500000  -0.5000000), wk =   0.0277778
        k(   44) = (   0.0833333   0.3333333   0.3333333), wk =   0.0277778
        k(   45) = (   0.0833333   0.3333333   0.4166667), wk =   0.0555556
        k(   46) = (   0.0833333   0.3333333  -0.5000000), wk =   0.0277778
        k(   47) = (   0.0833333   0.4166667   0.4166667), wk =   0.0277778
        k(   48) = (   0.0833333   0.4166667  -0.5000000), wk =   0.0277778
        k(   49) = (   0.0833333  -0.5000000  -0.5000000), wk =   0.0069444
        k(   50) = (   0.1666667   0.1666667   0.1666667), wk =   0.0092593
        k(   51) = (   0.1666667   0.1666667   0.2500000), wk =   0.0277778
        k(   52) = (   0.1666667   0.1666667   0.3333333), wk =   0.0277778
        k(   53) = (   0.1666667   0.1666667   0.4166667), wk =   0.0277778
        k(   54) = (   0.1666667   0.1666667  -0.5000000), wk =   0.0138889
        k(   55) = (   0.1666667   0.2500000   0.2500000), wk =   0.0277778
        k(   56) = (   0.1666667   0.2500000   0.3333333), wk =   0.0555556
        k(   57) = (   0.1666667   0.2500000   0.4166667), wk =   0.0555556
        k(   58) = (   0.1666667   0.2500000  -0.5000000), wk =   0.0277778
        k(   59) = (   0.1666667   0.3333333   0.3333333), wk =   0.0277778
        k(   60) = (   0.1666667   0.3333333   0.4166667), wk =   0.0555556
        k(   61) = (   0.1666667   0.3333333  -0.5000000), wk =   0.0277778
        k(   62) = (   0.1666667   0.4166667   0.4166667), wk =   0.0277778
        k(   63) = (   0.1666667   0.4166667  -0.5000000), wk =   0.0277778
        k(   64) = (   0.1666667  -0.5000000  -0.5000000), wk =   0.0069444
        k(   65) = (   0.2500000   0.2500000   0.2500000), wk =   0.0092593
        k(   66) = (   0.2500000   0.2500000   0.3333333), wk =   0.0277778
        k(   67) = (   0.2500000   0.2500000   0.4166667), wk =   0.0277778
        k(   68) = (   0.2500000   0.2500000  -0.5000000), wk =   0.0138889
        k(   69) = (   0.2500000   0.3333333   0.3333333), wk =   0.0277778
        k(   70) = (   0.2500000   0.3333333   0.4166667), wk =   0.0555556
        k(   71) = (   0.2500000   0.3333333  -0.5000000), wk =   0.0277778
        k(   72) = (   0.2500000   0.4166667   0.4166667), wk =   0.0277778
        k(   73) = (   0.2500000   0.4166667  -0.5000000), wk =   0.0277778
        k(   74) = (   0.2500000  -0.5000000  -0.5000000), wk =   0.0069444
        k(   75) = (   0.3333333   0.3333333   0.3333333), wk =   0.0092593
        k(   76) = (   0.3333333   0.3333333   0.4166667), wk =   0.0277778
        k(   77) = (   0.3333333   0.3333333  -0.5000000), wk =   0.0138889
        k(   78) = (   0.3333333   0.4166667   0.4166667), wk =   0.0277778
        k(   79) = (   0.3333333   0.4166667  -0.5000000), wk =   0.0277778
        k(   80) = (   0.3333333  -0.5000000  -0.5000000), wk =   0.0069444
        k(   81) = (   0.4166667   0.4166667   0.4166667), wk =   0.0092593
        k(   82) = (   0.4166667   0.4166667  -0.5000000), wk =   0.0138889
        k(   83) = (   0.4166667  -0.5000000  -0.5000000), wk =   0.0069444
        k(   84) = (  -0.5000000  -0.5000000  -0.5000000), wk =   0.0011574

     Dense  grid:     6031 G-vectors     FFT dimensions: (  24,  24,  24)

     Estimated max dynamical RAM per process >       5.91 MB

     Estimated total dynamical RAM >      59.09 MB

     Initial potential from superposition of free atoms

     starting charge      43.9996, renormalised to      44.0000
     Starting wfcs are   36 randomized atomic wfcs
     Checking if some PAW data can be deallocated... 

     total cpu time spent up to now is        1.3 secs

     Self-consistent Calculation

     iteration #  1     ecut=    50.00 Ry     beta= 0.70
     Davidson diagonalization with overlap
     c_bands:  1 eigenvalues not converged
     ethr =  1.00E-02,  avg # of iterations = 11.2

     negative rho (up, down):  7.626E-03 0.000E+00

     total cpu time spent up to now is        3.7 secs

     total energy              =   -3076.88068473 Ry
     estimated scf accuracy    <       1.16998260 Ry

     iteration #  2     ecut=    50.00 Ry     beta= 0.70
     Davidson diagonalization with overlap
     ethr =  2.66E-03,  avg # of iterations =  4.1

     negative rho (up, down):  3.881E-02 0.000E+00

     total cpu time spent up to now is        5.1 secs

     total energy              =   -3077.48765276 Ry
     estimated scf accuracy    <       0.07095342 Ry

     iteration #  3     ecut=    50.00 Ry     beta= 0.70
     Davidson diagonalization with overlap
     c_bands:  1 eigenvalues not converged
     c_bands:  1 eigenvalues not converged
     c_bands:  2 eigenvalues not converged
     c_bands:  1 eigenvalues not converged
     c_bands:  1 eigenvalues not converged
     c_bands:  1 eigenvalues not converged
     ethr =  1.61E-04,  avg # of iterations = 10.7

     negative rho (up, down):  5.469E-02 0.000E+00

     total cpu time spent up to now is        7.5 secs

     total energy              =   -3077.57217242 Ry
     estimated scf accuracy    <       0.00571684 Ry

     iteration #  4     ecut=    50.00 Ry     beta= 0.70
     Davidson diagonalization with overlap
     c_bands:  1 eigenvalues not converged
     c_bands:  2 eigenvalues not converged
     c_bands:  3 eigenvalues not converged
     c_bands:  1 eigenvalues not converged
     c_bands:  1 eigenvalues not converged
     c_bands:  1 eigenvalues not converged
     c_bands:  1 eigenvalues not converged
     c_bands:  1 eigenvalues not converged
     c_bands:  1 eigenvalues not converged
     ethr =  1.30E-05,  avg # of iterations =  9.1

     negative rho (up, down):  5.813E-02 0.000E+00

     total cpu time spent up to now is        9.6 secs

     total energy              =   -3077.57497840 Ry
     estimated scf accuracy    <       0.00099406 Ry

     iteration #  5     ecut=    50.00 Ry     beta= 0.70
     Davidson diagonalization with overlap
     c_bands:  1 eigenvalues not converged
     c_bands:  3 eigenvalues not converged
     c_bands:  1 eigenvalues not converged
     c_bands:  1 eigenvalues not converged
     ethr =  2.26E-06,  avg # of iterations =  7.1

     negative rho (up, down):  5.727E-02 0.000E+00

     total cpu time spent up to now is       11.4 secs

     total energy              =   -3077.57534114 Ry
     estimated scf accuracy    <       0.00000441 Ry

     iteration #  6     ecut=    50.00 Ry     beta= 0.70
     Davidson diagonalization with overlap
     ethr =  1.00E-08,  avg # of iterations = 12.8

     negative rho (up, down):  5.726E-02 0.000E+00

     total cpu time spent up to now is       14.9 secs

     End of self-consistent calculation

          k = 0.0000 0.0000 0.0000 (   739 PWs)   bands (ev):

    37.9123  37.9139  37.9139  38.8233  38.8233  38.8233  46.8054  51.9420
    51.9420  51.9420  63.6578  63.6578  73.5989  73.5995  73.5995  76.5099
    76.5099  76.5099  76.5116  76.5116  76.5116  82.0670  83.2227  83.2227
    83.2227  94.3769

          k = 0.0000 0.0000 0.0833 (   743 PWs)   bands (ev):

    38.2039  38.2481  38.2492  38.9732  39.2326  39.2326  47.2308  51.5559
    52.2251  52.2251  63.0811  63.7892  72.7541  72.7545  73.3695  74.3752
    74.3752  75.6223  75.6223  76.5148  76.5165  82.3246  82.7416  85.0544
    85.0544  94.5031

          k = 0.0000 0.0000 0.1667 (   739 PWs)   bands (ev):

    39.0632  39.2251  39.2261  39.4200  40.4511  40.4511  48.4203  50.4995
    53.0681  53.0681  61.5511  64.1796  70.3667  70.3667  70.4902  70.4906
    72.7155  73.3907  73.3907  76.5282  76.5299  79.8936  84.6627  88.1457
    88.1457  94.7576

          k = 0.0000 0.0000 0.2500 (   751 PWs)   bands (ev):

    40.1562  40.4631  40.7411  40.7423  42.4434  42.4434  49.0027  49.9981
    54.4474  54.4474  59.7050  64.8169  65.8875  65.8875  67.4089  67.4092
    70.5025  70.5025  71.7291  76.4537  76.5462  76.5479  87.5986  91.0654
    91.0655  94.3293

          k = 0.0000 0.0000 0.3333 (   743 PWs)   bands (ev):

    41.1663  42.3476  42.5788  42.5799  45.1666  45.1666  47.2980  50.7911
    56.3233  56.3233  58.9718  61.2789  61.2789  64.1788  64.1791  65.6800
    67.3846  67.3846  70.5289  72.4659  76.5651  76.5668  91.3128  93.4338
    93.4340  94.6477

          k = 0.0000 0.0000 0.4167 (   744 PWs)   bands (ev):

    42.4320  44.2732  44.2745  44.6221  45.5615  48.5340  48.5340  49.5077
    56.7377  56.7377  58.6389  58.6389  60.7954  61.5485  61.5489  64.2733
    64.2733  66.7366  68.2840  69.2332  76.5774  76.5791  95.0300  95.0303
    95.6218  95.6270

          k = 0.0000 0.0000-0.5000 (   756 PWs)   bands (ev):

    43.9127  43.9141  45.0194  45.0208  47.1284  47.1295  52.4358  52.4358
    52.4366  52.4366  60.4747  60.4752  61.3194  61.3194  61.3202  61.3202
    64.2382  64.2382  67.9408  67.9424  76.5805  76.5822  95.8004  95.8005
    95.8018  95.8021

          k = 0.0000 0.0833 0.0833 (   744 PWs)   bands (ev):

    38.4154  38.5377  38.5388  39.3798  39.3798  39.7999  47.6048  51.4579
    52.2406  52.5251  62.8853  63.5868  72.0115  72.0123  72.0270  73.2907
    74.1493  74.1504  75.6250  75.6251  75.8712  83.3862  84.1336  84.1337
    86.5006  92.8085

          k = 0.0000 0.0833 0.1667 (   749 PWs)   bands (ev):

    39.1051  39.3955  39.5103  39.8187  40.5883  41.2707  48.6520  50.5689
    52.9687  53.3901  61.5643  63.9104  68.4746  69.9363  70.0068  70.1280
    71.6648  73.3865  73.4134  75.5720  75.6312  81.6924  85.2248  87.2599
    89.2964  91.7618

          k = 0.0000 0.0833 0.2500 (   751 PWs)   bands (ev):

    40.4009  40.5409  40.7912  41.0202  42.5689  43.4313  49.1517  50.0905
    54.3359  54.5915  59.9453  64.2492  64.6467  65.6939  67.1451  67.6085
    68.5867  70.4852  72.2153  75.5351  75.6380  78.3245  88.0383  90.1549
    91.4357  92.1085

          k = 0.0000 0.0833 0.3333 (   756 PWs)   bands (ev):

    41.5328  42.1672  42.6713  42.8410  45.2717  46.1280  47.5093  51.0114
    55.4357  56.2188  59.9276  59.9931  61.2026  64.0728  64.8048  65.2380
    65.6812  67.3511  70.6457  74.5642  75.5529  75.6393  91.5934  91.6716
    92.1612  93.2236

          k = 0.0000 0.0833 0.4167 (   750 PWs)   bands (ev):

    42.7702  44.0102  44.4805  44.9443  45.8244  48.6129  49.1818  49.8434
    56.0093  56.7324  56.8400  58.5489  61.5917  61.9455  62.2455  62.2838
    64.2208  66.9960  68.5524  71.0531  75.5849  75.6318  92.2239  92.9312
    94.2845  95.6946

          k = 0.0000 0.0833-0.5000 (   754 PWs)   bands (ev):

    44.2168  44.2182  45.0431  45.0443  47.4559  47.4570  52.4441  52.4447
    52.4796  52.4803  59.2085  59.2090  60.7893  60.7898  61.2476  61.2484
    65.4928  65.4931  68.6468  68.6478  75.6127  75.6144  92.7808  92.7818
    95.8870  95.8884

          k = 0.0000 0.1667 0.1667 (   748 PWs)   bands (ev):

    39.3685  40.3589  40.3599  41.0029  41.0029  43.0693  49.3210  50.3828
    53.1313  54.2587  61.0561  63.8339  66.0976  66.0988  68.2031  68.5585
    71.9483  71.9486  73.3715  73.3716  74.0797  84.9263  84.9265  86.8339
    89.4942  91.8013

          k = 0.0000 0.1667 0.2500 (   753 PWs)   bands (ev):

    40.2735  41.6839  41.7420  41.8505  42.9421  45.4473  49.4495  50.3463
    54.1953  55.1086  59.9878  61.8808  63.5377  64.7851  64.9379  66.2884
    69.5052  70.4343  71.2479  73.3430  73.3642  81.7504  87.8949  88.2816
    89.3035  91.0734

          k = 0.0000 0.1667 0.3333 (   748 PWs)   bands (ev):

    41.7703  42.6158  43.6089  43.6200  45.5843  48.0796  48.1454  51.4464
    54.5300  55.9970  57.9212  60.4996  60.9046  60.9643  63.6729  66.4672
    66.5163  67.2544  69.7283  73.1556  73.2992  78.2351  88.0441  89.7004
    91.3587  92.4210

          k = 0.0000 0.1667 0.4167 (   748 PWs)   bands (ev):

    43.6167  43.7720  45.0741  45.8768  46.5808  48.8422  50.7137  50.8339
    54.4961  54.6866  56.6862  58.3257  58.5014  61.6128  62.6185  63.5184
    64.0746  67.6223  68.7230  73.1343  73.2424  74.7326  88.4993  89.9463
    92.3973  96.0060

          k = 0.0000 0.1667-0.5000 (   754 PWs)   bands (ev):

    45.1125  45.1139  45.1172  45.1183  48.4085  48.4097  52.5950  52.5956
    52.6092  52.6096  56.2620  56.2624  61.0557  61.0565  61.4581  61.4586
    65.1598  65.1608  71.5046  71.5049  73.1788  73.1803  89.2925  89.2934
    94.0213  94.0222

          k = 0.0000 0.2500 0.2500 (   758 PWs)   bands (ev):

    40.7673  43.2025  43.2034  43.5517  43.5518  47.9459  49.4284  50.7646
    54.5942  55.8235  59.0579  59.5026  59.5038  63.1401  64.7616  66.2817
    69.3628  69.3628  70.3517  70.3519  71.4502  84.9499  84.9504  86.2525
    90.2366  91.2605

          k = 0.0000 0.2500 0.3333 (   743 PWs)   bands (ev):

    41.8935  44.3804  44.8840  45.0355  46.0882  48.7694  50.5825  51.4119
    54.9748  55.9442  55.9570  57.2837  59.3129  60.1424  62.7924  66.8852
    67.1088  68.1306  68.7874  70.2467  70.4555  81.7171  85.4727  87.0382
    90.3601  93.7598

          k = 0.0000 0.2500 0.4167 (   744 PWs)   bands (ev):

    43.5336  45.3895  45.9730  47.2768  47.7083  49.1948  52.3244  52.5671
    52.6529  53.5935  55.3198  56.4908  58.1201  61.2646  61.3066  63.8710
    64.1617  66.1006  70.1115  70.1371  71.7900  78.3788  85.7317  87.3839
    91.2955  94.8766

          k = 0.0000 0.2500-0.5000 (   740 PWs)   bands (ev):

    45.2820  45.2828  46.5280  46.5293  49.8265  49.8275  52.7313  52.7318
    53.1615  53.1615  53.6729  53.6731  60.8202  60.8209  61.8517  61.8523
    63.6809  63.6819  70.0638  70.0652  75.0364  75.0366  86.5952  86.5960
    92.8725  92.8732

          k = 0.0000 0.3333 0.3333 (   748 PWs)   bands (ev):

    42.6243  46.5691  46.5698  46.7521  46.7523  49.1491  51.0571  53.0709
    54.2859  54.2869  56.2741  56.5935  57.5537  58.5179  61.4050  66.0362
    66.0366  66.9443  66.9447  68.3495  71.8778  84.2520  84.3500  84.3507
    90.3314  95.5753

          k = 0.0000 0.3333 0.4167 (   748 PWs)   bands (ev):

    43.9308  47.0037  47.5240  48.5415  48.9415  49.6168  50.8329  53.1214
    53.1314  54.5423  54.7595  55.9149  58.2259  59.2129  60.3284  63.6523
    63.6822  64.1620  66.8197  67.2321  75.1877  81.5214  84.2887  85.4209
    91.1553  94.6295

          k = 0.0000 0.3333-0.5000 (   740 PWs)   bands (ev):

    45.6308  45.6314  48.3104  48.3116  50.2873  50.2875  52.7785  52.7790
    52.9252  52.9259  54.1978  54.1981  60.6912  60.6917  61.3580  61.3588
    61.7308  61.7317  66.8436  66.8448  78.4534  78.4536  85.0198  85.0204
    92.6719  92.6725

          k = 0.0000 0.4167 0.4167 (   744 PWs)   bands (ev):

    44.8576  47.9350  47.9357  49.6227  49.8618  50.0060  50.0065  53.5917
    53.5922  54.6259  56.6437  56.9222  57.0809  58.8661  59.0735  61.9886
    61.9892  63.6404  63.6410  65.1008  78.4676  83.5983  83.5990  84.0658
    91.9071  95.1790

          k = 0.0000 0.4167-0.5000 (   754 PWs)   bands (ev):

    46.2762  46.2765  48.7284  48.7285  50.1767  50.1776  52.5290  52.5291
    54.9877  54.9887  55.6839  55.6845  59.6117  59.6126  59.7981  59.7990
    60.9366  60.9368  63.9879  63.9887  81.3311  81.3314  84.2403  84.2408
    93.3931  93.3935

          k = 0.0000-0.5000-0.5000 (   768 PWs)   bands (ev):

    47.3017  47.3017  47.3028  47.3030  51.6926  51.6934  51.6936  51.6936
    57.3448  57.3448  57.3453  57.3473  57.6899  57.6907  57.6907  57.6915
    61.9493  61.9499  61.9505  61.9505  83.2670  83.2670  83.2675  83.2683
    94.7446  94.7447

          k = 0.0833 0.0833 0.0833 (   748 PWs)   bands (ev):

    38.6838  38.6852  38.6852  39.9613  39.9615  39.9615  47.8673  51.5669
    52.4863  52.4863  63.0595  63.0595  71.3919  71.3926  71.3926  72.4595
    72.4595  72.4607  75.6478  75.6490  75.6490  83.9877  85.4755  85.4756
    85.4756  93.7952

          k = 0.0833 0.0833 0.1667 (   748 PWs)   bands (ev):

    39.3581  39.3589  39.4567  40.4734  41.4359  41.4362  48.5299  51.0810
    53.2139  53.2706  61.6788  63.5778  68.2892  68.2892  69.7528  70.3253
    70.4987  70.4994  74.9170  75.2781  75.2793  82.8745  85.6839  88.1768
    88.1771  92.7349

          k = 0.0833 0.0833 0.2500 (   746 PWs)   bands (ev):

    40.5562  40.6450  40.6459  41.4724  43.5792  43.5795  48.7005  50.8251
    54.3977  54.5339  60.2482  64.1713  64.1714  64.4271  67.4985  67.5487
    67.9909  67.9914  73.6886  74.9771  74.9786  79.3531  88.1567  90.8461
    90.8476  92.3778

          k = 0.0833 0.0833 0.3333 (   752 PWs)   bands (ev):

    41.7210  42.4077  42.4086  43.1498  46.2331  46.2334  47.5042  51.4349
    54.9429  55.9942  60.0026  60.0027  60.7449  64.4111  64.9521  64.9524
    65.0952  65.5825  72.1135  74.8401  74.8416  75.3638  90.6617  92.3492
    92.3495  93.0798

          k = 0.0833 0.0833 0.4167 (   746 PWs)   bands (ev):

    42.9908  44.2240  44.2251  45.3557  45.9572  49.1741  49.1744  50.2735
    56.0644  56.1444  56.1446  57.9438  61.3285  62.1929  62.1933  62.5911
    63.4916  67.0043  70.3748  71.2157  74.7893  74.7909  92.5289  92.8765
    92.8770  94.0139

          k = 0.0833 0.0833-0.5000 (   754 PWs)   bands (ev):

    44.4146  44.4159  45.1014  45.1026  47.8541  47.8553  51.5208  51.5214
    53.4939  53.4945  58.4538  58.4544  60.1720  60.1724  60.9693  60.9698
    67.1634  67.1635  68.6305  68.6316  74.7770  74.7786  93.1708  93.1724
    94.1947  94.4203

          k = 0.0833 0.1667 0.1667 (   746 PWs)   bands (ev):

    39.6032  40.0869  40.0876  41.9518  41.9521  43.2335  48.4329  51.7952
    53.2335  54.1032  61.3779  63.4061  66.0186  66.0199  67.4735  67.7225
    69.4278  69.4279  74.4650  74.6548  74.6552  85.5447  85.5447  86.8447
    89.3810  91.6134

          k = 0.0833 0.1667 0.2500 (   743 PWs)   bands (ev):

    40.4990  41.1736  41.3581  42.8976  44.0373  45.5819  48.2615  51.8649
    54.1728  55.0910  60.4822  61.8800  63.4978  63.8438  64.4315  66.2002
    67.2306  68.0416  73.5905  73.6299  73.8209  82.0980  88.0463  88.3081
    88.7858  92.0040

          k = 0.0833 0.1667 0.3333 (   748 PWs)   bands (ev):

    41.9886  42.4148  43.1117  44.4081  46.5474  47.5492  48.1953  52.3195
    54.3797  55.6463  58.0331  59.9822  60.9216  61.4510  64.0000  64.6198
    65.7618  66.1435  71.9939  73.0145  73.1992  78.3180  88.6517  89.0984
    90.2139  93.8893

          k = 0.0833 0.1667 0.4167 (   750 PWs)   bands (ev):

    43.6983  43.8300  44.8492  46.3669  46.4843  49.1163  50.4464  51.4699
    54.3041  55.1261  56.5265  57.4289  58.4264  61.8174  61.9956  63.1219
    64.0913  68.3875  69.7747  72.7731  72.8790  74.5721  89.1433  90.4966
    90.5977  94.4343

          k = 0.0833 0.1667-0.5000 (   754 PWs)   bands (ev):

    45.0290  45.0303  45.2503  45.2513  48.9472  48.9483  50.8867  50.8872
    54.4690  54.4694  56.1436  56.1440  59.5633  59.5635  61.3023  61.3028
    67.0655  67.0660  71.1934  71.1937  72.7476  72.7490  89.9537  89.9546
    92.3653  92.3660

          k = 0.0833 0.2500 0.2500 (   746 PWs)   bands (ev):

    40.9773  42.4411  42.4417  44.8561  44.8566  47.9912  48.0202  52.3959
    54.3035  56.0825  59.5544  59.5556  59.7639  62.6369  63.8933  65.9027
    66.5594  66.5594  72.1627  72.5610  72.5612  85.0670  85.0673  86.7611
    87.8039  93.5354

          k = 0.0833 0.2500 0.3333 (   747 PWs)   bands (ev):

    42.0906  43.7046  44.2091  46.1532  47.0724  47.6553  50.4825  52.4627
    54.9705  55.7699  56.1812  57.3900  59.7395  60.4464  62.3250  64.1883
    65.2451  68.4258  70.8449  71.0152  71.3968  81.6132  85.9606  87.1597
    88.1694  95.0898

          k = 0.0833 0.2500 0.4167 (   749 PWs)   bands (ev):

    43.7241  44.9409  45.8305  47.0142  48.0127  48.9391  51.8669  52.4645
    53.4190  54.4583  55.5117  57.0563  57.0886  60.9216  61.5991  62.8752
    63.2537  68.4878  70.3957  70.6222  71.4479  78.1419  86.1893  87.6638
    89.2842  93.2403

          k = 0.0833 0.2500-0.5000 (   754 PWs)   bands (ev):

    45.4612  45.4620  46.0664  46.0676  50.3109  50.3118  50.7028  50.7032
    54.0406  54.0406  55.3555  55.3558  59.1500  59.1501  61.2643  61.2649
    65.7151  65.7156  70.2943  70.2955  74.7290  74.7292  86.9928  86.9937
    91.0425  91.0432

          k = 0.0833 0.3333 0.3333 (   747 PWs)   bands (ev):

    42.7967  45.5269  45.5274  47.7226  47.8440  47.8443  52.0772  52.5517
    54.7242  54.7251  55.1881  57.1763  58.8303  59.3482  60.5305  63.4228
    63.4228  69.2655  69.4527  69.4528  71.5265  84.1951  84.1957  84.6145
    88.1730  94.8205

          k = 0.0833 0.3333 0.4167 (   749 PWs)   bands (ev):

    44.0816  46.6967  47.0400  47.6676  48.6858  48.9740  51.3964  52.9137
    53.9033  54.3920  55.0105  57.2535  57.7427  59.4991  61.0677  61.2752
    62.1534  67.0063  68.1005  68.3117  74.8437  81.2346  84.5330  85.3560
    89.0659  92.8466

          k = 0.0833 0.3333-0.5000 (   746 PWs)   bands (ev):

    45.7788  45.7793  47.3870  47.3880  50.3294  50.3296  50.8959  50.8961
    54.0203  54.0211  56.1436  56.1438  58.8147  58.8149  60.4826  60.4833
    64.1563  64.1566  67.7960  67.7971  78.1216  78.1218  85.1230  85.1237
    90.7063  90.7071

          k = 0.0833 0.4167 0.4167 (   746 PWs)   bands (ev):

    44.9554  47.9587  47.9596  47.9917  48.8553  48.8558  50.6746  52.7620
    54.8415  54.8422  55.5800  57.9594  58.3737  58.6122  60.3573  60.3574
    60.7584  65.7409  65.7410  66.1849  78.1127  83.3177  83.3184  84.1043
    89.8059  93.3250

          k = 0.0833 0.4167-0.5000 (   746 PWs)   bands (ev):

    46.3154  46.3157  48.0335  48.0336  49.8635  49.8643  51.1002  51.1003
    55.4644  55.4652  56.6112  56.6120  58.8669  58.8677  59.4721  59.4726
    62.9505  62.9506  65.2926  65.2935  80.9777  80.9780  84.0845  84.0851
    91.3588  91.3592

          k = 0.0833-0.5000-0.5000 (   744 PWs)   bands (ev):

    47.1476  47.1476  47.1486  47.1487  50.7432  50.7443  50.7443  50.7444
    56.3287  56.3287  56.3289  56.3307  59.1798  59.1806  59.1806  59.1811
    63.2400  63.2408  63.2409  63.2409  82.9498  82.9498  82.9501  82.9511
    92.7393  92.7396

          k = 0.1667 0.1667 0.1667 (   748 PWs)   bands (ev):

    40.2814  40.2824  40.2824  43.7378  43.7384  43.7384  47.6505  53.5582
    53.5582  54.1196  62.3097  62.3097  65.5814  65.5814  65.5826  65.8665
    65.8671  65.8671  74.9250  74.9261  74.9261  86.5625  87.0473  87.0481
    87.0482  91.7494

          k = 0.1667 0.1667 0.2500 (   746 PWs)   bands (ev):

    41.1486  41.1493  41.3181  44.6290  45.9908  45.9913  47.1832  53.2535
    54.1444  55.7405  61.5357  61.8356  61.8358  63.0805  63.7029  63.7634
    65.0740  65.0750  74.0646  74.0655  74.7260  83.3818  86.3473  88.4813
    88.4824  92.6320

          k = 0.1667 0.1667 0.3333 (   745 PWs)   bands (ev):

    42.5583  42.6213  42.6220  45.9790  46.7392  48.3315  48.3321  53.2193
    55.0280  55.0781  58.3553  58.3556  60.4117  61.5380  63.2121  63.7717
    63.7726  65.6192  72.8929  72.8939  73.6981  79.2437  86.8137  89.3582
    89.3592  92.8406

          k = 0.1667 0.1667 0.4167 (   750 PWs)   bands (ev):

    43.8333  44.4530  44.4538  46.0322  47.8332  49.7153  49.7160  52.5198
    54.2805  56.2256  56.3243  56.3248  57.8825  59.5195  61.9171  61.9178
    66.6575  67.7339  72.0097  72.0813  72.0825  74.9506  88.0526  90.0992
    90.1003  92.2766

          k = 0.1667 0.1667-0.5000 (   768 PWs)   bands (ev):

    45.0242  45.0254  45.6009  45.6020  49.5225  49.5231  50.1094  50.1103
    55.7398  55.7399  56.2884  56.2888  57.7316  57.7317  60.7379  60.7386
    69.9347  69.9353  70.6920  70.6920  71.8166  71.8178  89.9433  89.9441
    90.5806  90.5819

          k = 0.1667 0.2500 0.2500 (   749 PWs)   bands (ev):

    41.5796  42.1417  42.1423  46.5286  46.6969  46.6974  48.2373  53.6362
    53.8228  57.5788  59.6960  59.6972  61.3643  61.4716  62.0453  63.1335
    63.1336  64.8615  73.4573  74.1427  74.1432  85.3231  85.3234  85.3924
    87.4019  93.5525

          k = 0.1667 0.2500 0.3333 (   748 PWs)   bands (ev):

    42.6511  43.3200  43.5869  46.1668  47.7442  48.5220  50.1713  53.0656
    54.3198  56.8870  57.4849  57.7329  58.8341  60.9456  61.2044  62.4806
    62.8104  67.4065  72.2416  72.7647  73.3033  81.4629  85.4471  86.7679
    86.9622  93.2521

          k = 0.1667 0.2500 0.4167 (   751 PWs)   bands (ev):

    44.2638  44.4529  45.4342  45.8535  48.7555  49.1640  50.3563  52.2174
    55.0027  56.1789  56.3046  56.4284  57.9424  58.8703  60.0723  61.3143
    65.7750  70.4718  71.1469  71.4571  71.4592  77.5831  86.4591  86.9349
    87.6910  90.6276

          k = 0.1667 0.2500-0.5000 (   750 PWs)   bands (ev):

    45.3232  45.3243  45.9853  45.9861  48.7577  48.7581  50.8200  50.8205
    55.2955  55.2960  57.1565  57.1568  57.7429  57.7430  59.7889  59.7897
    68.8309  68.8312  70.8312  70.8322  73.8880  73.8882  87.4789  87.4801
    88.2638  88.2644

          k = 0.1667 0.3333 0.3333 (   748 PWs)   bands (ev):

    43.2733  44.6917  44.6922  45.8937  48.7847  48.7848  51.3436  52.7646
    53.8194  55.8997  55.9001  58.7398  59.5522  59.7360  60.6851  60.6853
    61.8603  70.5220  71.1098  71.9289  71.9291  83.6177  83.6178  85.1787
    85.2003  92.4801

          k = 0.1667 0.3333 0.4167 (   745 PWs)   bands (ev):

    44.4715  45.5488  45.8499  46.5801  47.9478  49.3434  50.7937  51.7282
    54.2388  55.4195  56.2384  57.7528  59.0621  59.0662  59.9069  60.3641
    64.1750  69.9112  70.0054  70.4543  73.8511  80.3716  84.7929  84.7994
    85.9669  90.0207

          k = 0.1667 0.3333-0.5000 (   744 PWs)   bands (ev):

    45.8512  45.8520  46.1345  46.1349  48.8157  48.8159  50.4229  50.4232
    54.9730  54.9735  57.2846  57.2855  58.4021  58.4029  60.0938  60.0938
    67.2516  67.2518  69.5860  69.5870  77.1528  77.1531  84.9597  84.9607
    87.6647  87.6652

          k = 0.1667 0.4167 0.4167 (   746 PWs)   bands (ev):

    45.1328  45.9777  46.7038  46.7039  48.5407  48.5410  50.5616  51.1344
    53.9109  55.5989  55.5997  56.2228  60.0750  60.0754  61.2367  61.2904
    63.4265  68.4027  68.5197  68.5198  77.0610  82.3302  82.3306  83.8227
    86.5971  90.4678

          k = 0.1667 0.4167-0.5000 (   744 PWs)   bands (ev):

    46.1644  46.1644  46.2589  46.2592  49.3774  49.3779  49.9615  49.9622
    54.5441  54.5446  55.6934  55.6944  60.7096  60.7106  61.3359  61.3359
    65.8261  65.8262  67.6931  67.6940  79.8781  79.8786  83.3057  83.3066
    88.2251  88.2254

          k = 0.1667-0.5000-0.5000 (   736 PWs)   bands (ev):

    46.2726  46.2726  46.2732  46.2733  49.8037  49.8046  49.8046  49.8053
    54.6234  54.6234  54.6234  54.6250  62.1059  62.1066  62.1066  62.1071
    65.7301  65.7309  65.7309  65.7311  81.8440  81.8443  81.8443  81.8454
    89.7027  89.7031

          k = 0.2500 0.2500 0.2500 (   738 PWs)   bands (ev):

    42.4855  42.4863  42.4863  45.5731  48.5837  48.5845  48.5845  53.5649
    53.5649  59.8269  59.8269  59.8283  60.0061  60.0067  60.0067  60.2021
    63.7091  63.7091  74.3292  74.3302  74.3302  83.9384  85.5186  85.5200
    85.5200  93.1572

          k = 0.2500 0.2500 0.3333 (   746 PWs)   bands (ev):

    43.4647  43.4653  43.5125  45.0879  49.0701  49.6898  49.6905  52.9045
    53.6750  57.7617  57.7622  58.0904  58.5278  60.0794  60.0804  60.4304
    65.4013  66.2240  73.3193  73.3200  74.2654  81.7665  83.6405  85.6689
    85.6701  91.5011

          k = 0.2500 0.2500 0.4167 (   753 PWs)   bands (ev):

    44.3605  44.9199  45.0127  45.0133  48.9341  48.9348  49.7774  51.9147
    54.1945  56.4369  57.4174  57.4182  57.8620  59.0309  60.1815  60.1820
    68.8103  69.2285  71.9617  71.9625  73.1568  77.6087  84.4557  85.8639
    85.8652  88.7057

          k = 0.2500 0.2500-0.5000 (   748 PWs)   bands (ev):

    44.7901  44.7909  46.7815  46.7823  47.1981  47.1985  50.7798  50.7801
    55.1227  55.1231  57.6979  57.6990  58.0428  58.0437  60.1956  60.1959
    71.2243  71.2245  71.3244  71.3252  73.3846  73.3848  85.9695  85.9708
    86.2217  86.2221

          k = 0.2500 0.3333 0.3333 (   740 PWs)   bands (ev):

    43.8936  44.2726  44.2731  44.5055  49.3113  49.3114  50.0533  52.8257
    52.8929  56.4707  56.4707  56.8582  59.6323  59.6329  60.4490  63.2101
    64.6114  69.0201  72.8417  73.5481  73.5485  82.5573  82.5579  83.0307
    84.3319  91.0584

          k = 0.2500 0.3333 0.4167 (   739 PWs)   bands (ev):

    44.3744  44.6506  44.8297  45.4652  48.2995  49.2288  49.5465  51.7471
    53.2175  55.1183  55.8770  55.9144  59.9606  61.1971  61.8660  62.1834
    67.3124  71.7357  72.1440  72.3476  72.5166  79.0922  83.1644  83.6432
    83.6871  87.9647

          k = 0.2500 0.3333-0.5000 (   748 PWs)   bands (ev):

    44.5366  44.5372  45.9624  45.9626  47.8673  47.8680  50.5132  50.5136
    53.9847  53.9852  55.7374  55.7385  60.8622  60.8633  62.2822  62.2823
    70.2872  70.2874  71.2519  71.2527  75.7002  75.7007  83.4474  83.4486
    85.3645  85.3648

          k = 0.2500 0.4167 0.4167 (   738 PWs)   bands (ev):

    44.2476  44.9433  45.0706  45.0706  49.0141  49.0144  49.2734  51.4490
    52.6140  54.3581  54.3586  54.5120  62.4144  62.4146  63.7032  64.7683
    66.2858  70.7308  71.0638  71.0639  75.4094  80.5171  80.5172  82.2822
    84.1379  88.4592

          k = 0.2500 0.4167-0.5000 (   738 PWs)   bands (ev):

    44.5166  44.5169  45.1662  45.1664  48.9783  48.9790  50.3003  50.3010
    53.1770  53.1776  54.0685  54.0694  63.7631  63.7642  64.1237  64.1237
    68.7650  68.7651  70.1204  70.1213  78.0697  78.0704  81.4274  81.4285
    85.8636  85.8637

          k = 0.2500-0.5000-0.5000 (   740 PWs)   bands (ev):

    44.7087  44.7087  44.7091  44.7091  49.8894  49.8898  49.8898  49.8909
    53.0975  53.0975  53.0975  53.0989  65.2826  65.2833  65.2833  65.2837
    68.4276  68.4283  68.4283  68.4287  79.8359  79.8367  79.8367  79.8377
    87.4913  87.4917

          k = 0.3333 0.3333 0.3333 (   729 PWs)   bands (ev):

    43.6808  44.2825  44.2830  44.2830  49.3189  49.3192  49.3192  52.4359
    52.4359  55.1887  55.1893  55.1893  61.4668  61.4668  61.4673  66.8596
    67.4386  67.4386  73.8262  73.8272  73.8272  81.5688  81.5703  81.5703
    82.1124  90.6204

          k = 0.3333 0.3333 0.4167 (   738 PWs)   bands (ev):

    43.4205  44.0884  44.5901  44.5903  48.8502  48.8508  49.6059  51.6376
    52.4524  53.8587  54.2835  54.2844  62.6255  63.6403  63.6405  65.5056
    70.1170  70.9216  72.9407  72.9414  73.6638  78.1919  81.1334  81.1345
    82.5397  87.0891

          k = 0.3333 0.3333-0.5000 (   744 PWs)   bands (ev):

    43.6361  43.6365  44.8060  44.8062  48.5124  48.5132  50.5755  50.5760
    52.9334  52.9339  54.0304  54.0315  63.9617  63.9628  64.6838  64.6838
    72.2688  72.2696  72.3245  72.3246  74.6397  74.6404  81.0403  81.0415
    84.2729  84.2730

          k = 0.3333 0.4167 0.4167 (   738 PWs)   bands (ev):

    43.0381  43.8303  43.8303  44.0584  49.3060  49.5655  49.5657  51.5798
    51.7671  53.0036  53.0037  53.0953  65.2947  65.2948  65.9175  68.2929
    69.0798  72.5955  72.9329  72.9332  73.4504  78.4030  78.4035  79.7001
    82.8449  87.3196

          k = 0.3333 0.4167-0.5000 (   734 PWs)   bands (ev):

    43.2091  43.2094  43.8232  43.8232  49.5052  49.5059  50.6324  50.6330
    52.1427  52.1433  52.6940  52.6949  66.8261  66.8262  66.9136  66.9147
    71.4181  71.4182  72.0932  72.0940  75.9493  75.9501  78.9382  78.9392
    84.5542  84.5542

          k = 0.3333-0.5000-0.5000 (   736 PWs)   bands (ev):

    43.2744  43.2744  43.2745  43.2747  50.3686  50.3687  50.3687  50.3700
    51.9476  51.9477  51.9477  51.9491  68.2916  68.2923  68.2923  68.2927
    70.8981  70.8988  70.8988  70.8993  77.4211  77.4222  77.4222  77.4229
    86.0380  86.0381

          k = 0.4167 0.4167 0.4167 (   729 PWs)   bands (ev):

    42.4390  43.0671  43.0671  43.0672  50.0329  50.0333  50.0333  51.3940
    51.3940  52.0743  52.0749  52.0749  67.8901  67.8902  67.8902  71.4898
    71.4898  71.5584  73.4903  73.4913  73.4913  76.9777  76.9790  76.9790
    82.8768  86.7372

          k = 0.4167 0.4167-0.5000 (   722 PWs)   bands (ev):

    42.4666  42.4668  42.8095  42.8096  50.2351  50.2357  50.8365  50.8372
    51.4991  51.4997  51.7293  51.7301  69.1962  69.1964  69.7064  69.7075
    73.0862  73.0871  73.0932  73.0933  74.3452  74.3462  76.6795  76.6805
    84.2931  84.2932

          k = 0.4167-0.5000-0.5000 (   716 PWs)   bands (ev):

    42.3358  42.3358  42.3359  42.3361  50.8206  50.8206  50.8206  50.8219
    51.2403  51.2404  51.2404  51.2418  70.9007  70.9016  70.9016  70.9019
    72.6998  72.7005  72.7005  72.7010  75.1714  75.1723  75.1723  75.1730
    85.0663  85.0663

          k =-0.5000-0.5000-0.5000 (   720 PWs)   bands (ev):

    42.0121  42.0121  42.0121  42.0124  51.0017  51.0017  51.0017  51.0018
    51.0018  51.0018  51.0032  51.0032  72.8412  72.8438  72.8438  72.8438
    73.3733  73.3733  73.3733  73.3743  73.3743  73.3743  73.3745  73.3745
    84.6940  84.6940

     the Fermi energy is    81.9061 ev

!    total energy              =   -3077.57538900 Ry

     total all-electron energy =   -152072.959753 Ry
     estimated scf accuracy    <       0.00000066 Ry
     smearing contrib. (-TS)   =      -0.12143943 Ry
     internal energy E=F+TS    =   -3077.45394957 Ry

     The total energy is F=E-TS. E is the sum of the following terms:
     one-electron contribution =     282.05414258 Ry
     hartree contribution      =       5.43603125 Ry
     xc contribution           =    -144.37956575 Ry
     ewald contribution        =    -443.87897023 Ry
     one-center paw contrib.   =   -2776.68558742 Ry

     convergence has been achieved in   6 iterations

     negative rho (up, down):  5.726E-02 0.000E+00

     Forces acting on atoms (cartesian axes, Ry/au):

     atom    1 type  1   force =     0.00000000    0.00000000   -0.00000000
     atom    2 type  1   force =     0.00000000    0.00000000    0.00000000
     atom    3 type  1   force =     0.00000000    0.00000000    0.00000000
     atom    4 type  1   force =     0.00000000   -0.00000000   -0.00000000

     Total force =     0.000000     Total SCF correction =     0.000000

     Writing all to output data dir ./pwscf.save/
 
     init_run     :      0.54s CPU      0.58s WALL (       1 calls)
     electrons    :     13.23s CPU     13.66s WALL (       1 calls)
     forces       :      0.07s CPU      0.08s WALL (       1 calls)

     Called by init_run:
     wfcinit      :      0.30s CPU      0.31s WALL (       1 calls)
     potinit      :      0.09s CPU      0.10s WALL (       1 calls)
     hinit0       :      0.16s CPU      0.16s WALL (       1 calls)

     Called by electrons:
     c_bands      :     12.27s CPU     12.62s WALL (       6 calls)
     sum_band     :      0.47s CPU      0.50s WALL (       6 calls)
     v_of_rho     :      0.01s CPU      0.01s WALL (       7 calls)
     newd         :      0.01s CPU      0.01s WALL (       7 calls)
     PAW_pot      :      0.54s CPU      0.58s WALL (       7 calls)
     mix_rho      :      0.00s CPU      0.00s WALL (       6 calls)

     Called by c_bands:
     init_us_2    :      0.03s CPU      0.03s WALL (    1176 calls)
     init_us_2:cp :      0.03s CPU      0.03s WALL (    1176 calls)
     cegterg      :     12.10s CPU     12.44s WALL (     504 calls)

     Called by *egterg:
     cdiaghg      :      6.48s CPU      6.60s WALL (    5134 calls)
     h_psi        :      3.73s CPU      3.90s WALL (    5218 calls)
     s_psi        :      0.16s CPU      0.17s WALL (    5218 calls)
     g_psi        :      0.02s CPU      0.02s WALL (    4630 calls)

     Called by h_psi:
     h_psi:calbec :      0.39s CPU      0.41s WALL (    5218 calls)
     vloc_psi     :      3.14s CPU      3.28s WALL (    5218 calls)
     add_vuspsi   :      0.18s CPU      0.19s WALL (    5218 calls)

     General routines
     calbec       :      0.47s CPU      0.49s WALL (    6058 calls)
     fft          :      0.00s CPU      0.00s WALL (      88 calls)
     ffts         :      0.00s CPU      0.00s WALL (       6 calls)
     fftw         :      3.20s CPU      3.35s WALL (  142390 calls)
 
     Parallel routines
 
     PWSCF        :     14.41s CPU     16.08s WALL

 
   This run was terminated on:  12:36: 7   5Apr2024            

=------------------------------------------------------------------------------=
   JOB DONE.
=------------------------------------------------------------------------------=
