MPI startup(): Warning: I_MPI_PMI_LIBRARY will be ignored since the hydra process manager was found
MPI startup(): Warning: I_MPI_PMI_LIBRARY will be ignored since the hydra process manager was found
MPI startup(): Warning: I_MPI_PMI_LIBRARY will be ignored since the hydra process manager was found
MPI startup(): Warning: I_MPI_PMI_LIBRARY will be ignored since the hydra process manager was found
MPI startup(): Warning: I_MPI_PMI_LIBRARY will be ignored since the hydra process manager was found
MPI startup(): Warning: I_MPI_PMI_LIBRARY will be ignored since the hydra process manager was found
MPI startup(): Warning: I_MPI_PMI_LIBRARY will be ignored since the hydra process manager was found
MPI startup(): Warning: I_MPI_PMI_LIBRARY will be ignored since the hydra process manager was found
MPI startup(): Warning: I_MPI_PMI_LIBRARY will be ignored since the hydra process manager was found
MPI startup(): Warning: I_MPI_PMI_LIBRARY will be ignored since the hydra process manager was found

     Program PWSCF v.7.0 starts on  5Apr2024 at 12:35:52 

     This program is part of the open-source Quantum ESPRESSO suite
     for quantum simulation of materials; please cite
         "P. Giannozzi et al., J. Phys.:Condens. Matter 21 395502 (2009);
         "P. Giannozzi et al., J. Phys.:Condens. Matter 29 465901 (2017);
         "P. Giannozzi et al., J. Chem. Phys. 152 154105 (2020);
          URL http://www.quantum-espresso.org", 
     in publications or presentations arising from this work. More details at
     http://www.quantum-espresso.org/quote

     Parallel version (MPI), running on    10 processors

     MPI processes distributed on     1 nodes
     R & G space division:  proc/nbgrp/npool/nimage =      10
     225993 MiB available memory on the printing compute node when the environment starts
 
     Reading input from VolumeFCC_9.3.in
Warning: card &CELL ignored
Warning: card / ignored

     Current dimensions of program PWSCF are:
     Max number of different atomic species (ntypx) = 10
     Max number of k-points (npk) =  40000
     Max angular momentum in pseudopotentials (lmaxx) =  4
     file Au.pbe-n-kjpaw_psl.1.0.0.UPF: wavefunction(s)  6S 5D renormalized
     Found identity + (  0.5000  0.5000  0.0000) symmetry
     This is a supercell, fractional translations are disabled
     Message from routine setup:
     using ibrav=0 with symmetry is DISCOURAGED, use correct ibrav instead

     Subspace diagonalization in iterative solution of the eigenvalue problem:
     one sub-group per band group will be used
     scalapack distributed-memory algorithm (size of sub-group:  3*  3 procs)

 
     Parallelization info
     --------------------
     sticks:   dense  smooth     PW     G-vecs:    dense   smooth      PW
     Min         136     136     40                 3848     3848     604
     Max         137     137     42                 3851     3851     605
     Sum        1369    1369    405                38497    38497    6043
 
     Using Slab Decomposition
 


     bravais-lattice index     =            0
     lattice parameter (alat)  =       9.2987  a.u.
     unit-cell volume          =     804.0074 (a.u.)^3
     number of atoms/cell      =            4
     number of atomic types    =            1
     number of electrons       =        44.00
     number of Kohn-Sham states=           26
     kinetic-energy cutoff     =      50.0000  Ry
     charge density cutoff     =     200.0000  Ry
     scf convergence threshold =      1.0E-06
     mixing beta               =       0.7000
     number of iterations used =            8  plain     mixing
     Exchange-correlation= SLA  PW   PBX  PBC
                           (   1   4   3   4   0   0   0)

     celldm(1)=   9.298652  celldm(2)=   0.000000  celldm(3)=   0.000000
     celldm(4)=   0.000000  celldm(5)=   0.000000  celldm(6)=   0.000000

     crystal axes: (cart. coord. in units of alat)
               a(1) = (   1.000000   0.000000   0.000000 )  
               a(2) = (   0.000000   1.000000   0.000000 )  
               a(3) = (   0.000000   0.000000   1.000000 )  

     reciprocal axes: (cart. coord. in units 2 pi/alat)
               b(1) = (  1.000000  0.000000  0.000000 )  
               b(2) = (  0.000000  1.000000  0.000000 )  
               b(3) = (  0.000000  0.000000  1.000000 )  


     PseudoPot. # 1 for Au read from file:
     ./Au.pbe-n-kjpaw_psl.1.0.0.UPF
     MD5 check sum: 4db85c736373c707a97ce4c36c2a9d23
     Pseudo is Projector augmented-wave + core cor, Zval = 11.0
     Generated using &quot;atomic&quot; code by A. Dal Corso  v.6.3
     Shape of augmentation charge: PSQ
     Using radial grid of 1279 points,  6 beta functions with: 
                l(1) =   0
                l(2) =   0
                l(3) =   1
                l(4) =   1
                l(5) =   2
                l(6) =   2
     Q(r) pseudized with 0 coefficients 


     atomic species   valence    mass     pseudopotential
        Au            11.00   196.96657     Au( 1.00)

     48 Sym. Ops., with inversion, found



   Cartesian axes

     site n.     atom                  positions (alat units)
         1           Au  tau(   1) = (   0.0000000   0.0000000   0.0000000  )
         2           Au  tau(   2) = (   0.5000000   0.5000000   0.0000000  )
         3           Au  tau(   3) = (   0.5000000   0.0000000   0.5000000  )
         4           Au  tau(   4) = (   0.0000000   0.5000000   0.5000000  )

     number of k points=    84  Gaussian smearing, width (Ry)=  0.2000
                       cart. coord. in units 2pi/alat
        k(    1) = (   0.0000000   0.0000000   0.0000000), wk =   0.0011574
        k(    2) = (   0.0000000   0.0000000   0.0833333), wk =   0.0069444
        k(    3) = (   0.0000000   0.0000000   0.1666667), wk =   0.0069444
        k(    4) = (   0.0000000   0.0000000   0.2500000), wk =   0.0069444
        k(    5) = (   0.0000000   0.0000000   0.3333333), wk =   0.0069444
        k(    6) = (   0.0000000   0.0000000   0.4166667), wk =   0.0069444
        k(    7) = (   0.0000000   0.0000000  -0.5000000), wk =   0.0034722
        k(    8) = (   0.0000000   0.0833333   0.0833333), wk =   0.0138889
        k(    9) = (   0.0000000   0.0833333   0.1666667), wk =   0.0277778
        k(   10) = (   0.0000000   0.0833333   0.2500000), wk =   0.0277778
        k(   11) = (   0.0000000   0.0833333   0.3333333), wk =   0.0277778
        k(   12) = (   0.0000000   0.0833333   0.4166667), wk =   0.0277778
        k(   13) = (   0.0000000   0.0833333  -0.5000000), wk =   0.0138889
        k(   14) = (   0.0000000   0.1666667   0.1666667), wk =   0.0138889
        k(   15) = (   0.0000000   0.1666667   0.2500000), wk =   0.0277778
        k(   16) = (   0.0000000   0.1666667   0.3333333), wk =   0.0277778
        k(   17) = (   0.0000000   0.1666667   0.4166667), wk =   0.0277778
        k(   18) = (   0.0000000   0.1666667  -0.5000000), wk =   0.0138889
        k(   19) = (   0.0000000   0.2500000   0.2500000), wk =   0.0138889
        k(   20) = (   0.0000000   0.2500000   0.3333333), wk =   0.0277778
        k(   21) = (   0.0000000   0.2500000   0.4166667), wk =   0.0277778
        k(   22) = (   0.0000000   0.2500000  -0.5000000), wk =   0.0138889
        k(   23) = (   0.0000000   0.3333333   0.3333333), wk =   0.0138889
        k(   24) = (   0.0000000   0.3333333   0.4166667), wk =   0.0277778
        k(   25) = (   0.0000000   0.3333333  -0.5000000), wk =   0.0138889
        k(   26) = (   0.0000000   0.4166667   0.4166667), wk =   0.0138889
        k(   27) = (   0.0000000   0.4166667  -0.5000000), wk =   0.0138889
        k(   28) = (   0.0000000  -0.5000000  -0.5000000), wk =   0.0034722
        k(   29) = (   0.0833333   0.0833333   0.0833333), wk =   0.0092593
        k(   30) = (   0.0833333   0.0833333   0.1666667), wk =   0.0277778
        k(   31) = (   0.0833333   0.0833333   0.2500000), wk =   0.0277778
        k(   32) = (   0.0833333   0.0833333   0.3333333), wk =   0.0277778
        k(   33) = (   0.0833333   0.0833333   0.4166667), wk =   0.0277778
        k(   34) = (   0.0833333   0.0833333  -0.5000000), wk =   0.0138889
        k(   35) = (   0.0833333   0.1666667   0.1666667), wk =   0.0277778
        k(   36) = (   0.0833333   0.1666667   0.2500000), wk =   0.0555556
        k(   37) = (   0.0833333   0.1666667   0.3333333), wk =   0.0555556
        k(   38) = (   0.0833333   0.1666667   0.4166667), wk =   0.0555556
        k(   39) = (   0.0833333   0.1666667  -0.5000000), wk =   0.0277778
        k(   40) = (   0.0833333   0.2500000   0.2500000), wk =   0.0277778
        k(   41) = (   0.0833333   0.2500000   0.3333333), wk =   0.0555556
        k(   42) = (   0.0833333   0.2500000   0.4166667), wk =   0.0555556
        k(   43) = (   0.0833333   0.2500000  -0.5000000), wk =   0.0277778
        k(   44) = (   0.0833333   0.3333333   0.3333333), wk =   0.0277778
        k(   45) = (   0.0833333   0.3333333   0.4166667), wk =   0.0555556
        k(   46) = (   0.0833333   0.3333333  -0.5000000), wk =   0.0277778
        k(   47) = (   0.0833333   0.4166667   0.4166667), wk =   0.0277778
        k(   48) = (   0.0833333   0.4166667  -0.5000000), wk =   0.0277778
        k(   49) = (   0.0833333  -0.5000000  -0.5000000), wk =   0.0069444
        k(   50) = (   0.1666667   0.1666667   0.1666667), wk =   0.0092593
        k(   51) = (   0.1666667   0.1666667   0.2500000), wk =   0.0277778
        k(   52) = (   0.1666667   0.1666667   0.3333333), wk =   0.0277778
        k(   53) = (   0.1666667   0.1666667   0.4166667), wk =   0.0277778
        k(   54) = (   0.1666667   0.1666667  -0.5000000), wk =   0.0138889
        k(   55) = (   0.1666667   0.2500000   0.2500000), wk =   0.0277778
        k(   56) = (   0.1666667   0.2500000   0.3333333), wk =   0.0555556
        k(   57) = (   0.1666667   0.2500000   0.4166667), wk =   0.0555556
        k(   58) = (   0.1666667   0.2500000  -0.5000000), wk =   0.0277778
        k(   59) = (   0.1666667   0.3333333   0.3333333), wk =   0.0277778
        k(   60) = (   0.1666667   0.3333333   0.4166667), wk =   0.0555556
        k(   61) = (   0.1666667   0.3333333  -0.5000000), wk =   0.0277778
        k(   62) = (   0.1666667   0.4166667   0.4166667), wk =   0.0277778
        k(   63) = (   0.1666667   0.4166667  -0.5000000), wk =   0.0277778
        k(   64) = (   0.1666667  -0.5000000  -0.5000000), wk =   0.0069444
        k(   65) = (   0.2500000   0.2500000   0.2500000), wk =   0.0092593
        k(   66) = (   0.2500000   0.2500000   0.3333333), wk =   0.0277778
        k(   67) = (   0.2500000   0.2500000   0.4166667), wk =   0.0277778
        k(   68) = (   0.2500000   0.2500000  -0.5000000), wk =   0.0138889
        k(   69) = (   0.2500000   0.3333333   0.3333333), wk =   0.0277778
        k(   70) = (   0.2500000   0.3333333   0.4166667), wk =   0.0555556
        k(   71) = (   0.2500000   0.3333333  -0.5000000), wk =   0.0277778
        k(   72) = (   0.2500000   0.4166667   0.4166667), wk =   0.0277778
        k(   73) = (   0.2500000   0.4166667  -0.5000000), wk =   0.0277778
        k(   74) = (   0.2500000  -0.5000000  -0.5000000), wk =   0.0069444
        k(   75) = (   0.3333333   0.3333333   0.3333333), wk =   0.0092593
        k(   76) = (   0.3333333   0.3333333   0.4166667), wk =   0.0277778
        k(   77) = (   0.3333333   0.3333333  -0.5000000), wk =   0.0138889
        k(   78) = (   0.3333333   0.4166667   0.4166667), wk =   0.0277778
        k(   79) = (   0.3333333   0.4166667  -0.5000000), wk =   0.0277778
        k(   80) = (   0.3333333  -0.5000000  -0.5000000), wk =   0.0069444
        k(   81) = (   0.4166667   0.4166667   0.4166667), wk =   0.0092593
        k(   82) = (   0.4166667   0.4166667  -0.5000000), wk =   0.0138889
        k(   83) = (   0.4166667  -0.5000000  -0.5000000), wk =   0.0069444
        k(   84) = (  -0.5000000  -0.5000000  -0.5000000), wk =   0.0011574

     Dense  grid:    38497 G-vectors     FFT dimensions: (  45,  45,  45)

     Estimated max dynamical RAM per process >      31.71 MB

     Estimated total dynamical RAM >     317.09 MB

     Initial potential from superposition of free atoms

     starting charge      43.9996, renormalised to      44.0000
     Starting wfcs are   36 randomized atomic wfcs
     Checking if some PAW data can be deallocated... 

     total cpu time spent up to now is        3.9 secs

     Self-consistent Calculation

     iteration #  1     ecut=    50.00 Ry     beta= 0.70
     Davidson diagonalization with overlap
     ethr =  1.00E-02,  avg # of iterations =  2.2

     Threshold (ethr) on eigenvalues was too large:
     Diagonalizing with lowered threshold

     Davidson diagonalization with overlap
     ethr =  7.06E-04,  avg # of iterations =  3.1

     total cpu time spent up to now is        8.8 secs

     total energy              =   -3100.47407276 Ry
     estimated scf accuracy    <       0.33773102 Ry

     iteration #  2     ecut=    50.00 Ry     beta= 0.70
     Davidson diagonalization with overlap
     ethr =  7.68E-04,  avg # of iterations =  2.2

     total cpu time spent up to now is       11.8 secs

     total energy              =   -3100.59911873 Ry
     estimated scf accuracy    <       0.14174345 Ry

     iteration #  3     ecut=    50.00 Ry     beta= 0.70
     Davidson diagonalization with overlap
     ethr =  3.22E-04,  avg # of iterations =  1.8

     total cpu time spent up to now is       14.0 secs

     total energy              =   -3100.62007040 Ry
     estimated scf accuracy    <       0.00614813 Ry

     iteration #  4     ecut=    50.00 Ry     beta= 0.70
     Davidson diagonalization with overlap
     ethr =  1.40E-05,  avg # of iterations =  5.8

     total cpu time spent up to now is       18.2 secs

     total energy              =   -3100.62456489 Ry
     estimated scf accuracy    <       0.00233314 Ry

     iteration #  5     ecut=    50.00 Ry     beta= 0.70
     Davidson diagonalization with overlap
     ethr =  5.30E-06,  avg # of iterations =  6.1

     total cpu time spent up to now is       23.0 secs

     total energy              =   -3100.61933426 Ry
     estimated scf accuracy    <       0.02489663 Ry

     iteration #  6     ecut=    50.00 Ry     beta= 0.70
     Davidson diagonalization with overlap
     ethr =  5.30E-06,  avg # of iterations =  4.8

     total cpu time spent up to now is       26.9 secs

     total energy              =   -3100.62376325 Ry
     estimated scf accuracy    <       0.00016201 Ry

     iteration #  7     ecut=    50.00 Ry     beta= 0.70
     Davidson diagonalization with overlap
     c_bands:  1 eigenvalues not converged
     ethr =  3.68E-07,  avg # of iterations =  7.5

     total cpu time spent up to now is       32.4 secs

     total energy              =   -3100.62399118 Ry
     estimated scf accuracy    <       0.00000609 Ry

     iteration #  8     ecut=    50.00 Ry     beta= 0.70
     Davidson diagonalization with overlap
     c_bands:  2 eigenvalues not converged
     c_bands:  2 eigenvalues not converged
     ethr =  1.38E-08,  avg # of iterations =  9.4

     total cpu time spent up to now is       39.1 secs

     total energy              =   -3100.62395166 Ry
     estimated scf accuracy    <       0.00008948 Ry

     iteration #  9     ecut=    50.00 Ry     beta= 0.70
     Davidson diagonalization with overlap
     c_bands:  1 eigenvalues not converged
     ethr =  1.38E-08,  avg # of iterations =  8.3

     total cpu time spent up to now is       45.2 secs

     total energy              =   -3100.62399346 Ry
     estimated scf accuracy    <       0.00005598 Ry

     iteration # 10     ecut=    50.00 Ry     beta= 0.70
     Davidson diagonalization with overlap
     ethr =  1.38E-08,  avg # of iterations =  3.0

     total cpu time spent up to now is       48.1 secs

     total energy              =   -3100.62399191 Ry
     estimated scf accuracy    <       0.00001311 Ry

     iteration # 11     ecut=    50.00 Ry     beta= 0.70
     Davidson diagonalization with overlap
     ethr =  1.38E-08,  avg # of iterations =  3.0

     total cpu time spent up to now is       50.9 secs

     total energy              =   -3100.62399357 Ry
     estimated scf accuracy    <       0.00000191 Ry

     iteration # 12     ecut=    50.00 Ry     beta= 0.70
     Davidson diagonalization with overlap
     ethr =  4.34E-09,  avg # of iterations =  3.6

     total cpu time spent up to now is       53.3 secs

     total energy              =   -3100.62399306 Ry
     estimated scf accuracy    <       0.00000141 Ry

     iteration # 13     ecut=    50.00 Ry     beta= 0.70
     Davidson diagonalization with overlap
     ethr =  3.20E-09,  avg # of iterations =  3.6

     total cpu time spent up to now is       56.4 secs

     End of self-consistent calculation

          k = 0.0000 0.0000 0.0000 (  4801 PWs)   bands (ev):

     0.9188   2.4614   2.4617   2.4617   2.5208   2.5208   2.5208   3.2338
     3.2338   3.2338   3.7450   3.7450   4.1429   4.1429   4.1432   4.2785
     4.2785   4.2785   4.2787   4.2787   4.2787   8.5577   8.5577   8.5579
     8.5751   8.5751

          k = 0.0000 0.0000 0.0833 (  4833 PWs)   bands (ev):

     0.9686   2.4743   2.4845   2.4847   2.5321   2.5398   2.5398   3.2208
     3.2481   3.2481   3.7318   3.7515   4.1251   4.1253   4.1360   4.2244
     4.2244   4.2558   4.2558   4.2785   4.2787   7.4383   8.5466   8.5468
     8.6747   8.6747

          k = 0.0000 0.0000 0.1667 (  4817 PWs)   bands (ev):

     1.1168   2.5099   2.5507   2.5509   2.5655   2.5967   2.5967   3.1827
     3.2904   3.2904   3.6942   3.7707   4.0730   4.0732   4.0768   4.0768
     4.1154   4.1906   4.1906   4.2786   4.2787   6.4032   8.5158   8.5160
     8.9576   8.9576

          k = 0.0000 0.0000 0.2500 (  4797 PWs)   bands (ev):

     1.3584   2.5585   2.6191   2.6513   2.6515   2.6910   2.6910   3.1228
     3.3593   3.3593   3.6396   3.8014   3.8696   3.8696   3.9915   3.9917
     4.0828   4.0907   4.0907   4.2787   4.2788   5.4728   8.4728   8.4730
     9.3881   9.3881

          k = 0.0000 0.0000 0.3333 (  4837 PWs)   bands (ev):

     1.6816   2.5973   2.6897   2.7688   2.7689   2.8215   2.8215   3.0457
     3.4524   3.4524   3.5841   3.6363   3.6363   3.8417   3.8927   3.8929
     3.9671   3.9671   4.0406   4.2788   4.2789   4.6684   8.4287   8.4289
     9.9287   9.9287

          k = 0.0000 0.0000 0.4167 (  4825 PWs)   bands (ev):

     2.0547   2.5734   2.7733   2.8723   2.8725   2.9575   2.9861   2.9861
     3.4015   3.4015   3.5649   3.5661   3.5661   3.8025   3.8027   3.8315
     3.8315   3.8890   3.9919   4.0392   4.2789   4.2790   8.3958   8.3959
    10.5492  10.5492

          k = 0.0000 0.0000-0.5000 (  4828 PWs)   bands (ev):

     2.3940   2.3942   2.8644   2.8646   2.9161   2.9163   3.1814   3.1814
     3.1816   3.1816   3.6720   3.6722   3.6947   3.6947   3.6949   3.6949
     3.7636   3.7638   3.9402   3.9403   4.2789   4.2790   8.3835   8.3837
    11.2250  11.2250

          k = 0.0000 0.0833 0.0833 (  4815 PWs)   bands (ev):

     1.0179   2.4974   2.4976   2.4997   2.5510   2.5510   2.5657   3.2177
     3.2527   3.2613   3.7287   3.7492   4.1082   4.1110   4.1111   4.1887
     4.2077   4.2078   4.2558   4.2558   4.2622   7.4964   7.4965   8.5333
     8.7722   9.8043

          k = 0.0000 0.0833 0.1667 (  4816 PWs)   bands (ev):

     1.1646   2.5337   2.5475   2.5644   2.5836   2.6071   2.6380   3.1851
     3.2904   3.3002   3.6965   3.7673   4.0090   4.0545   4.0582   4.0632
     4.1088   4.1658   4.1903   4.2544   4.2556   6.4766   7.6456   8.4951
     9.0500   9.8896

          k = 0.0000 0.0833 0.2500 (  4799 PWs)   bands (ev):

     1.4036   2.5835   2.6292   2.6360   2.6659   2.7002   2.7459   3.1276
     3.3584   3.3612   3.6477   3.8018   3.8160   3.8554   3.9729   3.9798
     4.0143   4.0902   4.1142   4.2530   4.2554   5.5637   7.8286   8.4375
     9.4744  10.0571

          k = 0.0000 0.0833 0.3333 (  4799 PWs)   bands (ev):

     1.7227   2.6243   2.7052   2.7398   2.7847   2.8288   2.8760   3.0527
     3.4291   3.4513   3.5912   3.6137   3.6286   3.8420   3.8482   3.8849
     3.9113   3.9663   4.0571   4.2530   4.2550   4.7871   7.9932   8.3679
    10.0094  10.3268

          k = 0.0000 0.0833 0.4167 (  4806 PWs)   bands (ev):

     2.0905   2.6028   2.7868   2.8592   2.8887   2.9667   2.9911   3.0144
     3.3690   3.3991   3.4638   3.5648   3.6667   3.6756   3.7998   3.8158
     3.8305   3.9049   3.9847   4.2159   4.2534   4.2545   8.1184   8.2928
    10.6253  10.6957

          k = 0.0000 0.0833-0.5000 (  4808 PWs)   bands (ev):

     2.4254   2.4256   2.8759   2.8761   2.9258   2.9260   3.1721   3.1723
     3.1831   3.1833   3.5213   3.5215   3.6935   3.6937   3.7683   3.7685
     3.8231   3.8232   3.9789   3.9790   4.2539   4.2540   8.2127   8.2128
    11.1364  11.1365

          k = 0.0000 0.1667 0.1667 (  4811 PWs)   bands (ev):

     1.3066   2.5693   2.6024   2.6026   2.6377   2.6377   2.7271   3.1756
     3.3079   3.3287   3.6856   3.7776   3.9118   3.9119   3.9668   4.0142
     4.1115   4.1115   4.1895   4.1896   4.2138   6.6707   6.6708   8.4325
     9.3150  11.0401

          k = 0.0000 0.1667 0.2500 (  4796 PWs)   bands (ev):

     1.5372   2.6273   2.6559   2.6866   2.7072   2.7270   2.8437   3.1347
     3.3636   3.3696   3.6523   3.7058   3.7856   3.8046   3.8216   3.9446
     4.0332   4.0853   4.0886   4.1883   4.1929   5.7940   6.9337   8.3272
     9.7237  11.0095

          k = 0.0000 0.1667 0.3333 (  4814 PWs)   bands (ev):

     1.8432   2.7026   2.7198   2.7510   2.8302   2.8503   2.9706   3.0703
     3.3988   3.4515   3.4876   3.6021   3.6338   3.6409   3.8601   3.8917
     3.9358   3.9640   4.0318   4.1855   4.1868   5.0516   7.2210   8.1792
    10.2440  10.9819

          k = 0.0000 0.1667 0.4167 (  4806 PWs)   bands (ev):

     2.1938   2.6873   2.8269   2.8387   2.9360   2.9927   3.0052   3.0804
     3.2895   3.3872   3.3902   3.4769   3.5629   3.7063   3.7880   3.8278
     3.8370   3.9487   3.9917   4.1836   4.1852   4.4938   7.5032   7.9899
    10.8476  10.9875

          k = 0.0000 0.1667-0.5000 (  4800 PWs)   bands (ev):

     2.5145   2.5147   2.9093   2.9095   2.9462   2.9463   3.1583   3.1584
     3.1873   3.1875   3.3865   3.3866   3.6909   3.6910   3.7745   3.7747
     3.8302   3.8302   4.1595   4.1596   4.1839   4.1840   7.7627   7.7628
    11.0647  11.0649

          k = 0.0000 0.2500 0.2500 (  4801 PWs)   bands (ev):

     1.7522   2.6598   2.7668   2.7670   2.7700   2.7700   2.9615   3.1247
     3.3851   3.3951   3.5697   3.5698   3.6310   3.7007   3.8873   3.8885
     4.0213   4.0215   4.0863   4.0863   4.1358   6.0991   6.0992   8.1349
    10.1127  11.5081

          k = 0.0000 0.2500 0.3333 (  4819 PWs)   bands (ev):

     2.0336   2.7271   2.8234   2.8261   2.8843   2.8991   3.0809   3.0871
     3.3596   3.3880   3.4225   3.4650   3.5475   3.6196   3.8166   3.9339
     3.9610   3.9737   3.9998   4.0838   4.1024   5.3766   6.4415   7.8629
    10.6136  11.2044

          k = 0.0000 0.2500 0.4167 (  4795 PWs)   bands (ev):

     2.3505   2.8141   2.8274   2.8916   3.0094   3.0265   3.0292   3.1671
     3.1906   3.3062   3.3473   3.3700   3.5668   3.6728   3.7600   3.8251
     3.8379   3.8897   4.0819   4.0874   4.1607   4.8050   6.8025   7.5318
    11.0904  11.2008

          k = 0.0000 0.2500-0.5000 (  4810 PWs)   bands (ev):

     2.6431   2.6432   2.9520   2.9520   2.9613   2.9614   3.1754   3.1754
     3.1913   3.1915   3.2938   3.2939   3.6901   3.6902   3.7651   3.7652
     3.7784   3.7784   4.0822   4.0823   4.4087   4.4088   7.1706   7.1707
    11.1401  11.1402

          k = 0.0000 0.3333 0.3333 (  4773 PWs)   bands (ev):

     2.2746   2.7642   2.9278   2.9279   2.9713   2.9715   3.0879   3.1902
     3.2306   3.2308   3.3884   3.4557   3.5078   3.5848   3.7583   3.8931
     3.8932   3.9587   3.9588   4.0323   4.1628   5.7375   5.7376   7.4519
    11.0745  11.0947

          k = 0.0000 0.3333 0.4167 (  4796 PWs)   bands (ev):

     2.5342   2.8326   2.9478   2.9767   3.0517   3.0654   3.0659   3.1233
     3.1881   3.2622   3.3307   3.3500   3.5875   3.6092   3.7102   3.8017
     3.8118   3.8255   3.9595   3.9887   4.3861   5.1502   6.1297   7.0006
    11.1366  11.7061

          k = 0.0000 0.3333-0.5000 (  4792 PWs)   bands (ev):

     2.7722   2.7723   2.9332   2.9333   3.0251   3.0252   3.1901   3.1902
     3.2386   3.2387   3.2653   3.2654   3.6974   3.6975   3.7037   3.7038
     3.7249   3.7251   3.9673   3.9674   4.7026   4.7027   6.5527   6.5527
    11.3557  11.3558

          k = 0.0000 0.4167 0.4167 (  4790 PWs)   bands (ev):

     2.7093   2.8590   2.9694   2.9696   3.0753   3.0754   3.0880   3.2174
     3.2176   3.2657   3.3373   3.3693   3.5656   3.6375   3.6527   3.7240
     3.7242   3.8341   3.8343   3.9093   4.6750   5.5376   5.5377   6.4686
    11.3464  12.1639

          k = 0.0000 0.4167-0.5000 (  4784 PWs)   bands (ev):

     2.8525   2.8526   2.9083   2.9084   3.0901   3.0902   3.1765   3.1766
     3.3173   3.3173   3.3225   3.3226   3.6227   3.6227   3.6518   3.6519
     3.7221   3.7222   3.8591   3.8591   5.0521   5.0521   5.9763   5.9763
    11.6937  11.6938

          k = 0.0000-0.5000-0.5000 (  4812 PWs)   bands (ev):

     2.8859   2.8859   2.8860   2.8862   3.1434   3.1434   3.1436   3.1436
     3.3728   3.3731   3.3732   3.3732   3.5866   3.5866   3.5866   3.5868
     3.7745   3.7746   3.7747   3.7747   5.4734   5.4734   5.4735   5.4735
    12.1453  12.1454

          k = 0.0833 0.0833 0.0833 (  4818 PWs)   bands (ev):

     1.0667   2.5119   2.5122   2.5122   2.5772   2.5773   2.5773   3.2164
     3.2647   3.2647   3.7369   3.7369   4.0927   4.0927   4.0930   4.1625
     4.1625   4.1626   4.2493   4.2494   4.2494   7.5504   7.5504   7.5506
     9.8272   9.8273

          k = 0.0833 0.0833 0.1667 (  4802 PWs)   bands (ev):

     1.2116   2.5467   2.5590   2.5591   2.6113   2.6501   2.6501   3.1893
     3.2979   3.3005   3.7030   3.7611   3.9986   3.9986   4.0465   4.0712
     4.0713   4.0861   4.2143   4.2422   4.2423   6.5463   7.6882   7.6883
     9.9035   9.9035

          k = 0.0833 0.0833 0.2500 (  4803 PWs)   bands (ev):

     1.4474   2.5946   2.6398   2.6399   2.6654   2.7582   2.7583   3.1352
     3.3590   3.3592   3.6594   3.7998   3.8066   3.8066   3.9648   3.9706
     3.9909   3.9911   4.1643   4.2373   4.2374   5.6470   7.8532   7.8533
    10.0502  10.0502

          k = 0.0833 0.0833 0.3333 (  4802 PWs)   bands (ev):

     1.7614   2.6362   2.7338   2.7502   2.7504   2.8869   2.8870   3.0635
     3.4186   3.4381   3.5873   3.5873   3.6455   3.8038   3.8504   3.8715
     3.8964   3.8966   4.1052   4.2345   4.2347   4.8833   7.9909   7.9910
    10.2743  10.2744

          k = 0.0833 0.0833 0.4167 (  4808 PWs)   bands (ev):

     2.1219   2.6198   2.8110   2.8719   2.8721   2.9812   3.0171   3.0172
     3.3739   3.3740   3.4340   3.5347   3.6160   3.7352   3.7591   3.8077
     3.8078   3.9099   4.0409   4.2332   4.2333   4.3054   8.0738   8.0739
    10.5333  10.5334

          k = 0.0833 0.0833-0.5000 (  4818 PWs)   bands (ev):

     2.4488   2.4490   2.8948   2.8949   2.9364   2.9365   3.1189   3.1191
     3.2296   3.2298   3.4722   3.4724   3.6438   3.6440   3.7681   3.7683
     3.9421   3.9423   3.9745   3.9746   4.2328   4.2329   8.1003   8.1005
    10.6723  10.6725

          k = 0.0833 0.1667 0.1667 (  4811 PWs)   bands (ev):

     1.3510   2.5788   2.5907   2.5909   2.6861   2.6862   2.7403   3.1856
     3.3121   3.3254   3.7001   3.7673   3.9044   3.9045   3.9368   3.9869
     4.0355   4.0356   4.2120   4.2120   4.2174   6.7321   6.7321   7.7929
     9.9476  10.9819

          k = 0.0833 0.1667 0.2500 (  4803 PWs)   bands (ev):

     1.5766   2.6347   2.6348   2.6687   2.7435   2.7954   2.8568   3.1509
     3.3594   3.3652   3.6734   3.7010   3.7694   3.7772   3.8136   3.9269
     3.9534   3.9813   4.1700   4.1964   4.1980   5.8641   6.9857   7.9015
    10.0258  10.8715

          k = 0.0833 0.1667 0.3333 (  4810 PWs)   bands (ev):

     1.8742   2.6744   2.7255   2.7774   2.8138   2.9212   2.9805   3.0927
     3.3934   3.4294   3.4913   3.5723   3.6205   3.6830   3.8441   3.8524
     3.8841   3.9022   4.1141   4.1830   4.1858   5.1208   7.2623   7.9498
    10.1327  10.7161

          k = 0.0833 0.1667 0.4167 (  4807 PWs)   bands (ev):

     2.2111   2.6654   2.8440   2.8843   2.9052   3.0234   3.0249   3.0733
     3.3173   3.3775   3.3868   3.4595   3.5146   3.7270   3.7813   3.7868
     3.8151   3.9811   4.0401   4.1765   4.1783   4.5419   7.5271   7.8988
    10.2539  10.5445

          k = 0.0833 0.1667-0.5000 (  4812 PWs)   bands (ev):

     2.5122   2.5124   2.9522   2.9524   2.9576   2.9577   3.0666   3.0667
     3.2752   3.2753   3.3717   3.3719   3.6148   3.6149   3.7611   3.7613
     3.9351   3.9351   4.1638   4.1639   4.1752   4.1753   7.7493   7.7494
    10.3877  10.3878

          k = 0.0833 0.2500 0.2500 (  4806 PWs)   bands (ev):

     1.7830   2.6639   2.7070   2.7071   2.8560   2.8562   2.9728   3.1531
     3.3804   3.3806   3.5682   3.5683   3.6618   3.6776   3.8521   3.8783
     3.9219   3.9220   4.1483   4.1483   4.1535   6.1594   6.1594   7.9045
     9.9937  11.6027

          k = 0.0833 0.2500 0.3333 (  4805 PWs)   bands (ev):

     2.0496   2.7272   2.7395   2.8091   2.9324   2.9813   3.0840   3.1282
     3.3744   3.3854   3.4239   3.4304   3.5371   3.6716   3.7862   3.8227
     3.8677   3.9889   4.0870   4.1200   4.1212   5.4322   6.4960   7.7883
    10.0141  11.1608

          k = 0.0833 0.2500 0.4167 (  4805 PWs)   bands (ev):

     2.3420   2.7283   2.8226   2.9333   3.0031   3.0429   3.0870   3.1371
     3.2673   3.3061   3.3445   3.4045   3.5028   3.7076   3.7334   3.7594
     3.7947   4.0028   4.1005   4.1022   4.1524   4.8416   6.8527   7.5401
    10.1481  10.7457

          k = 0.0833 0.2500-0.5000 (  4802 PWs)   bands (ev):

     2.5964   2.5965   2.9415   2.9416   3.0466   3.0467   3.0673   3.0673
     3.2895   3.2897   3.3200   3.3201   3.5968   3.5969   3.7337   3.7338
     3.8888   3.8888   4.0950   4.0951   4.4172   4.4173   7.2107   7.2108
    10.3992  10.3994

          k = 0.0833 0.3333 0.3333 (  4800 PWs)   bands (ev):

     2.2659   2.7572   2.8260   2.8261   3.0655   3.0656   3.1489   3.1716
     3.2597   3.2598   3.3947   3.4468   3.4785   3.6586   3.7177   3.7878
     3.7878   4.0474   4.0474   4.0623   4.1528   5.7885   5.7885   7.4678
    10.0566  11.6408

          k = 0.0833 0.3333 0.4167 (  4798 PWs)   bands (ev):

     2.4891   2.7944   2.8147   2.9095   3.0867   3.1469   3.1514   3.1838
     3.1906   3.2605   3.3623   3.4298   3.4943   3.6689   3.6832   3.7186
     3.7349   3.9544   4.0153   4.0211   4.3827   5.1855   6.1812   7.0482
    10.2749  11.0899

          k = 0.0833 0.3333-0.5000 (  4790 PWs)   bands (ev):

     2.6781   2.6781   2.8904   2.8905   3.1109   3.1109   3.1412   3.1412
     3.2764   3.2765   3.3703   3.3703   3.5788   3.5788   3.6785   3.6786
     3.8371   3.8371   4.0048   4.0049   4.7160   4.7160   6.6057   6.6058
    10.6286  10.6288

          k = 0.0833 0.4167 0.4167 (  4780 PWs)   bands (ev):

     2.6268   2.8228   2.8388   2.8389   3.1329   3.1329   3.1702   3.1841
     3.3066   3.3067   3.4170   3.4625   3.4875   3.6066   3.6471   3.6472
     3.7238   3.9159   3.9159   3.9517   4.6813   5.5774   5.5775   6.5219
    10.5768  11.5471

          k = 0.0833 0.4167-0.5000 (  4782 PWs)   bands (ev):

     2.7432   2.7432   2.8398   2.8399   3.1479   3.1479   3.1619   3.1619
     3.3794   3.3794   3.4291   3.4292   3.5535   3.5536   3.6030   3.6031
     3.8062   3.8063   3.9117   3.9117   5.0744   5.0744   6.0236   6.0237
    11.0078  11.0080

          k = 0.0833-0.5000-0.5000 (  4788 PWs)   bands (ev):

     2.7934   2.7934   2.7934   2.7936   3.1624   3.1624   3.1625   3.1625
     3.4711   3.4713   3.4714   3.4714   3.5310   3.5310   3.5310   3.5312
     3.8328   3.8329   3.8330   3.8330   5.5084   5.5084   5.5084   5.5084
    11.5040  11.5040

          k = 0.1667 0.1667 0.1667 (  4836 PWs)   bands (ev):

     1.4819   2.6043   2.6045   2.6045   2.7795   2.7797   2.7797   3.2031
     3.3265   3.3265   3.7412   3.7412   3.8503   3.8503   3.8505   3.9181
     3.9181   3.9182   4.2171   4.2171   4.2171   6.8978   6.8978   6.8980
    10.7969  10.7970

          k = 0.1667 0.1667 0.2500 (  4805 PWs)   bands (ev):

     1.6916   2.6379   2.6540   2.6541   2.8430   2.8961   2.8962   3.1945
     3.3544   3.3562   3.6799   3.6800   3.7172   3.7197   3.8027   3.8274
     3.8707   3.8708   4.2000   4.2003   4.2003   6.0552   7.1262   7.1263
    10.4937  10.4938

          k = 0.1667 0.1667 0.3333 (  4808 PWs)   bands (ev):

     1.9626   2.6631   2.7376   2.7377   2.9237   3.0109   3.0110   3.1577
     3.3798   3.3987   3.5012   3.5012   3.5542   3.7280   3.7611   3.8173
     3.8174   3.8773   4.1624   4.1766   4.1767   5.3130   7.3677   7.3678
    10.1467  10.1468

          k = 0.1667 0.1667 0.4167 (  4802 PWs)   bands (ev):

     2.2591   2.6434   2.8495   2.8497   3.0064   3.0593   3.0595   3.1129
     3.3527   3.3856   3.3857   3.3996   3.4603   3.6292   3.7542   3.7543
     3.9313   3.9573   4.1062   4.1587   4.1588   4.7017   7.5639   7.5640
     9.8654   9.8655

          k = 0.1667 0.1667-0.5000 (  4798 PWs)   bands (ev):

     2.5125   2.5126   2.9604   2.9606   2.9924   2.9925   3.0682   3.0684
     3.3290   3.3292   3.3694   3.3695   3.5382   3.5382   3.7204   3.7205
     4.0358   4.0359   4.1523   4.1524   4.2416   4.2417   7.6429   7.6430
     9.7547   9.7548

          k = 0.1667 0.2500 0.2500 (  4813 PWs)   bands (ev):

     1.8714   2.6721   2.6752   2.6753   2.9610   2.9612   3.0069   3.2387
     3.3554   3.3667   3.5602   3.5603   3.6149   3.7349   3.7715   3.7836
     3.7837   3.8513   4.1826   4.1914   4.1915   6.3288   6.3289   7.3128
    10.0079  10.9600

          k = 0.1667 0.2500 0.3333 (  4806 PWs)   bands (ev):

     2.0952   2.6811   2.7215   2.7426   3.0478   3.0620   3.0946   3.2429
     3.3779   3.3884   3.4208   3.4306   3.5147   3.6826   3.7146   3.7483
     3.7741   3.9575   4.1532   4.1611   4.1628   5.5948   6.6511   7.4723
     9.5845  10.3805

          k = 0.1667 0.2500 0.4167 (  4803 PWs)   bands (ev):

     2.3283   2.6421   2.7957   2.8264   3.0653   3.0970   3.1475   3.2318
     3.3193   3.3473   3.3993   3.4286   3.4712   3.5834   3.6688   3.7009
     3.9008   4.1058   4.1269   4.1325   4.1328   4.9635   6.9917   7.4907
     9.3904   9.8762

          k = 0.1667 0.2500-0.5000 (  4812 PWs)   bands (ev):

     2.5242   2.5242   2.8630   2.8631   3.0395   3.0396   3.2287   3.2289
     3.2767   3.2769   3.4555   3.4556   3.4966   3.4966   3.6573   3.6574
     4.0224   4.0224   4.1183   4.1183   4.4649   4.4650   7.3030   7.3031
     9.5129   9.5130

          k = 0.1667 0.3333 0.3333 (  4796 PWs)   bands (ev):

     2.2517   2.7208   2.7209   2.7283   3.1281   3.1283   3.1416   3.2747
     3.3613   3.3614   3.3759   3.4580   3.5316   3.6312   3.6587   3.6587
     3.7668   4.1172   4.1235   4.1304   4.1304   5.9400   5.9401   7.4405
     9.2612  10.7692

          k = 0.1667 0.3333 0.4167 (  4796 PWs)   bands (ev):

     2.4095   2.6569   2.7525   2.7629   3.1040   3.1285   3.1913   3.2601
     3.3498   3.3933   3.4273   3.4866   3.5570   3.5682   3.5821   3.6341
     3.8490   4.0695   4.0818   4.0916   4.3786   5.2999   6.3339   7.1685
     9.3135  10.1539

          k = 0.1667 0.3333-0.5000 (  4796 PWs)   bands (ev):

     2.5495   2.5495   2.7747   2.7748   3.0944   3.0945   3.2323   3.2324
     3.3853   3.3853   3.4984   3.4985   3.5154   3.5155   3.6025   3.6026
     3.9736   3.9736   4.0697   4.0697   4.7695   4.7696   6.7593   6.7594
     9.6506   9.6507

          k = 0.1667 0.4167 0.4167 (  4784 PWs)   bands (ev):

     2.4968   2.6782   2.6782   2.7217   3.1436   3.1569   3.1569   3.2422
     3.3965   3.4455   3.4456   3.5167   3.5914   3.5915   3.6069   3.6247
     3.8385   4.0239   4.0239   4.0301   4.7100   5.7025   5.7025   6.6785
     9.5699  10.5954

          k = 0.1667 0.4167-0.5000 (  4778 PWs)   bands (ev):

     2.5873   2.5873   2.6992   2.6992   3.1454   3.1454   3.2064   3.2065
     3.4221   3.4221   3.4819   3.4819   3.6083   3.6084   3.6381   3.6382
     3.9262   3.9263   4.0019   4.0019   5.1521   5.1521   6.1682   6.1682
    10.0188  10.0190

          k = 0.1667-0.5000-0.5000 (  4768 PWs)   bands (ev):

     2.6370   2.6370   2.6370   2.6371   3.1826   3.1826   3.1827   3.1827
     3.4388   3.4388   3.4388   3.4389   3.6723   3.6724   3.6725   3.6725
     3.9324   3.9325   3.9325   3.9325   5.6206   5.6206   5.6207   5.6207
    10.5317  10.5319

          k = 0.2500 0.2500 0.2500 (  4794 PWs)   bands (ev):

     2.0050   2.6726   2.6728   2.6728   3.0625   3.0627   3.0627   3.3409
     3.3409   3.3800   3.5317   3.5317   3.5319   3.6755   3.6755   3.6757
     3.8261   3.8261   4.1970   4.1970   4.1970   6.5809   6.5809   6.5810
    10.2524  10.2524

          k = 0.2500 0.2500 0.3333 (  4803 PWs)   bands (ev):

     2.1644   2.6487   2.6951   2.6952   3.1161   3.1162   3.1345   3.3173
     3.3460   3.4559   3.4987   3.4988   3.4992   3.5798   3.6302   3.6303
     3.8879   3.9219   4.1758   4.1758   4.1870   5.8519   6.8817   6.8817
     9.6002   9.6003

          k = 0.2500 0.2500 0.4167 (  4796 PWs)   bands (ev):

     2.3275   2.5836   2.7301   2.7302   3.0952   3.0953   3.2069   3.2893
     3.3735   3.4194   3.4937   3.4962   3.5242   3.5242   3.6079   3.6079
     4.0128   4.1459   4.1459   4.1510   4.1682   5.1872   7.1728   7.1729
     9.0904   9.0905

          k = 0.2500 0.2500-0.5000 (  4806 PWs)   bands (ev):

     2.4731   2.4732   2.7495   2.7496   3.0708   3.0708   3.2575   3.2576
     3.4235   3.4235   3.4426   3.4427   3.5632   3.5633   3.5847   3.5848
     4.0913   4.0913   4.1313   4.1313   4.6177   4.6178   7.3138   7.3139
     8.8753   8.8754

          k = 0.2500 0.3333 0.3333 (  4800 PWs)   bands (ev):

     2.2507   2.6373   2.6374   2.6664   3.1347   3.1507   3.1508   3.3105
     3.3250   3.4862   3.4862   3.5356   3.5685   3.5685   3.5985   3.7104
     3.8768   4.0789   4.1616   4.1749   4.1749   6.1871   6.1871   7.1316
     8.9416   9.9048

          k = 0.2500 0.3333 0.4167 (  4787 PWs)   bands (ev):

     2.3484   2.5519   2.6389   2.6521   3.1261   3.1280   3.1939   3.2791
     3.3374   3.4329   3.4752   3.4879   3.5875   3.6517   3.6786   3.7182
     3.9842   4.1338   4.1432   4.1448   4.4105   5.5114   6.5810   7.2330
     8.5916   9.2536

          k = 0.2500 0.3333-0.5000 (  4794 PWs)   bands (ev):

     2.4516   2.4516   2.6447   2.6448   3.1165   3.1166   3.2384   3.2385
     3.3756   3.3756   3.4721   3.4722   3.6492   3.6493   3.7036   3.7037
     4.0829   4.0830   4.1215   4.1215   4.9074   4.9074   6.9859   6.9860
     8.7583   8.7584

          k = 0.2500 0.4167 0.4167 (  4791 PWs)   bands (ev):

     2.3931   2.5442   2.5443   2.5948   3.1498   3.1752   3.1752   3.2611
     3.3238   3.4035   3.4036   3.4251   3.7320   3.7321   3.7772   3.8653
     3.9479   4.1019   4.1095   4.1095   4.8015   5.9261   5.9261   6.9188
     8.6444   9.6678

          k = 0.2500 0.4167-0.5000 (  4792 PWs)   bands (ev):

     2.4597   2.4598   2.5588   2.5589   3.1633   3.1633   3.2231   3.2231
     3.3491   3.3492   3.3981   3.3982   3.8085   3.8085   3.8147   3.8147
     4.0385   4.0386   4.0825   4.0826   5.3174   5.3174   6.4141   6.4142
     9.0710   9.0712

          k = 0.2500-0.5000-0.5000 (  4776 PWs)   bands (ev):

     2.4962   2.4962   2.4962   2.4962   3.2010   3.2010   3.2011   3.2011
     3.3542   3.3542   3.3542   3.3543   3.8765   3.8765   3.8766   3.8766
     4.0270   4.0271   4.0271   4.0271   5.8299   5.8299   5.8299   5.8300
     9.5862   9.5865

          k = 0.3333 0.3333 0.3333 (  4797 PWs)   bands (ev):

     2.2729   2.5778   2.5779   2.5779   3.1565   3.1566   3.1566   3.2984
     3.2984   3.4473   3.4473   3.4474   3.6737   3.6737   3.6738   3.9795
     3.9795   4.1388   4.1816   4.1816   4.1817   6.5176   6.5176   6.5177
     9.1173   9.1174

          k = 0.3333 0.3333 0.4167 (  4792 PWs)   bands (ev):

     2.3208   2.4812   2.5425   2.5426   3.1538   3.1539   3.1942   3.2713
     3.2981   3.3750   3.4028   3.4028   3.7554   3.7911   3.7912   3.9221
     4.0672   4.1622   4.1622   4.1723   4.6101   5.8323   6.8954   6.8955
     8.4600   8.4602

          k = 0.3333 0.3333-0.5000 (  4794 PWs)   bands (ev):

     2.3921   2.3921   2.5309   2.5309   3.1512   3.1512   3.2350   3.2351
     3.3241   3.3241   3.3887   3.3888   3.8402   3.8402   3.8411   3.8411
     4.1331   4.1332   4.1465   4.1466   5.1846   5.1846   7.1302   7.1303
     8.1313   8.1314

          k = 0.3333 0.4167 0.4167 (  4793 PWs)   bands (ev):

     2.3291   2.4453   2.4453   2.4769   3.1753   3.1923   3.1923   3.2620
     3.2747   3.3356   3.3356   3.3469   3.8933   3.8933   3.9093   4.0425
     4.0541   4.1514   4.1598   4.1598   5.0421   6.2584   6.2585   7.0993
     7.9650   8.8147

          k = 0.3333 0.4167-0.5000 (  4788 PWs)   bands (ev):

     2.3719   2.3719   2.4441   2.4441   3.1876   3.1877   3.2307   3.2308
     3.2914   3.2914   3.3245   3.3245   3.9581   3.9581   3.9819   3.9819
     4.1229   4.1230   4.1385   4.1385   5.6116   5.6117   6.7552   6.7552
     8.2131   8.2133

          k = 0.3333-0.5000-0.5000 (  4772 PWs)   bands (ev):

     2.3899   2.3900   2.3900   2.3900   3.2175   3.2176   3.2176   3.2176
     3.2887   3.2887   3.2887   3.2888   4.0373   4.0374   4.0375   4.0375
     4.1025   4.1026   4.1026   4.1026   6.1566   6.1566   6.1566   6.1567
     8.7139   8.7140

          k = 0.4167 0.4167 0.4167 (  4770 PWs)   bands (ev):

     2.3073   2.3848   2.3848   2.3848   3.2056   3.2056   3.2056   3.2521
     3.2521   3.2895   3.2895   3.2896   4.0156   4.0156   4.0157   4.1149
     4.1149   4.1714   4.1714   4.1714   5.4755   6.6905   6.6905   6.6905
     8.0660   8.0663

          k = 0.4167 0.4167-0.5000 (  4772 PWs)   bands (ev):

     2.3267   2.3267   2.3645   2.3645   3.2113   3.2113   3.2326   3.2327
     3.2572   3.2572   3.2728   3.2728   4.0703   4.0704   4.0894   4.0894
     4.1590   4.1591   4.1620   4.1621   6.0497   6.0498   7.0445   7.0446
     7.6062   7.6064

          k = 0.4167-0.5000-0.5000 (  4772 PWs)   bands (ev):

     2.3245   2.3246   2.3246   2.3246   3.2293   3.2293   3.2294   3.2294
     3.2476   3.2476   3.2476   3.2477   4.1354   4.1355   4.1355   4.1355
     4.1510   4.1511   4.1511   4.1511   6.6028   6.6029   6.6029   6.6030
     7.9371   7.9372

          k =-0.5000-0.5000-0.5000 (  4776 PWs)   bands (ev):

     2.3025   2.3025   2.3025   2.3025   3.2335   3.2335   3.2335   3.2335
     3.2335   3.2336   3.2336   3.2336   4.1677   4.1677   4.1678   4.1678
     4.1678   4.1678   4.1678   4.1678   7.0201   7.0201   7.0201   7.0202
     7.4097   7.4100

     the Fermi energy is     6.9356 ev

!    total energy              =   -3100.62399361 Ry

     total all-electron energy =   -152096.008358 Ry
     estimated scf accuracy    <       0.00000001 Ry
     smearing contrib. (-TS)   =      -0.84399712 Ry
     internal energy E=F+TS    =   -3099.77999650 Ry

     The total energy is F=E-TS. E is the sum of the following terms:
     one-electron contribution =     -16.25063990 Ry
     hartree contribution      =      52.19743966 Ry
     xc contribution           =    -127.15197428 Ry
     ewald contribution        =    -238.64460765 Ry
     one-center paw contrib.   =   -2769.93021432 Ry

     convergence has been achieved in  13 iterations

     Forces acting on atoms (cartesian axes, Ry/au):

     atom    1 type  1   force =     0.00000000    0.00000000   -0.00000000
     atom    2 type  1   force =     0.00000000    0.00000000   -0.00000000
     atom    3 type  1   force =     0.00000000    0.00000000    0.00000000
     atom    4 type  1   force =     0.00000000    0.00000000    0.00000000

     Total force =     0.000000     Total SCF correction =     0.000000

     Writing all to output data dir ./pwscf.save/
 
     init_run     :      1.07s CPU      1.98s WALL (       1 calls)
     electrons    :     50.64s CPU     52.69s WALL (       1 calls)
     forces       :      0.28s CPU      0.48s WALL (       1 calls)

     Called by init_run:
     wfcinit      :      0.91s CPU      0.93s WALL (       1 calls)
     potinit      :      0.06s CPU      0.50s WALL (       1 calls)
     hinit0       :      0.06s CPU      0.27s WALL (       1 calls)

     Called by electrons:
     c_bands      :     45.20s CPU     45.86s WALL (      14 calls)
     sum_band     :      4.17s CPU      4.30s WALL (      14 calls)
     v_of_rho     :      0.26s CPU      1.74s WALL (      14 calls)
     newd         :      0.20s CPU      0.53s WALL (      14 calls)
     PAW_pot      :      0.75s CPU      0.76s WALL (      14 calls)
     mix_rho      :      0.01s CPU      0.01s WALL (      14 calls)

     Called by c_bands:
     init_us_2    :      0.25s CPU      0.25s WALL (    2520 calls)
     init_us_2:cp :      0.24s CPU      0.25s WALL (    2520 calls)
     cegterg      :     43.46s CPU     44.08s WALL (    1176 calls)

     Called by *egterg:
     cdiaghg      :      8.82s CPU      8.92s WALL (    6501 calls)
     h_psi        :     27.27s CPU     27.72s WALL (    6669 calls)
     s_psi        :      1.19s CPU      1.20s WALL (    6669 calls)
     g_psi        :      0.11s CPU      0.12s WALL (    5409 calls)

     Called by h_psi:
     h_psi:calbec :      1.66s CPU      1.69s WALL (    6669 calls)
     vloc_psi     :     24.37s CPU     24.76s WALL (    6669 calls)
     add_vuspsi   :      1.17s CPU      1.19s WALL (    6669 calls)

     General routines
     calbec       :      2.13s CPU      2.17s WALL (    8181 calls)
     fft          :      0.48s CPU      2.71s WALL (     166 calls)
     ffts         :      0.06s CPU      0.09s WALL (      14 calls)
     fftw         :     26.16s CPU     26.59s WALL (  269584 calls)
 
     Parallel routines
 
     PWSCF        :     53.51s CPU     59.00s WALL

 
   This run was terminated on:  12:36:51   5Apr2024            

=------------------------------------------------------------------------------=
   JOB DONE.
=------------------------------------------------------------------------------=
