MPI startup(): Warning: I_MPI_PMI_LIBRARY will be ignored since the hydra process manager was found
MPI startup(): Warning: I_MPI_PMI_LIBRARY will be ignored since the hydra process manager was found
MPI startup(): Warning: I_MPI_PMI_LIBRARY will be ignored since the hydra process manager was found
MPI startup(): Warning: I_MPI_PMI_LIBRARY will be ignored since the hydra process manager was found
MPI startup(): Warning: I_MPI_PMI_LIBRARY will be ignored since the hydra process manager was found
MPI startup(): Warning: I_MPI_PMI_LIBRARY will be ignored since the hydra process manager was found
MPI startup(): Warning: I_MPI_PMI_LIBRARY will be ignored since the hydra process manager was found
MPI startup(): Warning: I_MPI_PMI_LIBRARY will be ignored since the hydra process manager was found
MPI startup(): Warning: I_MPI_PMI_LIBRARY will be ignored since the hydra process manager was found
MPI startup(): Warning: I_MPI_PMI_LIBRARY will be ignored since the hydra process manager was found

     Program PWSCF v.7.0 starts on  5Apr2024 at 12:35:52 

     This program is part of the open-source Quantum ESPRESSO suite
     for quantum simulation of materials; please cite
         "P. Giannozzi et al., J. Phys.:Condens. Matter 21 395502 (2009);
         "P. Giannozzi et al., J. Phys.:Condens. Matter 29 465901 (2017);
         "P. Giannozzi et al., J. Chem. Phys. 152 154105 (2020);
          URL http://www.quantum-espresso.org", 
     in publications or presentations arising from this work. More details at
     http://www.quantum-espresso.org/quote

     Parallel version (MPI), running on    10 processors

     MPI processes distributed on     1 nodes
     R & G space division:  proc/nbgrp/npool/nimage =      10
     225939 MiB available memory on the printing compute node when the environment starts
 
     Reading input from VolumeFCC_9.4.in
Warning: card &CELL ignored
Warning: card / ignored

     Current dimensions of program PWSCF are:
     Max number of different atomic species (ntypx) = 10
     Max number of k-points (npk) =  40000
     Max angular momentum in pseudopotentials (lmaxx) =  4
     file Au.pbe-n-kjpaw_psl.1.0.0.UPF: wavefunction(s)  6S 5D renormalized
     Found identity + ( -0.5000 -0.5000  0.0000) symmetry
     This is a supercell, fractional translations are disabled
     Message from routine setup:
     using ibrav=0 with symmetry is DISCOURAGED, use correct ibrav instead

     Subspace diagonalization in iterative solution of the eigenvalue problem:
     one sub-group per band group will be used
     scalapack distributed-memory algorithm (size of sub-group:  3*  3 procs)

 
     Parallelization info
     --------------------
     sticks:   dense  smooth     PW     G-vecs:    dense   smooth      PW
     Min         140     140     41                 3960     3960     623
     Max         141     141     43                 3963     3963     625
     Sum        1405    1405    421                39607    39607    6235
 
     Using Slab Decomposition
 


     bravais-lattice index     =            0
     lattice parameter (alat)  =       9.3986  a.u.
     unit-cell volume          =     830.2230 (a.u.)^3
     number of atoms/cell      =            4
     number of atomic types    =            1
     number of electrons       =        44.00
     number of Kohn-Sham states=           26
     kinetic-energy cutoff     =      50.0000  Ry
     charge density cutoff     =     200.0000  Ry
     scf convergence threshold =      1.0E-06
     mixing beta               =       0.7000
     number of iterations used =            8  plain     mixing
     Exchange-correlation= SLA  PW   PBX  PBC
                           (   1   4   3   4   0   0   0)

     celldm(1)=   9.398638  celldm(2)=   0.000000  celldm(3)=   0.000000
     celldm(4)=   0.000000  celldm(5)=   0.000000  celldm(6)=   0.000000

     crystal axes: (cart. coord. in units of alat)
               a(1) = (   1.000000   0.000000   0.000000 )  
               a(2) = (   0.000000   1.000000   0.000000 )  
               a(3) = (   0.000000   0.000000   1.000000 )  

     reciprocal axes: (cart. coord. in units 2 pi/alat)
               b(1) = (  1.000000  0.000000  0.000000 )  
               b(2) = (  0.000000  1.000000  0.000000 )  
               b(3) = (  0.000000  0.000000  1.000000 )  


     PseudoPot. # 1 for Au read from file:
     ./Au.pbe-n-kjpaw_psl.1.0.0.UPF
     MD5 check sum: 4db85c736373c707a97ce4c36c2a9d23
     Pseudo is Projector augmented-wave + core cor, Zval = 11.0
     Generated using &quot;atomic&quot; code by A. Dal Corso  v.6.3
     Shape of augmentation charge: PSQ
     Using radial grid of 1279 points,  6 beta functions with: 
                l(1) =   0
                l(2) =   0
                l(3) =   1
                l(4) =   1
                l(5) =   2
                l(6) =   2
     Q(r) pseudized with 0 coefficients 


     atomic species   valence    mass     pseudopotential
        Au            11.00   196.96657     Au( 1.00)

     48 Sym. Ops., with inversion, found



   Cartesian axes

     site n.     atom                  positions (alat units)
         1           Au  tau(   1) = (   0.0000000   0.0000000   0.0000000  )
         2           Au  tau(   2) = (   0.5000000   0.5000000   0.0000000  )
         3           Au  tau(   3) = (   0.5000000   0.0000000   0.5000000  )
         4           Au  tau(   4) = (   0.0000000   0.5000000   0.5000000  )

     number of k points=    84  Gaussian smearing, width (Ry)=  0.2000
                       cart. coord. in units 2pi/alat
        k(    1) = (   0.0000000   0.0000000   0.0000000), wk =   0.0011574
        k(    2) = (   0.0000000   0.0000000   0.0833333), wk =   0.0069444
        k(    3) = (   0.0000000   0.0000000   0.1666667), wk =   0.0069444
        k(    4) = (   0.0000000   0.0000000   0.2500000), wk =   0.0069444
        k(    5) = (   0.0000000   0.0000000   0.3333333), wk =   0.0069444
        k(    6) = (   0.0000000   0.0000000   0.4166667), wk =   0.0069444
        k(    7) = (   0.0000000   0.0000000  -0.5000000), wk =   0.0034722
        k(    8) = (   0.0000000   0.0833333   0.0833333), wk =   0.0138889
        k(    9) = (   0.0000000   0.0833333   0.1666667), wk =   0.0277778
        k(   10) = (   0.0000000   0.0833333   0.2500000), wk =   0.0277778
        k(   11) = (   0.0000000   0.0833333   0.3333333), wk =   0.0277778
        k(   12) = (   0.0000000   0.0833333   0.4166667), wk =   0.0277778
        k(   13) = (   0.0000000   0.0833333  -0.5000000), wk =   0.0138889
        k(   14) = (   0.0000000   0.1666667   0.1666667), wk =   0.0138889
        k(   15) = (   0.0000000   0.1666667   0.2500000), wk =   0.0277778
        k(   16) = (   0.0000000   0.1666667   0.3333333), wk =   0.0277778
        k(   17) = (   0.0000000   0.1666667   0.4166667), wk =   0.0277778
        k(   18) = (   0.0000000   0.1666667  -0.5000000), wk =   0.0138889
        k(   19) = (   0.0000000   0.2500000   0.2500000), wk =   0.0138889
        k(   20) = (   0.0000000   0.2500000   0.3333333), wk =   0.0277778
        k(   21) = (   0.0000000   0.2500000   0.4166667), wk =   0.0277778
        k(   22) = (   0.0000000   0.2500000  -0.5000000), wk =   0.0138889
        k(   23) = (   0.0000000   0.3333333   0.3333333), wk =   0.0138889
        k(   24) = (   0.0000000   0.3333333   0.4166667), wk =   0.0277778
        k(   25) = (   0.0000000   0.3333333  -0.5000000), wk =   0.0138889
        k(   26) = (   0.0000000   0.4166667   0.4166667), wk =   0.0138889
        k(   27) = (   0.0000000   0.4166667  -0.5000000), wk =   0.0138889
        k(   28) = (   0.0000000  -0.5000000  -0.5000000), wk =   0.0034722
        k(   29) = (   0.0833333   0.0833333   0.0833333), wk =   0.0092593
        k(   30) = (   0.0833333   0.0833333   0.1666667), wk =   0.0277778
        k(   31) = (   0.0833333   0.0833333   0.2500000), wk =   0.0277778
        k(   32) = (   0.0833333   0.0833333   0.3333333), wk =   0.0277778
        k(   33) = (   0.0833333   0.0833333   0.4166667), wk =   0.0277778
        k(   34) = (   0.0833333   0.0833333  -0.5000000), wk =   0.0138889
        k(   35) = (   0.0833333   0.1666667   0.1666667), wk =   0.0277778
        k(   36) = (   0.0833333   0.1666667   0.2500000), wk =   0.0555556
        k(   37) = (   0.0833333   0.1666667   0.3333333), wk =   0.0555556
        k(   38) = (   0.0833333   0.1666667   0.4166667), wk =   0.0555556
        k(   39) = (   0.0833333   0.1666667  -0.5000000), wk =   0.0277778
        k(   40) = (   0.0833333   0.2500000   0.2500000), wk =   0.0277778
        k(   41) = (   0.0833333   0.2500000   0.3333333), wk =   0.0555556
        k(   42) = (   0.0833333   0.2500000   0.4166667), wk =   0.0555556
        k(   43) = (   0.0833333   0.2500000  -0.5000000), wk =   0.0277778
        k(   44) = (   0.0833333   0.3333333   0.3333333), wk =   0.0277778
        k(   45) = (   0.0833333   0.3333333   0.4166667), wk =   0.0555556
        k(   46) = (   0.0833333   0.3333333  -0.5000000), wk =   0.0277778
        k(   47) = (   0.0833333   0.4166667   0.4166667), wk =   0.0277778
        k(   48) = (   0.0833333   0.4166667  -0.5000000), wk =   0.0277778
        k(   49) = (   0.0833333  -0.5000000  -0.5000000), wk =   0.0069444
        k(   50) = (   0.1666667   0.1666667   0.1666667), wk =   0.0092593
        k(   51) = (   0.1666667   0.1666667   0.2500000), wk =   0.0277778
        k(   52) = (   0.1666667   0.1666667   0.3333333), wk =   0.0277778
        k(   53) = (   0.1666667   0.1666667   0.4166667), wk =   0.0277778
        k(   54) = (   0.1666667   0.1666667  -0.5000000), wk =   0.0138889
        k(   55) = (   0.1666667   0.2500000   0.2500000), wk =   0.0277778
        k(   56) = (   0.1666667   0.2500000   0.3333333), wk =   0.0555556
        k(   57) = (   0.1666667   0.2500000   0.4166667), wk =   0.0555556
        k(   58) = (   0.1666667   0.2500000  -0.5000000), wk =   0.0277778
        k(   59) = (   0.1666667   0.3333333   0.3333333), wk =   0.0277778
        k(   60) = (   0.1666667   0.3333333   0.4166667), wk =   0.0555556
        k(   61) = (   0.1666667   0.3333333  -0.5000000), wk =   0.0277778
        k(   62) = (   0.1666667   0.4166667   0.4166667), wk =   0.0277778
        k(   63) = (   0.1666667   0.4166667  -0.5000000), wk =   0.0277778
        k(   64) = (   0.1666667  -0.5000000  -0.5000000), wk =   0.0069444
        k(   65) = (   0.2500000   0.2500000   0.2500000), wk =   0.0092593
        k(   66) = (   0.2500000   0.2500000   0.3333333), wk =   0.0277778
        k(   67) = (   0.2500000   0.2500000   0.4166667), wk =   0.0277778
        k(   68) = (   0.2500000   0.2500000  -0.5000000), wk =   0.0138889
        k(   69) = (   0.2500000   0.3333333   0.3333333), wk =   0.0277778
        k(   70) = (   0.2500000   0.3333333   0.4166667), wk =   0.0555556
        k(   71) = (   0.2500000   0.3333333  -0.5000000), wk =   0.0277778
        k(   72) = (   0.2500000   0.4166667   0.4166667), wk =   0.0277778
        k(   73) = (   0.2500000   0.4166667  -0.5000000), wk =   0.0277778
        k(   74) = (   0.2500000  -0.5000000  -0.5000000), wk =   0.0069444
        k(   75) = (   0.3333333   0.3333333   0.3333333), wk =   0.0092593
        k(   76) = (   0.3333333   0.3333333   0.4166667), wk =   0.0277778
        k(   77) = (   0.3333333   0.3333333  -0.5000000), wk =   0.0138889
        k(   78) = (   0.3333333   0.4166667   0.4166667), wk =   0.0277778
        k(   79) = (   0.3333333   0.4166667  -0.5000000), wk =   0.0277778
        k(   80) = (   0.3333333  -0.5000000  -0.5000000), wk =   0.0069444
        k(   81) = (   0.4166667   0.4166667   0.4166667), wk =   0.0092593
        k(   82) = (   0.4166667   0.4166667  -0.5000000), wk =   0.0138889
        k(   83) = (   0.4166667  -0.5000000  -0.5000000), wk =   0.0069444
        k(   84) = (  -0.5000000  -0.5000000  -0.5000000), wk =   0.0011574

     Dense  grid:    39607 G-vectors     FFT dimensions: (  45,  45,  45)

     Estimated max dynamical RAM per process >      32.61 MB

     Estimated total dynamical RAM >     326.13 MB

     Initial potential from superposition of free atoms

     starting charge      43.9996, renormalised to      44.0000
     Starting wfcs are   36 randomized atomic wfcs
     Checking if some PAW data can be deallocated... 

     total cpu time spent up to now is        4.0 secs

     Self-consistent Calculation

     iteration #  1     ecut=    50.00 Ry     beta= 0.70
     Davidson diagonalization with overlap
     ethr =  1.00E-02,  avg # of iterations =  2.2

     Threshold (ethr) on eigenvalues was too large:
     Diagonalizing with lowered threshold

     Davidson diagonalization with overlap
     ethr =  7.10E-04,  avg # of iterations =  2.9

     total cpu time spent up to now is        8.8 secs

     total energy              =   -3100.45826963 Ry
     estimated scf accuracy    <       0.33743189 Ry

     iteration #  2     ecut=    50.00 Ry     beta= 0.70
     Davidson diagonalization with overlap
     ethr =  7.67E-04,  avg # of iterations =  2.2

     total cpu time spent up to now is       11.8 secs

     total energy              =   -3100.58352062 Ry
     estimated scf accuracy    <       0.14875418 Ry

     iteration #  3     ecut=    50.00 Ry     beta= 0.70
     Davidson diagonalization with overlap
     ethr =  3.38E-04,  avg # of iterations =  1.8

     total cpu time spent up to now is       14.1 secs

     total energy              =   -3100.60534825 Ry
     estimated scf accuracy    <       0.00640093 Ry

     iteration #  4     ecut=    50.00 Ry     beta= 0.70
     Davidson diagonalization with overlap
     ethr =  1.45E-05,  avg # of iterations =  5.7

     total cpu time spent up to now is       18.3 secs

     total energy              =   -3100.60999541 Ry
     estimated scf accuracy    <       0.00230046 Ry

     iteration #  5     ecut=    50.00 Ry     beta= 0.70
     Davidson diagonalization with overlap
     ethr =  5.23E-06,  avg # of iterations =  6.1

     total cpu time spent up to now is       23.2 secs

     total energy              =   -3100.60445255 Ry
     estimated scf accuracy    <       0.02660817 Ry

     iteration #  6     ecut=    50.00 Ry     beta= 0.70
     Davidson diagonalization with overlap
     ethr =  5.23E-06,  avg # of iterations =  4.6

     total cpu time spent up to now is       27.2 secs

     total energy              =   -3100.60911370 Ry
     estimated scf accuracy    <       0.00020706 Ry

     iteration #  7     ecut=    50.00 Ry     beta= 0.70
     Davidson diagonalization with overlap
     ethr =  4.71E-07,  avg # of iterations =  6.8

     total cpu time spent up to now is       32.2 secs

     total energy              =   -3100.60932870 Ry
     estimated scf accuracy    <       0.00000953 Ry

     iteration #  8     ecut=    50.00 Ry     beta= 0.70
     Davidson diagonalization with overlap
     c_bands:  2 eigenvalues not converged
     c_bands:  2 eigenvalues not converged
     ethr =  2.17E-08,  avg # of iterations =  9.9

     total cpu time spent up to now is       39.3 secs

     total energy              =   -3100.60930924 Ry
     estimated scf accuracy    <       0.00008277 Ry

     iteration #  9     ecut=    50.00 Ry     beta= 0.70
     Davidson diagonalization with overlap
     c_bands:  1 eigenvalues not converged
     ethr =  2.17E-08,  avg # of iterations =  8.3

     total cpu time spent up to now is       45.5 secs

     total energy              =   -3100.60935664 Ry
     estimated scf accuracy    <       0.00014764 Ry

     iteration # 10     ecut=    50.00 Ry     beta= 0.70
     Davidson diagonalization with overlap
     ethr =  2.17E-08,  avg # of iterations =  3.2

     total cpu time spent up to now is       48.5 secs

     total energy              =   -3100.60934864 Ry
     estimated scf accuracy    <       0.00004444 Ry

     iteration # 11     ecut=    50.00 Ry     beta= 0.70
     Davidson diagonalization with overlap
     ethr =  2.17E-08,  avg # of iterations =  3.4

     total cpu time spent up to now is       51.5 secs

     total energy              =   -3100.60935196 Ry
     estimated scf accuracy    <       0.00000941 Ry

     iteration # 12     ecut=    50.00 Ry     beta= 0.70
     Davidson diagonalization with overlap
     ethr =  2.14E-08,  avg # of iterations =  1.0

     total cpu time spent up to now is       53.4 secs

     total energy              =   -3100.60935007 Ry
     estimated scf accuracy    <       0.00000664 Ry

     iteration # 13     ecut=    50.00 Ry     beta= 0.70
     Davidson diagonalization with overlap
     ethr =  1.51E-08,  avg # of iterations =  2.1

     total cpu time spent up to now is       55.8 secs

     total energy              =   -3100.60935070 Ry
     estimated scf accuracy    <       0.00000130 Ry

     iteration # 14     ecut=    50.00 Ry     beta= 0.70
     Davidson diagonalization with overlap
     ethr =  2.95E-09,  avg # of iterations =  5.5

     total cpu time spent up to now is       59.7 secs

     End of self-consistent calculation

          k = 0.0000 0.0000 0.0000 (  4945 PWs)   bands (ev):

     0.7155   2.1786   2.1786   2.1787   2.2291   2.2291   2.2291   2.8963
     2.8963   2.8963   3.3748   3.3748   3.7482   3.7482   3.7483   3.8759
     3.8759   3.8759   3.8759   3.8759   3.8759   8.0303   8.0303   8.0303
     8.2392   8.2392

          k = 0.0000 0.0000 0.0833 (  4965 PWs)   bands (ev):

     0.7639   2.1909   2.2003   2.2004   2.2398   2.2472   2.2472   2.8841
     2.9097   2.9097   3.3625   3.3809   3.7317   3.7317   3.7416   3.8264
     3.8264   3.8547   3.8547   3.8759   3.8759   7.0323   8.0205   8.0205
     8.3332   8.3332

          k = 0.0000 0.0000 0.1667 (  4965 PWs)   bands (ev):

     0.9081   2.2253   2.2629   2.2629   2.2711   2.3012   2.3012   2.8486
     2.9496   2.9496   3.3276   3.3990   3.6834   3.6834   3.6909   3.6909
     3.7224   3.7940   3.7940   3.8760   3.8760   6.0267   7.9933   7.9934
     8.6016   8.6016

          k = 0.0000 0.0000 0.2500 (  4957 PWs)   bands (ev):

     1.1431   2.2729   2.3214   2.3577   2.3577   2.3907   2.3907   2.7927
     3.0146   3.0146   3.2772   3.4278   3.4993   3.4993   3.6077   3.6077
     3.6918   3.7009   3.7009   3.8761   3.8761   5.1197   7.9554   7.9554
     9.0126   9.0126

          k = 0.0000 0.0000 0.3333 (  4977 PWs)   bands (ev):

     1.4572   2.3134   2.3876   2.4684   2.4684   2.5143   2.5143   2.7208
     3.1023   3.1023   3.2269   3.2819   3.2819   3.4656   3.5159   3.5159
     3.5854   3.5854   3.6523   3.8762   3.8762   4.3318   7.9164   7.9164
     9.5322   9.5322

          k = 0.0000 0.0000 0.4167 (  4989 PWs)   bands (ev):

     1.8182   2.2991   2.4659   2.5659   2.5659   2.6384   2.6702   2.6702
     3.0618   3.0618   3.2092   3.2092   3.2140   3.4321   3.4321   3.4585
     3.4585   3.5100   3.6066   3.7072   3.8762   3.8762   7.8872   7.8872
    10.1318  10.1318

          k = 0.0000 0.0000-0.5000 (  4950 PWs)   bands (ev):

     2.1397   2.1398   2.5514   2.5514   2.6072   2.6072   2.8546   2.8546
     2.8547   2.8547   3.3302   3.3302   3.3303   3.3303   3.3310   3.3310
     3.3958   3.3958   3.5581   3.5581   3.8762   3.8763   7.8764   7.8764
    10.7879  10.7879

          k = 0.0000 0.0833 0.0833 (  4971 PWs)   bands (ev):

     0.8119   2.2128   2.2128   2.2138   2.2576   2.2576   2.2726   2.8814
     2.9140   2.9222   3.3597   3.3788   3.7159   3.7187   3.7187   3.7941
     3.8108   3.8109   3.8547   3.8547   3.8606   7.0830   7.0831   8.0086
     8.4255   9.3469

          k = 0.0000 0.0833 0.1667 (  4963 PWs)   bands (ev):

     0.9546   2.2478   2.2579   2.2759   2.2883   2.3110   2.3421   2.8511
     2.9496   2.9590   3.3298   3.3959   3.6261   3.6695   3.6708   3.6748
     3.7186   3.7715   3.7937   3.8533   3.8545   6.0936   7.2133   7.9745
     8.6894   9.4406

          k = 0.0000 0.0833 0.2500 (  4959 PWs)   bands (ev):

     1.1870   2.2965   2.3346   2.3375   2.3716   2.3993   2.4448   2.7975
     3.0137   3.0166   3.2848   3.4283   3.4488   3.4864   3.5921   3.5967
     3.6297   3.7003   3.7228   3.8521   3.8543   5.2027   7.3735   7.9227
     9.0950   9.6177

          k = 0.0000 0.0833 0.3333 (  4958 PWs)   bands (ev):

     1.4970   2.3388   2.4024   2.4389   2.4834   2.5212   2.5679   2.7276
     3.0804   3.1011   3.2396   3.2550   3.2748   3.4719   3.4722   3.5085
     3.5336   3.5846   3.6694   3.8521   3.8539   4.4385   7.5186   7.8597
     9.6095   9.8927

          k = 0.0000 0.0833 0.4167 (  4972 PWs)   bands (ev):

     1.8526   2.3269   2.4789   2.5521   2.5812   2.6472   2.6748   2.6984
     3.0316   3.0596   3.1144   3.2080   3.3089   3.3205   3.4294   3.4445
     3.4575   3.5255   3.6045   3.8525   3.8535   3.8613   7.6311   7.7911
    10.2049  10.2596

          k = 0.0000 0.0833-0.5000 (  4970 PWs)   bands (ev):

     2.1697   2.1697   2.5624   2.5624   2.6157   2.6157   2.8466   2.8467
     2.8562   2.8563   3.1741   3.1741   3.3290   3.3291   3.4002   3.4002
     3.4632   3.4632   3.5985   3.5985   3.8530   3.8530   7.7174   7.7174
    10.6929  10.6929

          k = 0.0000 0.1667 0.1667 (  4959 PWs)   bands (ev):

     1.0926   2.2775   2.3125   2.3125   2.3397   2.3397   2.4274   2.8427
     2.9659   2.9861   3.3196   3.4058   3.5365   3.5365   3.5903   3.6286
     3.7210   3.7210   3.7930   3.7930   3.8153   6.2719   6.2719   7.9173
     8.9421  10.5497

          k = 0.0000 0.1667 0.2500 (  4962 PWs)   bands (ev):

     1.3166   2.3318   2.3645   2.3856   2.4111   2.4245   2.5382   2.8047
     3.0184   3.0251   3.2890   3.3462   3.4202   3.4397   3.4475   3.5638
     3.6480   3.6967   3.6989   3.7919   3.7958   5.4163   6.5158   7.8208
     9.3337  10.5288

          k = 0.0000 0.1667 0.3333 (  4977 PWs)   bands (ev):

     1.6134   2.4125   2.4189   2.4460   2.5266   2.5414   2.6585   2.7446
     3.0525   3.1012   3.1430   3.2504   3.2804   3.2805   3.4852   3.5143
     3.5570   3.5824   3.6476   3.7890   3.7904   4.6847   6.7844   7.6840
     9.8347  10.5116

          k = 0.0000 0.1667 0.4167 (  4960 PWs)   bands (ev):

     1.9514   2.4068   2.5171   2.5311   2.6254   2.6722   2.6880   2.7626
     2.9580   3.0417   3.0514   3.1337   3.2061   3.3455   3.4181   3.4549
     3.4646   3.5720   3.6114   3.7873   3.7889   4.1250   7.0497   7.5074
    10.4188  10.5253

          k = 0.0000 0.1667-0.5000 (  4954 PWs)   bands (ev):

     2.2543   2.2544   2.5943   2.5943   2.6332   2.6332   2.8359   2.8360
     2.8602   2.8603   3.0440   3.0440   3.3264   3.3265   3.4059   3.4059
     3.4636   3.4636   3.7816   3.7816   3.7877   3.7877   7.2941   7.2941
    10.6075  10.6075

          k = 0.0000 0.2500 0.2500 (  4963 PWs)   bands (ev):

     1.5250   2.3620   2.4647   2.4647   2.4687   2.4687   2.6502   2.7961
     3.0406   3.0479   3.2200   3.2201   3.2689   3.3433   3.5104   3.5118
     3.6376   3.6376   3.6967   3.6967   3.7424   5.7040   5.7040   7.6422
     9.7074  11.0520

          k = 0.0000 0.2500 0.3333 (  4967 PWs)   bands (ev):

     1.7968   2.4252   2.5173   2.5258   2.5732   2.5924   2.7614   2.7636
     3.0239   3.0438   3.0829   3.1136   3.1998   3.2595   3.4444   3.5560
     3.5796   3.5942   3.6193   3.6943   3.7111   4.9943   6.0301   7.3875
    10.1906  10.7460

          k = 0.0000 0.2500 0.4167 (  4958 PWs)   bands (ev):

     2.1004   2.5198   2.5267   2.5787   2.6933   2.7074   2.7080   2.8458
     2.8674   2.9706   3.0049   3.0326   3.2095   3.3125   3.3917   3.4522
     3.4660   3.5171   3.6925   3.6973   3.7774   4.4257   6.3760   7.0740
    10.6266  10.7594

          k = 0.0000 0.2500-0.5000 (  4982 PWs)   bands (ev):

     2.3753   2.3754   2.6370   2.6370   2.6439   2.6440   2.8547   2.8547
     2.8640   2.8641   2.9551   2.9551   3.3255   3.3256   3.3972   3.3972
     3.4135   3.4135   3.6926   3.6927   4.0264   4.0265   6.7291   6.7291
    10.6693  10.6693

          k = 0.0000 0.3333 0.3333 (  4957 PWs)   bands (ev):

     2.0273   2.4601   2.6140   2.6140   2.6643   2.6643   2.7629   2.8677
     2.9022   2.9023   3.0465   3.1137   3.1537   3.2261   3.3898   3.5190
     3.5191   3.5773   3.5773   3.6455   3.7782   5.3421   5.3421   6.9980
    10.6092  10.6555

          k = 0.0000 0.3333 0.4167 (  4951 PWs)   bands (ev):

     2.2724   2.5248   2.6527   2.6597   2.7316   2.7424   2.7447   2.8082
     2.8567   2.9367   2.9959   3.0107   3.2287   3.2513   3.3450   3.4331
     3.4442   3.4524   3.5779   3.6048   3.9991   4.7621   5.7221   6.5654
    10.6631  11.2124

          k = 0.0000 0.3333-0.5000 (  4964 PWs)   bands (ev):

     2.4930   2.4930   2.6200   2.6200   2.7049   2.7050   2.8628   2.8629
     2.9152   2.9152   2.9301   2.9301   3.3320   3.3321   3.3427   3.3427
     3.3601   3.3601   3.5850   3.5850   4.3156   4.3156   6.1325   6.1325
    10.8732  10.8732

          k = 0.0000 0.4167 0.4167 (  4943 PWs)   bands (ev):

     2.4320   2.5505   2.6625   2.6625   2.7536   2.7536   2.7646   2.8922
     2.8922   2.9344   3.0092   3.0346   3.2087   3.2755   3.2909   3.3613
     3.3613   3.4603   3.4604   3.5303   4.2855   5.1413   5.1413   6.0506
    10.8633  11.6575

          k = 0.0000 0.4167-0.5000 (  4932 PWs)   bands (ev):

     2.5591   2.5592   2.5990   2.5991   2.7672   2.7672   2.8498   2.8499
     2.9861   2.9861   2.9951   2.9951   3.2652   3.2652   3.2915   3.2916
     3.3549   3.3550   3.4833   3.4834   4.6607   4.6607   5.5706   5.5707
    11.2001  11.2001

          k = 0.0000-0.5000-0.5000 (  4972 PWs)   bands (ev):

     2.5825   2.5826   2.5826   2.5826   2.8182   2.8183   2.8183   2.8183
     3.0443   3.0443   3.0443   3.0444   3.2288   3.2288   3.2288   3.2288
     3.4040   3.4041   3.4041   3.4041   5.0767   5.0767   5.0767   5.0768
    11.6396  11.6396

          k = 0.0833 0.0833 0.0833 (  4966 PWs)   bands (ev):

     0.8594   2.2257   2.2257   2.2257   2.2835   2.2835   2.2835   2.8804
     2.9254   2.9254   3.3674   3.3674   3.7016   3.7016   3.7016   3.7700
     3.7700   3.7700   3.8486   3.8486   3.8486   7.1301   7.1301   7.1301
     9.3733   9.3733

          k = 0.0833 0.0833 0.1667 (  4963 PWs)   bands (ev):

     1.0003   2.2587   2.2688   2.2688   2.3158   2.3536   2.3536   2.8554
     2.9567   2.9591   3.3359   3.3901   3.6169   3.6169   3.6586   3.6839
     3.6839   3.6995   3.8157   3.8419   3.8419   6.1573   7.2500   7.2500
     9.4584   9.4585

          k = 0.0833 0.0833 0.2500 (  4967 PWs)   bands (ev):

     1.2295   2.3051   2.3446   2.3446   2.3671   2.4566   2.4566   2.8050
     3.0142   3.0148   3.2958   3.4264   3.4404   3.4404   3.5879   3.5879
     3.6080   3.6080   3.7687   3.8374   3.8375   5.2796   7.3935   7.3935
     9.6159   9.6159

          k = 0.0833 0.0833 0.3333 (  4966 PWs)   bands (ev):

     1.5343   2.3479   2.4316   2.4488   2.4488   2.5783   2.5783   2.7382
     3.0706   3.0888   3.2361   3.2361   3.2853   3.4403   3.4740   3.4954
     3.5198   3.5198   3.7132   3.8349   3.8349   4.5277   7.5136   7.5136
     9.8476   9.8476

          k = 0.0833 0.0833 0.4167 (  4958 PWs)   bands (ev):

     1.8824   2.3415   2.5033   2.5640   2.5640   2.6614   2.7010   2.7010
     3.0362   3.0363   3.0861   3.1796   3.2667   3.3749   3.3902   3.4369
     3.4369   3.5298   3.6529   3.8337   3.8337   3.9491   7.5866   7.5866
    10.1090  10.1090

          k = 0.0833 0.0833-0.5000 (  4968 PWs)   bands (ev):

     2.1912   2.1913   2.5810   2.5810   2.6252   2.6253   2.7964   2.7965
     2.9007   2.9008   3.1271   3.1272   3.2822   3.2823   3.4000   3.4000
     3.5810   3.5811   3.5906   3.5906   3.8333   3.8333   7.6102   7.6102
    10.2485  10.2485

          k = 0.0833 0.1667 0.1667 (  4959 PWs)   bands (ev):

     1.1357   2.2865   2.2989   2.2990   2.3880   2.3880   2.4399   2.8527
     2.9699   2.9828   3.3333   3.3962   3.5302   3.5302   3.5628   3.6031
     3.6506   3.6506   3.8136   3.8136   3.8186   6.3284   6.3284   7.3394
     9.5134  10.4971

          k = 0.0833 0.1667 0.2500 (  4965 PWs)   bands (ev):

     1.3547   2.3390   2.3410   2.3718   2.4427   2.4919   2.5506   2.8208
     3.0145   3.0208   3.3089   3.3420   3.4067   3.4132   3.4400   3.5477
     3.5738   3.5997   3.7743   3.7990   3.8007   5.4822   6.5637   7.4308
     9.6053  10.4009

          k = 0.0833 0.1667 0.3333 (  4967 PWs)   bands (ev):

     1.6429   2.3812   2.4244   2.4743   2.5098   2.6107   2.6678   2.7669
     3.0475   3.0804   3.1465   3.2225   3.2691   3.3206   3.4712   3.4783
     3.5068   3.5257   3.7223   3.7866   3.7893   4.7512   6.8220   7.4683
     9.7218  10.2623

          k = 0.0833 0.1667 0.4167 (  4957 PWs)   bands (ev):

     1.9668   2.3811   2.5362   2.5760   2.5951   2.7028   2.7080   2.7555
     2.9839   3.0326   3.0485   3.1179   3.1608   3.3610   3.4119   3.4221
     3.4441   3.6013   3.6541   3.7806   3.7824   4.1742   7.0697   7.4176
     9.8416  10.1070

          k = 0.0833 0.1667-0.5000 (  4952 PWs)   bands (ev):

     2.2491   2.2491   2.6378   2.6379   2.6438   2.6438   2.7483   2.7484
     2.9444   2.9445   3.0300   3.0300   3.2552   3.2553   3.3933   3.3933
     3.5593   3.5594   3.7796   3.7796   3.7898   3.7898   7.2776   7.2776
     9.9648   9.9648

          k = 0.0833 0.2500 0.2500 (  4961 PWs)   bands (ev):

     1.5544   2.3660   2.4085   2.4085   2.5497   2.5497   2.6607   2.8243
     3.0342   3.0362   3.2190   3.2190   3.2979   3.3219   3.4774   3.5021
     3.5446   3.5446   3.7544   3.7544   3.7588   5.7612   5.7612   7.4250
     9.5876  11.1114

          k = 0.0833 0.2500 0.3333 (  4965 PWs)   bands (ev):

     1.8110   2.4256   2.4411   2.5046   2.6228   2.6675   2.7662   2.8020
     3.0378   3.0417   3.0812   3.0845   3.1900   3.3085   3.4161   3.4517
     3.4940   3.6089   3.6976   3.7276   3.7292   5.0486   6.0820   7.3118
     9.6089  10.6897

          k = 0.0833 0.2500 0.4167 (  4959 PWs)   bands (ev):

     2.0892   2.4372   2.5156   2.6223   2.6914   2.7235   2.7651   2.8162
     2.9385   2.9710   3.0026   3.0658   3.1498   3.3435   3.3668   3.3938
     3.4256   3.6202   3.7095   3.7113   3.7704   4.4635   6.4231   7.0776
     9.7297  10.2926

          k = 0.0833 0.2500-0.5000 (  4960 PWs)   bands (ev):

     2.3245   2.3245   2.6282   2.6282   2.7307   2.7307   2.7489   2.7489
     2.9510   2.9510   2.9877   2.9877   3.2389   3.2390   3.3677   3.3677
     3.5152   3.5153   3.7045   3.7045   4.0375   4.0375   6.7651   6.7651
     9.9635   9.9635

          k = 0.0833 0.3333 0.3333 (  4953 PWs)   bands (ev):

     2.0163   2.4539   2.5225   2.5225   2.7470   2.7470   2.8229   2.8492
     2.9306   2.9306   3.0540   3.0965   3.1355   3.2953   3.3517   3.4195
     3.4196   3.6607   3.6607   3.6735   3.7693   5.3921   5.3921   7.0086
     9.6399  11.1546

          k = 0.0833 0.3333 0.4167 (  4965 PWs)   bands (ev):

     2.2244   2.4980   2.5087   2.6021   2.7624   2.8219   2.8330   2.8593
     2.8596   2.9339   3.0244   3.0911   3.1425   3.3063   3.3214   3.3534
     3.3701   3.5748   3.6304   3.6351   3.9975   4.7986   5.7723   6.6090
     9.8404  10.6215

          k = 0.0833 0.3333-0.5000 (  4964 PWs)   bands (ev):

     2.3964   2.3964   2.5817   2.5818   2.7880   2.7881   2.8184   2.8184
     2.9427   2.9428   3.0363   3.0363   3.2229   3.2230   3.3165   3.3165
     3.4657   3.4657   3.6201   3.6201   4.3312   4.3313   6.1832   6.1832
    10.1769  10.1769

          k = 0.0833 0.4167 0.4167 (  4957 PWs)   bands (ev):

     2.3486   2.5177   2.5385   2.5386   2.8050   2.8050   2.8419   2.8578
     2.9779   2.9779   3.0842   3.1244   3.1352   3.2475   3.2885   3.2885
     3.3566   3.5378   3.5378   3.5700   4.2942   5.1818   5.1818   6.1020
    10.1253  11.0634

          k = 0.0833 0.4167-0.5000 (  4956 PWs)   bands (ev):

     2.4527   2.4528   2.5364   2.5364   2.8211   2.8211   2.8329   2.8329
     3.0464   3.0464   3.0930   3.0930   3.2009   3.2010   3.2464   3.2464
     3.4349   3.4349   3.5328   3.5329   4.6851   4.6851   5.6177   5.6177
    10.5404  10.5404

          k = 0.0833-0.5000-0.5000 (  4960 PWs)   bands (ev):

     2.4958   2.4959   2.4959   2.4960   2.8335   2.8336   2.8336   2.8336
     3.1370   3.1371   3.1371   3.1371   3.1764   3.1764   3.1765   3.1765
     3.4587   3.4588   3.4588   3.4588   5.1129   5.1129   5.1129   5.1129
    11.0210  11.0210

          k = 0.1667 0.1667 0.1667 (  4950 PWs)   bands (ev):

     1.2627   2.3109   2.3109   2.3109   2.4773   2.4773   2.4773   2.8711
     2.9835   2.9835   3.3719   3.3719   3.4832   3.4832   3.4832   3.5389
     3.5389   3.5389   3.8181   3.8181   3.8182   6.4816   6.4816   6.4816
    10.3282  10.3282

          k = 0.1667 0.1667 0.2500 (  4952 PWs)   bands (ev):

     1.4656   2.3433   2.3574   2.3574   2.5374   2.5876   2.5876   2.8645
     3.0098   3.0123   3.3235   3.3236   3.3525   3.3603   3.4296   3.4541
     3.4959   3.4959   3.8020   3.8025   3.8025   5.6625   6.6932   6.6932
    10.0476  10.0476

          k = 0.1667 0.1667 0.3333 (  4974 PWs)   bands (ev):

     1.7267   2.3692   2.4363   2.4363   2.6142   2.6960   2.6960   2.8312
     3.0353   3.0515   3.1561   3.1561   3.2090   3.3610   3.3956   3.4462
     3.4462   3.4996   3.7668   3.7806   3.7806   4.9356   6.9167   6.9167
     9.7229   9.7229

          k = 0.1667 0.1667 0.4167 (  4956 PWs)   bands (ev):

     2.0091   2.3569   2.5422   2.5423   2.6936   2.7410   2.7410   2.7915
     3.0094   3.0481   3.0481   3.0618   3.1096   3.2683   3.3869   3.3869
     3.5657   3.5747   3.7141   3.7640   3.7640   4.3322   7.0969   7.0969
     9.4595   9.4596

          k = 0.1667 0.1667-0.5000 (  4968 PWs)   bands (ev):

     2.2436   2.2436   2.6486   2.6487   2.6758   2.6758   2.7525   2.7525
     2.9892   2.9892   3.0335   3.0336   3.1828   3.1829   3.3550   3.3551
     3.6482   3.6483   3.7581   3.7581   3.8747   3.8748   7.1688   7.1688
     9.3564   9.3565

          k = 0.1667 0.2500 0.2500 (  4954 PWs)   bands (ev):

     1.6384   2.3743   2.3783   2.3783   2.6487   2.6487   2.6924   2.9092
     3.0106   3.0240   3.2126   3.2126   3.2640   3.3665   3.4019   3.4145
     3.4145   3.4763   3.7859   3.7942   3.7942   5.9223   5.9223   6.8639
     9.5890  10.4969

          k = 0.1667 0.2500 0.3333 (  4963 PWs)   bands (ev):

     1.8515   2.3860   2.4210   2.4421   2.7304   2.7429   2.7749   2.9132
     3.0326   3.0477   3.0814   3.0920   3.1693   3.3197   3.3493   3.3820
     3.4056   3.5790   3.7585   3.7659   3.7676   5.2070   6.2291   7.0070
     9.1887   9.9398

          k = 0.1667 0.2500 0.4167 (  4960 PWs)   bands (ev):

     2.0703   2.3540   2.4918   2.5223   2.7440   2.7759   2.8248   2.9041
     2.9864   3.0088   3.0616   3.0804   3.1289   3.2262   3.3065   3.3376
     3.5268   3.7146   3.7340   3.7398   3.7561   4.5871   6.5525   7.0198
     9.0035   9.4565

          k = 0.1667 0.2500-0.5000 (  4958 PWs)   bands (ev):

     2.2497   2.2498   2.5573   2.5574   2.7192   2.7193   2.9069   2.9070
     2.9387   2.9387   3.1149   3.1149   3.1444   3.1445   3.2959   3.2960
     3.6378   3.6378   3.7262   3.7262   4.0926   4.0926   6.8451   6.8451
     9.1137   9.1137

          k = 0.1667 0.3333 0.3333 (  4953 PWs)   bands (ev):

     1.9972   2.4239   2.4240   2.4280   2.8030   2.8030   2.8185   2.9391
     3.0268   3.0268   3.0300   3.1253   3.1859   3.2705   3.2985   3.2985
     3.3967   3.7248   3.7376   3.7376   3.7434   5.5404   5.5404   6.9706
     8.8785  10.3113

          k = 0.1667 0.3333 0.4167 (  4958 PWs)   bands (ev):

     2.1424   2.3671   2.4521   2.4644   2.7782   2.8043   2.8594   2.9236
     3.0174   3.0475   3.0875   3.1513   3.2104   3.2144   3.2247   3.2767
     3.4765   3.6815   3.6918   3.7014   4.0002   4.9153   5.9207   6.7161
     8.9174   9.7157

          k = 0.1667 0.3333-0.5000 (  4958 PWs)   bands (ev):

     2.2700   2.2700   2.4749   2.4750   2.7698   2.7699   2.8969   2.8970
     3.0479   3.0480   3.1528   3.1529   3.1680   3.1680   3.2483   3.2484
     3.5930   3.5931   3.6807   3.6807   4.3919   4.3919   6.3290   6.3290
     9.2328   9.2328

          k = 0.1667 0.4167 0.4167 (  4959 PWs)   bands (ev):

     2.2208   2.3864   2.3864   2.4245   2.8168   2.8266   2.8266   2.9061
     3.0497   3.1005   3.1005   3.1631   3.2419   3.2420   3.2676   3.2751
     3.4641   3.6386   3.6387   3.6434   4.3308   5.3082   5.3082   6.2518
     9.1524  10.1393

          k = 0.1667 0.4167-0.5000 (  4958 PWs)   bands (ev):

     2.3030   2.3031   2.4049   2.4049   2.8167   2.8167   2.8726   2.8726
     3.0746   3.0746   3.1309   3.1309   3.2638   3.2639   3.2884   3.2885
     3.5476   3.5477   3.6173   3.6173   4.7689   4.7689   5.7606   5.7607
     9.5814   9.5814

          k = 0.1667-0.5000-0.5000 (  4984 PWs)   bands (ev):

     2.3478   2.3479   2.3479   2.3479   2.8508   2.8509   2.8509   2.8509
     3.0897   3.0897   3.0897   3.0897   3.3234   3.3235   3.3235   3.3235
     3.5519   3.5520   3.5521   3.5521   5.2283   5.2284   5.2284   5.2284
    10.0760  10.0761

          k = 0.2500 0.2500 0.2500 (  4953 PWs)   bands (ev):

     1.7644   2.3761   2.3761   2.3761   2.7439   2.7439   2.7439   2.9971
     2.9971   3.0539   3.1870   3.1870   3.1871   3.3120   3.3120   3.3120
     3.4520   3.4520   3.7992   3.7992   3.7993   6.1619   6.1619   6.1619
     9.8158   9.8158

          k = 0.2500 0.2500 0.3333 (  4949 PWs)   bands (ev):

     1.9133   2.3557   2.3978   2.3979   2.7930   2.7930   2.8097   2.9758
     3.0020   3.1172   3.1542   3.1543   3.1702   3.2221   3.2712   3.2712
     3.5182   3.5417   3.7796   3.7796   3.7898   5.4565   6.4461   6.4461
     9.1893   9.1893

          k = 0.2500 0.2500 0.4167 (  4966 PWs)   bands (ev):

     2.0641   2.2977   2.4320   2.4321   2.7714   2.7714   2.8749   2.9496
     3.0280   3.0849   3.1412   3.1614   3.1756   3.1756   3.2529   3.2529
     3.6268   3.7517   3.7517   3.7561   3.8054   4.8093   6.7163   6.7163
     8.7056   8.7056

          k = 0.2500 0.2500-0.5000 (  4982 PWs)   bands (ev):

     2.1975   2.1976   2.4511   2.4512   2.7472   2.7472   2.9202   2.9203
     3.0751   3.0752   3.1086   3.1087   3.2072   3.2072   3.2361   3.2361
     3.7003   3.7003   3.7381   3.7382   4.2511   4.2511   6.8435   6.8435
     8.5060   8.5061

          k = 0.2500 0.3333 0.3333 (  4953 PWs)   bands (ev):

     1.9911   2.3454   2.3455   2.3716   2.8092   2.8229   2.8229   2.9690
     2.9822   3.1383   3.1384   3.1808   3.2183   3.2184   3.2489   3.3744
     3.4997   3.7075   3.7663   3.7787   3.7787   5.7806   5.7806   6.6756
     8.5622   9.4734

          k = 0.2500 0.3333 0.4167 (  4955 PWs)   bands (ev):

     2.0800   2.2670   2.3474   2.3590   2.7994   2.8002   2.8614   2.9396
     2.9941   3.0846   3.1247   3.1361   3.2405   3.2988   3.3237   3.3673
     3.6030   3.7403   3.7493   3.7507   4.0486   5.1276   6.1582   6.7626
     8.2329   8.8461

          k = 0.2500 0.3333-0.5000 (  4946 PWs)   bands (ev):

     2.1746   2.1746   2.3528   2.3528   2.7893   2.7893   2.9020   2.9020
     3.0303   3.0303   3.1215   3.1215   3.2997   3.2997   3.3473   3.3473
     3.6935   3.6936   3.7289   3.7289   4.5394   4.5394   6.5382   6.5382
     8.3788   8.3788

          k = 0.2500 0.4167 0.4167 (  4937 PWs)   bands (ev):

     2.1194   2.2591   2.2591   2.3056   2.8206   2.8433   2.8433   2.9229
     2.9813   3.0568   3.0569   3.0770   3.3745   3.3745   3.4159   3.5037
     3.5664   3.7105   3.7181   3.7182   4.4373   5.5313   5.5313   6.4753
     8.2660   9.2378

          k = 0.2500 0.4167-0.5000 (  4946 PWs)   bands (ev):

     2.1806   2.1806   2.2722   2.2723   2.8324   2.8324   2.8876   2.8876
     3.0054   3.0054   3.0517   3.0517   3.4454   3.4454   3.4522   3.4522
     3.6526   3.6527   3.6926   3.6926   4.9422   4.9422   6.0010   6.0010
     8.6639   8.6639

          k = 0.2500-0.5000-0.5000 (  4936 PWs)   bands (ev):

     2.2138   2.2139   2.2139   2.2139   2.8672   2.8673   2.8673   2.8673
     3.0101   3.0102   3.0102   3.0102   3.5099   3.5099   3.5099   3.5100
     3.6404   3.6405   3.6405   3.6405   5.4404   5.4404   5.4404   5.4404
     9.1566   9.1566

          k = 0.3333 0.3333 0.3333 (  4941 PWs)   bands (ev):

     2.0082   2.2895   2.2895   2.2895   2.8273   2.8273   2.8273   2.9574
     2.9574   3.0978   3.0978   3.0978   3.3193   3.3193   3.3194   3.5958
     3.5958   3.7849   3.7849   3.7849   3.8115   6.0984   6.0984   6.0984
     8.7131   8.7131

          k = 0.3333 0.3333 0.4167 (  4941 PWs)   bands (ev):

     2.0508   2.1994   2.2563   2.2563   2.8238   2.8238   2.8611   2.9321
     2.9572   3.0297   3.0561   3.0561   3.3954   3.4280   3.4281   3.5481
     3.6778   3.7668   3.7668   3.7761   4.2655   5.4441   6.4519   6.4519
     8.0892   8.0892

          k = 0.3333 0.3333-0.5000 (  4940 PWs)   bands (ev):

     2.1165   2.1165   2.2453   2.2454   2.8209   2.8210   2.8985   2.8985
     2.9818   2.9818   3.0429   3.0429   3.4737   3.4737   3.4743   3.4744
     3.7395   3.7395   3.7522   3.7522   4.8205   4.8205   6.6581   6.6581
     7.7921   7.7921

          k = 0.3333 0.4167 0.4167 (  4929 PWs)   bands (ev):

     2.0569   2.1649   2.1649   2.1943   2.8434   2.8589   2.8589   2.9234
     2.9352   2.9927   2.9928   3.0034   3.5221   3.5221   3.5371   3.6549
     3.6692   3.7567   3.7646   3.7646   4.6902   5.8573   5.8573   6.6265
     7.6335   8.4115

          k = 0.3333 0.4167-0.5000 (  4924 PWs)   bands (ev):

     2.0962   2.0962   2.1634   2.1635   2.8545   2.8545   2.8944   2.8944
     2.9511   2.9511   2.9823   2.9823   3.5820   3.5821   3.6028   3.6028
     3.7306   3.7307   3.7447   3.7447   5.2397   5.2397   6.3246   6.3246
     7.8432   7.8432

          k = 0.3333-0.5000-0.5000 (  4896 PWs)   bands (ev):

     2.1125   2.1126   2.1126   2.1126   2.8822   2.8822   2.8822   2.8822
     2.9485   2.9486   2.9486   2.9486   3.6550   3.6551   3.6551   3.6552
     3.7110   3.7111   3.7111   3.7111   5.7643   5.7644   5.7644   5.7644
     8.3103   8.3103

          k = 0.4167 0.4167 0.4167 (  4926 PWs)   bands (ev):

     2.0349   2.1072   2.1073   2.1073   2.8710   2.8710   2.8710   2.9140
     2.9140   2.9494   2.9494   2.9494   3.6339   3.6339   3.6339   3.7225
     3.7225   3.7753   3.7753   3.7753   5.1171   6.2678   6.2678   6.2678
     7.6975   7.6975

          k = 0.4167 0.4167-0.5000 (  4912 PWs)   bands (ev):

     2.0526   2.0526   2.0878   2.0879   2.8762   2.8762   2.8959   2.8959
     2.9188   2.9189   2.9336   2.9337   3.6840   3.6841   3.7002   3.7002
     3.7637   3.7638   3.7666   3.7666   5.6688   5.6688   6.5700   6.5700
     7.2938   7.2938

          k = 0.4167-0.5000-0.5000 (  4904 PWs)   bands (ev):

     2.0501   2.0501   2.0501   2.0501   2.8928   2.8929   2.8929   2.8929
     2.9098   2.9099   2.9099   2.9099   3.7429   3.7430   3.7430   3.7430
     3.7563   3.7563   3.7564   3.7564   6.1925   6.1926   6.1926   6.1926
     7.5664   7.5664

          k =-0.5000-0.5000-0.5000 (  4896 PWs)   bands (ev):

     2.0290   2.0291   2.0291   2.0291   2.8966   2.8966   2.8967   2.8967
     2.8967   2.8967   2.8967   2.8967   3.7718   3.7718   3.7719   3.7719
     3.7719   3.7720   3.7720   3.7720   6.5446   6.5446   6.5446   6.5446
     7.1093   7.1093

     the Fermi energy is     6.5494 ev

!    total energy              =   -3100.60935156 Ry

     total all-electron energy =   -152095.993716 Ry
     estimated scf accuracy    <       0.00000005 Ry
     smearing contrib. (-TS)   =      -0.86101282 Ry
     internal energy E=F+TS    =   -3099.74833874 Ry

     The total energy is F=E-TS. E is the sum of the following terms:
     one-electron contribution =     -20.16950468 Ry
     hartree contribution      =      53.57781557 Ry
     xc contribution           =    -127.12262431 Ry
     ewald contribution        =    -236.10583523 Ry
     one-center paw contrib.   =   -2769.92819010 Ry

     convergence has been achieved in  14 iterations

     Forces acting on atoms (cartesian axes, Ry/au):

     atom    1 type  1   force =     0.00000000    0.00000000    0.00000000
     atom    2 type  1   force =     0.00000000    0.00000000    0.00000000
     atom    3 type  1   force =     0.00000000    0.00000000   -0.00000000
     atom    4 type  1   force =     0.00000000    0.00000000    0.00000000

     Total force =     0.000000     Total SCF correction =     0.000000

     Writing all to output data dir ./pwscf.save/
 
     init_run     :      1.08s CPU      1.97s WALL (       1 calls)
     electrons    :     53.65s CPU     55.80s WALL (       1 calls)
     forces       :      0.17s CPU      0.27s WALL (       1 calls)

     Called by init_run:
     wfcinit      :      0.93s CPU      0.95s WALL (       1 calls)
     potinit      :      0.06s CPU      0.45s WALL (       1 calls)
     hinit0       :      0.06s CPU      0.23s WALL (       1 calls)

     Called by electrons:
     c_bands      :     48.26s CPU     48.98s WALL (      15 calls)
     sum_band     :      4.35s CPU      4.58s WALL (      15 calls)
     v_of_rho     :      0.20s CPU      1.58s WALL (      15 calls)
     newd         :      0.10s CPU      0.38s WALL (      15 calls)
     PAW_pot      :      0.75s CPU      0.76s WALL (      15 calls)
     mix_rho      :      0.01s CPU      0.01s WALL (      15 calls)

     Called by c_bands:
     init_us_2    :      0.26s CPU      0.27s WALL (    2688 calls)
     init_us_2:cp :      0.26s CPU      0.27s WALL (    2688 calls)
     cegterg      :     46.35s CPU     47.04s WALL (    1260 calls)

     Called by *egterg:
     cdiaghg      :      9.49s CPU      9.59s WALL (    6701 calls)
     h_psi        :     28.98s CPU     29.48s WALL (    6869 calls)
     s_psi        :      1.23s CPU      1.25s WALL (    6869 calls)
     g_psi        :      0.13s CPU      0.13s WALL (    5525 calls)

     Called by h_psi:
     h_psi:calbec :      1.72s CPU      1.75s WALL (    6869 calls)
     vloc_psi     :     25.98s CPU     26.42s WALL (    6869 calls)
     add_vuspsi   :      1.21s CPU      1.23s WALL (    6869 calls)

     General routines
     calbec       :      2.19s CPU      2.23s WALL (    8465 calls)
     fft          :      0.23s CPU      2.23s WALL (     177 calls)
     ffts         :      0.01s CPU      0.03s WALL (      15 calls)
     fftw         :     27.89s CPU     28.38s WALL (  286862 calls)
 
     Parallel routines
 
     PWSCF        :     56.38s CPU   1m 1.91s WALL

 
   This run was terminated on:  12:36:54   5Apr2024            

=------------------------------------------------------------------------------=
   JOB DONE.
=------------------------------------------------------------------------------=
