MPI startup(): Warning: I_MPI_PMI_LIBRARY will be ignored since the hydra process manager was found
MPI startup(): Warning: I_MPI_PMI_LIBRARY will be ignored since the hydra process manager was found
MPI startup(): Warning: I_MPI_PMI_LIBRARY will be ignored since the hydra process manager was found
MPI startup(): Warning: I_MPI_PMI_LIBRARY will be ignored since the hydra process manager was found
MPI startup(): Warning: I_MPI_PMI_LIBRARY will be ignored since the hydra process manager was found
MPI startup(): Warning: I_MPI_PMI_LIBRARY will be ignored since the hydra process manager was found
MPI startup(): Warning: I_MPI_PMI_LIBRARY will be ignored since the hydra process manager was found
MPI startup(): Warning: I_MPI_PMI_LIBRARY will be ignored since the hydra process manager was found
MPI startup(): Warning: I_MPI_PMI_LIBRARY will be ignored since the hydra process manager was found
MPI startup(): Warning: I_MPI_PMI_LIBRARY will be ignored since the hydra process manager was found

     Program PWSCF v.7.0 starts on  5Apr2024 at 12:35:50 

     This program is part of the open-source Quantum ESPRESSO suite
     for quantum simulation of materials; please cite
         "P. Giannozzi et al., J. Phys.:Condens. Matter 21 395502 (2009);
         "P. Giannozzi et al., J. Phys.:Condens. Matter 29 465901 (2017);
         "P. Giannozzi et al., J. Chem. Phys. 152 154105 (2020);
          URL http://www.quantum-espresso.org", 
     in publications or presentations arising from this work. More details at
     http://www.quantum-espresso.org/quote

     Parallel version (MPI), running on    10 processors

     MPI processes distributed on     1 nodes
     R & G space division:  proc/nbgrp/npool/nimage =      10
     234578 MiB available memory on the printing compute node when the environment starts
 
     Reading input from VolumeFCC_9.1.in
Warning: card &CELL ignored
Warning: card / ignored

     Current dimensions of program PWSCF are:
     Max number of different atomic species (ntypx) = 10
     Max number of k-points (npk) =  40000
     Max angular momentum in pseudopotentials (lmaxx) =  4
     file Au.pbe-n-kjpaw_psl.1.0.0.UPF: wavefunction(s)  6S 5D renormalized
     Found identity + (  0.5000  0.5000  0.0000) symmetry
     This is a supercell, fractional translations are disabled
     Message from routine setup:
     using ibrav=0 with symmetry is DISCOURAGED, use correct ibrav instead

     Subspace diagonalization in iterative solution of the eigenvalue problem:
     one sub-group per band group will be used
     scalapack distributed-memory algorithm (size of sub-group:  3*  3 procs)

 
     Parallelization info
     --------------------
     sticks:   dense  smooth     PW     G-vecs:    dense   smooth      PW
     Min         131     131     38                 3601     3601     572
     Max         132     132     39                 3605     3605     575
     Sum        1313    1313    385                36041    36041    5743
 
     Using Slab Decomposition
 


     bravais-lattice index     =            0
     lattice parameter (alat)  =       9.0987  a.u.
     unit-cell volume          =     753.2435 (a.u.)^3
     number of atoms/cell      =            4
     number of atomic types    =            1
     number of electrons       =        44.00
     number of Kohn-Sham states=           26
     kinetic-energy cutoff     =      50.0000  Ry
     charge density cutoff     =     200.0000  Ry
     scf convergence threshold =      1.0E-06
     mixing beta               =       0.7000
     number of iterations used =            8  plain     mixing
     Exchange-correlation= SLA  PW   PBX  PBC
                           (   1   4   3   4   0   0   0)

     celldm(1)=   9.098681  celldm(2)=   0.000000  celldm(3)=   0.000000
     celldm(4)=   0.000000  celldm(5)=   0.000000  celldm(6)=   0.000000

     crystal axes: (cart. coord. in units of alat)
               a(1) = (   1.000000   0.000000   0.000000 )  
               a(2) = (   0.000000   1.000000   0.000000 )  
               a(3) = (   0.000000   0.000000   1.000000 )  

     reciprocal axes: (cart. coord. in units 2 pi/alat)
               b(1) = (  1.000000  0.000000  0.000000 )  
               b(2) = (  0.000000  1.000000  0.000000 )  
               b(3) = (  0.000000  0.000000  1.000000 )  


     PseudoPot. # 1 for Au read from file:
     ./Au.pbe-n-kjpaw_psl.1.0.0.UPF
     MD5 check sum: 4db85c736373c707a97ce4c36c2a9d23
     Pseudo is Projector augmented-wave + core cor, Zval = 11.0
     Generated using &quot;atomic&quot; code by A. Dal Corso  v.6.3
     Shape of augmentation charge: PSQ
     Using radial grid of 1279 points,  6 beta functions with: 
                l(1) =   0
                l(2) =   0
                l(3) =   1
                l(4) =   1
                l(5) =   2
                l(6) =   2
     Q(r) pseudized with 0 coefficients 


     atomic species   valence    mass     pseudopotential
        Au            11.00   196.96657     Au( 1.00)

     48 Sym. Ops., with inversion, found



   Cartesian axes

     site n.     atom                  positions (alat units)
         1           Au  tau(   1) = (   0.0000000   0.0000000   0.0000000  )
         2           Au  tau(   2) = (   0.5000000   0.5000000   0.0000000  )
         3           Au  tau(   3) = (   0.5000000   0.0000000   0.5000000  )
         4           Au  tau(   4) = (   0.0000000   0.5000000   0.5000000  )

     number of k points=    84  Gaussian smearing, width (Ry)=  0.2000
                       cart. coord. in units 2pi/alat
        k(    1) = (   0.0000000   0.0000000   0.0000000), wk =   0.0011574
        k(    2) = (   0.0000000   0.0000000   0.0833333), wk =   0.0069444
        k(    3) = (   0.0000000   0.0000000   0.1666667), wk =   0.0069444
        k(    4) = (   0.0000000   0.0000000   0.2500000), wk =   0.0069444
        k(    5) = (   0.0000000   0.0000000   0.3333333), wk =   0.0069444
        k(    6) = (   0.0000000   0.0000000   0.4166667), wk =   0.0069444
        k(    7) = (   0.0000000   0.0000000  -0.5000000), wk =   0.0034722
        k(    8) = (   0.0000000   0.0833333   0.0833333), wk =   0.0138889
        k(    9) = (   0.0000000   0.0833333   0.1666667), wk =   0.0277778
        k(   10) = (   0.0000000   0.0833333   0.2500000), wk =   0.0277778
        k(   11) = (   0.0000000   0.0833333   0.3333333), wk =   0.0277778
        k(   12) = (   0.0000000   0.0833333   0.4166667), wk =   0.0277778
        k(   13) = (   0.0000000   0.0833333  -0.5000000), wk =   0.0138889
        k(   14) = (   0.0000000   0.1666667   0.1666667), wk =   0.0138889
        k(   15) = (   0.0000000   0.1666667   0.2500000), wk =   0.0277778
        k(   16) = (   0.0000000   0.1666667   0.3333333), wk =   0.0277778
        k(   17) = (   0.0000000   0.1666667   0.4166667), wk =   0.0277778
        k(   18) = (   0.0000000   0.1666667  -0.5000000), wk =   0.0138889
        k(   19) = (   0.0000000   0.2500000   0.2500000), wk =   0.0138889
        k(   20) = (   0.0000000   0.2500000   0.3333333), wk =   0.0277778
        k(   21) = (   0.0000000   0.2500000   0.4166667), wk =   0.0277778
        k(   22) = (   0.0000000   0.2500000  -0.5000000), wk =   0.0138889
        k(   23) = (   0.0000000   0.3333333   0.3333333), wk =   0.0138889
        k(   24) = (   0.0000000   0.3333333   0.4166667), wk =   0.0277778
        k(   25) = (   0.0000000   0.3333333  -0.5000000), wk =   0.0138889
        k(   26) = (   0.0000000   0.4166667   0.4166667), wk =   0.0138889
        k(   27) = (   0.0000000   0.4166667  -0.5000000), wk =   0.0138889
        k(   28) = (   0.0000000  -0.5000000  -0.5000000), wk =   0.0034722
        k(   29) = (   0.0833333   0.0833333   0.0833333), wk =   0.0092593
        k(   30) = (   0.0833333   0.0833333   0.1666667), wk =   0.0277778
        k(   31) = (   0.0833333   0.0833333   0.2500000), wk =   0.0277778
        k(   32) = (   0.0833333   0.0833333   0.3333333), wk =   0.0277778
        k(   33) = (   0.0833333   0.0833333   0.4166667), wk =   0.0277778
        k(   34) = (   0.0833333   0.0833333  -0.5000000), wk =   0.0138889
        k(   35) = (   0.0833333   0.1666667   0.1666667), wk =   0.0277778
        k(   36) = (   0.0833333   0.1666667   0.2500000), wk =   0.0555556
        k(   37) = (   0.0833333   0.1666667   0.3333333), wk =   0.0555556
        k(   38) = (   0.0833333   0.1666667   0.4166667), wk =   0.0555556
        k(   39) = (   0.0833333   0.1666667  -0.5000000), wk =   0.0277778
        k(   40) = (   0.0833333   0.2500000   0.2500000), wk =   0.0277778
        k(   41) = (   0.0833333   0.2500000   0.3333333), wk =   0.0555556
        k(   42) = (   0.0833333   0.2500000   0.4166667), wk =   0.0555556
        k(   43) = (   0.0833333   0.2500000  -0.5000000), wk =   0.0277778
        k(   44) = (   0.0833333   0.3333333   0.3333333), wk =   0.0277778
        k(   45) = (   0.0833333   0.3333333   0.4166667), wk =   0.0555556
        k(   46) = (   0.0833333   0.3333333  -0.5000000), wk =   0.0277778
        k(   47) = (   0.0833333   0.4166667   0.4166667), wk =   0.0277778
        k(   48) = (   0.0833333   0.4166667  -0.5000000), wk =   0.0277778
        k(   49) = (   0.0833333  -0.5000000  -0.5000000), wk =   0.0069444
        k(   50) = (   0.1666667   0.1666667   0.1666667), wk =   0.0092593
        k(   51) = (   0.1666667   0.1666667   0.2500000), wk =   0.0277778
        k(   52) = (   0.1666667   0.1666667   0.3333333), wk =   0.0277778
        k(   53) = (   0.1666667   0.1666667   0.4166667), wk =   0.0277778
        k(   54) = (   0.1666667   0.1666667  -0.5000000), wk =   0.0138889
        k(   55) = (   0.1666667   0.2500000   0.2500000), wk =   0.0277778
        k(   56) = (   0.1666667   0.2500000   0.3333333), wk =   0.0555556
        k(   57) = (   0.1666667   0.2500000   0.4166667), wk =   0.0555556
        k(   58) = (   0.1666667   0.2500000  -0.5000000), wk =   0.0277778
        k(   59) = (   0.1666667   0.3333333   0.3333333), wk =   0.0277778
        k(   60) = (   0.1666667   0.3333333   0.4166667), wk =   0.0555556
        k(   61) = (   0.1666667   0.3333333  -0.5000000), wk =   0.0277778
        k(   62) = (   0.1666667   0.4166667   0.4166667), wk =   0.0277778
        k(   63) = (   0.1666667   0.4166667  -0.5000000), wk =   0.0277778
        k(   64) = (   0.1666667  -0.5000000  -0.5000000), wk =   0.0069444
        k(   65) = (   0.2500000   0.2500000   0.2500000), wk =   0.0092593
        k(   66) = (   0.2500000   0.2500000   0.3333333), wk =   0.0277778
        k(   67) = (   0.2500000   0.2500000   0.4166667), wk =   0.0277778
        k(   68) = (   0.2500000   0.2500000  -0.5000000), wk =   0.0138889
        k(   69) = (   0.2500000   0.3333333   0.3333333), wk =   0.0277778
        k(   70) = (   0.2500000   0.3333333   0.4166667), wk =   0.0555556
        k(   71) = (   0.2500000   0.3333333  -0.5000000), wk =   0.0277778
        k(   72) = (   0.2500000   0.4166667   0.4166667), wk =   0.0277778
        k(   73) = (   0.2500000   0.4166667  -0.5000000), wk =   0.0277778
        k(   74) = (   0.2500000  -0.5000000  -0.5000000), wk =   0.0069444
        k(   75) = (   0.3333333   0.3333333   0.3333333), wk =   0.0092593
        k(   76) = (   0.3333333   0.3333333   0.4166667), wk =   0.0277778
        k(   77) = (   0.3333333   0.3333333  -0.5000000), wk =   0.0138889
        k(   78) = (   0.3333333   0.4166667   0.4166667), wk =   0.0277778
        k(   79) = (   0.3333333   0.4166667  -0.5000000), wk =   0.0277778
        k(   80) = (   0.3333333  -0.5000000  -0.5000000), wk =   0.0069444
        k(   81) = (   0.4166667   0.4166667   0.4166667), wk =   0.0092593
        k(   82) = (   0.4166667   0.4166667  -0.5000000), wk =   0.0138889
        k(   83) = (   0.4166667  -0.5000000  -0.5000000), wk =   0.0069444
        k(   84) = (  -0.5000000  -0.5000000  -0.5000000), wk =   0.0011574

     Dense  grid:    36041 G-vectors     FFT dimensions: (  45,  45,  45)

     Estimated max dynamical RAM per process >      29.78 MB

     Estimated total dynamical RAM >     297.82 MB

     Initial potential from superposition of free atoms

     starting charge      43.9996, renormalised to      44.0000
     Starting wfcs are   36 randomized atomic wfcs
     Checking if some PAW data can be deallocated... 

     total cpu time spent up to now is        1.9 secs

     Self-consistent Calculation

     iteration #  1     ecut=    50.00 Ry     beta= 0.70
     Davidson diagonalization with overlap
     ethr =  1.00E-02,  avg # of iterations =  2.4

     Threshold (ethr) on eigenvalues was too large:
     Diagonalizing with lowered threshold

     Davidson diagonalization with overlap
     ethr =  6.96E-04,  avg # of iterations =  3.4

     total cpu time spent up to now is        6.0 secs

     total energy              =   -3100.50723753 Ry
     estimated scf accuracy    <       0.33746593 Ry

     iteration #  2     ecut=    50.00 Ry     beta= 0.70
     Davidson diagonalization with overlap
     ethr =  7.67E-04,  avg # of iterations =  2.2

     total cpu time spent up to now is        8.5 secs

     total energy              =   -3100.63145261 Ry
     estimated scf accuracy    <       0.12730331 Ry

     iteration #  3     ecut=    50.00 Ry     beta= 0.70
     Davidson diagonalization with overlap
     ethr =  2.89E-04,  avg # of iterations =  1.9

     total cpu time spent up to now is       10.5 secs

     total energy              =   -3100.65038173 Ry
     estimated scf accuracy    <       0.00529238 Ry

     iteration #  4     ecut=    50.00 Ry     beta= 0.70
     Davidson diagonalization with overlap
     ethr =  1.20E-05,  avg # of iterations =  6.2

     total cpu time spent up to now is       14.0 secs

     total energy              =   -3100.65523388 Ry
     estimated scf accuracy    <       0.00256463 Ry

     iteration #  5     ecut=    50.00 Ry     beta= 0.70
     Davidson diagonalization with overlap
     ethr =  5.83E-06,  avg # of iterations =  5.6

     total cpu time spent up to now is       17.7 secs

     total energy              =   -3100.65051811 Ry
     estimated scf accuracy    <       0.01979619 Ry

     iteration #  6     ecut=    50.00 Ry     beta= 0.70
     Davidson diagonalization with overlap
     ethr =  5.83E-06,  avg # of iterations =  4.2

     total cpu time spent up to now is       20.6 secs

     total energy              =   -3100.65427549 Ry
     estimated scf accuracy    <       0.00007435 Ry

     iteration #  7     ecut=    50.00 Ry     beta= 0.70
     Davidson diagonalization with overlap
     ethr =  1.69E-07,  avg # of iterations =  9.0

     total cpu time spent up to now is       26.2 secs

     total energy              =   -3100.65447411 Ry
     estimated scf accuracy    <       0.00001904 Ry

     iteration #  8     ecut=    50.00 Ry     beta= 0.70
     Davidson diagonalization with overlap
     ethr =  4.33E-08,  avg # of iterations =  4.0

     total cpu time spent up to now is       28.7 secs

     total energy              =   -3100.65446190 Ry
     estimated scf accuracy    <       0.00002642 Ry

     iteration #  9     ecut=    50.00 Ry     beta= 0.70
     Davidson diagonalization with overlap
     ethr =  4.33E-08,  avg # of iterations =  2.0

     total cpu time spent up to now is       31.0 secs

     total energy              =   -3100.65452822 Ry
     estimated scf accuracy    <       0.00000216 Ry

     iteration # 10     ecut=    50.00 Ry     beta= 0.70
     Davidson diagonalization with overlap
     ethr =  4.91E-09,  avg # of iterations = 13.0

     total cpu time spent up to now is       39.1 secs

     total energy              =   -3100.65461835 Ry
     estimated scf accuracy    <       0.00042103 Ry

     iteration # 11     ecut=    50.00 Ry     beta= 0.70
     Davidson diagonalization with overlap
     ethr =  4.91E-09,  avg # of iterations =  1.2

     total cpu time spent up to now is       40.7 secs

     total energy              =   -3100.65445543 Ry
     estimated scf accuracy    <       0.00042145 Ry

     iteration # 12     ecut=    50.00 Ry     beta= 0.70
     Davidson diagonalization with overlap
     c_bands:  2 eigenvalues not converged
     ethr =  4.91E-09,  avg # of iterations =  9.3

     total cpu time spent up to now is       46.4 secs

     total energy              =   -3100.65445976 Ry
     estimated scf accuracy    <       0.00006026 Ry

     iteration # 13     ecut=    50.00 Ry     beta= 0.70
     Davidson diagonalization with overlap
     ethr =  4.91E-09,  avg # of iterations =  7.2

     total cpu time spent up to now is       50.8 secs

     total energy              =   -3100.65447075 Ry
     estimated scf accuracy    <       0.00000137 Ry

     iteration # 14     ecut=    50.00 Ry     beta= 0.70
     Davidson diagonalization with overlap
     ethr =  3.11E-09,  avg # of iterations =  1.2

     total cpu time spent up to now is       52.4 secs

     total energy              =   -3100.65446946 Ry
     estimated scf accuracy    <       0.00000283 Ry

     iteration # 15     ecut=    50.00 Ry     beta= 0.70
     Davidson diagonalization with overlap
     ethr =  3.11E-09,  avg # of iterations =  3.7

     total cpu time spent up to now is       54.8 secs

     End of self-consistent calculation

          k = 0.0000 0.0000 0.0000 (  4457 PWs)   bands (ev):

     1.3565   3.0597   3.0597   3.0604   3.1389   3.1389   3.1389   3.9535
     3.9535   3.9535   4.5371   4.5371   4.9895   4.9897   4.9897   5.1425
     5.1425   5.1425   5.1428   5.1428   5.1428   9.2972   9.2972   9.2972
     9.6916   9.6916

          k = 0.0000 0.0000 0.0833 (  4497 PWs)   bands (ev):

     1.4091   3.0738   3.0855   3.0859   3.1517   3.1600   3.1600   3.9384
     3.9695   3.9695   4.5218   4.5445   4.9688   4.9690   4.9816   5.0773
     5.0773   5.1163   5.1163   5.1425   5.1428   8.2864   9.4095   9.4095
     9.6772   9.6774

          k = 0.0000 0.0000 0.1667 (  4525 PWs)   bands (ev):

     1.5658   3.1120   3.1598   3.1602   3.1895   3.2231   3.2231   3.8945
     4.0170   4.0170   4.4781   4.5663   4.9017   4.9017   4.9082   4.9083
     4.9581   5.0409   5.0409   5.1426   5.1429   7.2021   9.6379   9.6381
     9.7253   9.7253

          k = 0.0000 0.0000 0.2500 (  4504 PWs)   bands (ev):

     1.8214   3.1626   3.2502   3.2727   3.2731   3.3279   3.3279   3.8255
     4.0945   4.0945   4.4142   4.6010   4.6593   4.6593   4.8134   4.8135
     4.9209   4.9258   4.9258   5.1427   5.1430   6.2268   9.5831   9.5833
    10.1986  10.1986

          k = 0.0000 0.0000 0.3333 (  4500 PWs)   bands (ev):

     2.1635   3.1973   3.3305   3.4048   3.4052   3.4731   3.4731   3.7370
     4.1995   4.1995   4.3472   4.3908   4.3908   4.6467   4.6987   4.6989
     4.7841   4.7841   4.8729   5.1428   5.1431   5.3907   9.5271   9.5273
    10.7848  10.7848

          k = 0.0000 0.0000 0.4167 (  4504 PWs)   bands (ev):

     2.5612   3.1528   3.4256   3.5215   3.5219   3.6359   3.6569   3.6569
     4.1238   4.1238   4.3145   4.3279   4.3279   4.5945   4.5947   4.6293
     4.6293   4.7004   4.7536   4.8174   5.1429   5.1432   9.4854   9.4856
    11.4496  11.4496

          k = 0.0000 0.0000-0.5000 (  4484 PWs)   bands (ev):

     2.9342   2.9346   3.5294   3.5298   3.5709   3.5713   3.8758   3.8758
     3.8758   3.8758   4.4036   4.4039   4.4738   4.4738   4.4738   4.4738
     4.5495   4.5497   4.7584   4.7588   5.1429   5.1432   9.4700   9.4703
    12.1664  12.1666

          k = 0.0000 0.0833 0.0833 (  4505 PWs)   bands (ev):

     1.4613   3.0996   3.1000   3.1041   3.1725   3.1725   3.1873   3.9344
     3.9748   3.9843   4.5182   4.5417   4.9491   4.9521   4.9522   5.0337
     5.0581   5.0583   5.1162   5.1162   5.1239   8.3617   8.3618   9.5190
     9.6606  10.8109

          k = 0.0000 0.0833 0.1667 (  4508 PWs)   bands (ev):

     1.6165   3.1388   3.1601   3.1748   3.2096   3.2349   3.2653   3.8967
     4.0172   4.0278   4.4808   4.5622   4.8274   4.8745   4.8910   4.8950
     4.9448   5.0108   5.0406   5.1148   5.1161   7.2909   8.5549   9.6128
     9.8280  10.8759

          k = 0.0000 0.0833 0.2500 (  4507 PWs)   bands (ev):

     1.8693   3.1908   3.2530   3.2690   3.2889   3.3382   3.3843   3.8305
     4.0936   4.0963   4.4233   4.5990   4.6012   4.6423   4.7870   4.8000
     4.8376   4.9252   4.9529   5.1131   5.1158   6.3368   8.7919   9.5414
    10.2936  11.0181

          k = 0.0000 0.0833 0.3333 (  4509 PWs)   bands (ev):

     2.2074   3.2277   3.3475   3.3772   3.4227   3.4814   3.5293   3.7445
     4.1729   4.1982   4.3394   4.3801   4.3816   4.6299   4.6537   4.6899
     4.7192   4.7832   4.8870   5.1131   5.1153   5.5394   9.0034   9.4565
    10.8729  11.2706

          k = 0.0000 0.0833 0.4167 (  4500 PWs)   bands (ev):

     2.5998   3.1854   3.4405   3.5101   3.5403   3.6459   3.6625   3.6850
     4.0863   4.1209   4.2092   4.3265   4.4298   4.4317   4.5915   4.6094
     4.6281   4.7175   4.7939   4.9893   5.1136   5.1148   9.1594   9.3667
    11.5322  11.6395

          k = 0.0000 0.0833-0.5000 (  4484 PWs)   bands (ev):

     2.9686   2.9691   3.5420   3.5424   3.5830   3.5834   3.8635   3.8635
     3.8777   3.8777   4.2614   4.2616   4.4725   4.4725   4.5551   4.5553
     4.5944   4.5944   4.7962   4.7964   5.1140   5.1143   9.2722   9.2724
    12.0942  12.0947

          k = 0.0000 0.1667 0.1667 (  4513 PWs)   bands (ev):

     1.7668   3.1871   3.2159   3.2163   3.2695   3.2695   3.3622   3.8846
     4.0372   4.0592   4.4680   4.5731   4.7130   4.7133   4.7702   4.8402
     4.9480   4.9480   5.0397   5.0397   5.0685   7.5212   7.5213   9.5372
    10.1204  12.1021

          k = 0.0000 0.1667 0.2500 (  4498 PWs)   bands (ev):

     2.0110   3.2533   3.2723   3.3251   3.3340   3.3688   3.4911   3.8370
     4.0999   4.1045   4.4287   4.4716   4.5641   4.5820   4.6222   4.7596
     4.8579   4.9171   4.9235   5.0383   5.0443   6.6052   7.8264   9.4117
    10.5664  12.0492

          k = 0.0000 0.1667 0.3333 (  4514 PWs)   bands (ev):

     2.3361   3.3158   3.3576   3.3983   3.4733   3.5059   3.6321   3.7630
     4.1374   4.1989   4.2204   4.3505   4.3853   4.4112   4.6619   4.7000
     4.7459   4.7807   4.8535   5.0356   5.0367   5.8445   8.1543   9.2383
    11.1279  11.9988

          k = 0.0000 0.1667 0.4167 (  4492 PWs)   bands (ev):

     2.7117   3.2793   3.4847   3.4910   3.5944   3.6741   3.6785   3.7542
     3.9939   4.1104   4.1238   4.2076   4.3247   4.4775   4.5786   4.6252
     4.6329   4.7530   4.8073   5.0332   5.0349   5.2932   8.4727   9.0211
    11.7730  11.9869

          k = 0.0000 0.1667-0.5000 (  4488 PWs)   bands (ev):

     3.0667   3.0671   3.5787   3.5790   3.6101   3.6104   3.8422   3.8423
     3.8824   3.8824   4.1167   4.1168   4.4697   4.4697   4.5624   4.5626
     4.6132   4.6133   4.9744   4.9745   5.0333   5.0336   8.7642   8.7645
    12.0541  12.0544

          k = 0.0000 0.2500 0.2500 (  4514 PWs)   bands (ev):

     2.2397   3.2911   3.3976   3.3980   3.4175   3.4175   3.6212   3.8240
     4.1201   4.1360   4.3134   4.3137   4.4045   4.4617   4.6938   4.6950
     4.8425   4.8427   4.9209   4.9209   4.9793   6.9485   6.9487   9.1880
    10.9884  12.4953

          k = 0.0000 0.2500 0.3333 (  4499 PWs)   bands (ev):

     2.5405   3.3673   3.4523   3.4814   3.5446   3.5485   3.7534   3.7801
     4.0732   4.1221   4.1449   4.2148   4.2872   4.3890   4.6124   4.7419
     4.7774   4.7852   4.8155   4.9182   4.9407   6.2023   7.3253   8.8782
    11.5271  12.1976

          k = 0.0000 0.2500 0.4167 (  4482 PWs)   bands (ev):

     2.8836   3.4204   3.4803   3.5560   3.6791   3.7029   3.7134   3.8481
     3.8771   4.0208   4.0769   4.0870   4.3297   4.4429   4.5469   4.6224
     4.6326   4.6856   4.9163   4.9232   4.9844   5.6258   7.7174   8.5101
    12.0946  12.3554

          k = 0.0000 0.2500-0.5000 (  4486 PWs)   bands (ev):

     3.2104   3.2108   3.6208   3.6210   3.6356   3.6359   3.8549   3.8551
     3.8869   3.8869   4.0155   4.0156   4.4692   4.4693   4.5512   4.5513
     4.5579   4.5581   4.9168   4.9171   5.2338   5.2338   8.1159   8.1161
    12.1577  12.1581

          k = 0.0000 0.3333 0.3333 (  4500 PWs)   bands (ev):

     2.8022   3.4095   3.5941   3.5942   3.6199   3.6202   3.7789   3.8736
     3.9294   3.9297   4.1177   4.1827   4.2637   4.3506   4.5457   4.6925
     4.6927   4.7751   4.7751   4.8610   4.9884   6.5906   6.5908   8.4218
    12.0431  12.0824

          k = 0.0000 0.3333 0.4167 (  4495 PWs)   bands (ev):

     3.0901   3.4860   3.5709   3.6499   3.7316   3.7451   3.7519   3.7935
     3.8931   3.9518   4.0424   4.0731   4.3539   4.3738   4.4904   4.5890
     4.5971   4.6234   4.7764   4.8109   5.2196   5.9896   7.0075   7.9328
    12.1603  12.7681

          k = 0.0000 0.3333-0.5000 (  4488 PWs)   bands (ev):

     3.3623   3.3626   3.5980   3.5981   3.7053   3.7056   3.8855   3.8856
     3.9238   3.9241   3.9794   3.9794   4.4748   4.4750   4.4782   4.4782
     4.5045   4.5045   4.7858   4.7860   5.5391   5.5391   7.4553   7.4555
    12.3964  12.3967

          k = 0.0000 0.4167 0.4167 (  4502 PWs)   bands (ev):

     3.2954   3.5136   3.6174   3.6177   3.7588   3.7588   3.7753   3.9096
     3.9099   3.9695   4.0327   4.0831   4.3276   4.4111   4.4253   4.4987
     4.4990   4.6340   4.6340   4.7206   5.5160   6.3937   6.3940   7.3668
    12.3886  13.2515

          k = 0.0000 0.4167-0.5000 (  4484 PWs)   bands (ev):

     3.4714   3.4715   3.5637   3.5637   3.7762   3.7765   3.8705   3.8706
     4.0166   4.0170   4.0223   4.0225   4.3864   4.3865   4.4213   4.4213
     4.5070   4.5070   4.6629   4.6631   5.8985   5.8986   6.8505   6.8507
    12.7561  12.7564

          k = 0.0000-0.5000-0.5000 (  4500 PWs)   bands (ev):

     3.5273   3.5273   3.5276   3.5276   3.8343   3.8345   3.8345   3.8347
     4.0713   4.0714   4.0714   4.0720   4.3505   4.3506   4.3509   4.3509
     4.5670   4.5671   4.5671   4.5673   6.3306   6.3308   6.3310   6.3310
    13.2316  13.2317

          k = 0.0833 0.0833 0.0833 (  4508 PWs)   bands (ev):

     1.5130   3.1177   3.1177   3.1182   3.2001   3.2001   3.2002   3.9322
     3.9883   3.9883   4.5275   4.5275   4.9312   4.9314   4.9314   5.0027
     5.0029   5.0029   5.1092   5.1092   5.1094   8.4319   8.4321   8.4321
    10.8258  10.8258

          k = 0.0833 0.0833 0.1667 (  4501 PWs)   bands (ev):

     1.6663   3.1557   3.1728   3.1731   3.2381   3.2787   3.2788   3.9007
     4.0253   4.0285   4.4880   4.5549   4.8140   4.8140   4.8776   4.9011
     4.9011   4.9127   5.0693   5.1008   5.1010   7.3744   8.6114   8.6115
    10.8801  10.8801

          k = 0.0833 0.0833 0.2500 (  4499 PWs)   bands (ev):

     1.9158   3.2065   3.2649   3.2652   3.2986   3.3979   3.3980   3.8383
     4.0938   4.0943   4.4365   4.5873   4.5873   4.5987   4.7689   4.7900
     4.8109   4.8110   5.0125   5.0951   5.0953   6.4350   8.8276   8.8278
    10.9984  10.9985

          k = 0.0833 0.0833 0.3333 (  4499 PWs)   bands (ev):

     2.2488   3.2446   3.3761   3.3890   3.3892   3.5414   3.5415   3.7558
     4.1608   4.1835   4.3346   4.3347   4.4153   4.5771   4.6561   4.6760
     4.7023   4.7024   4.9454   5.0918   5.0920   5.6510   9.0082   9.0084
    11.2003  11.2004

          k = 0.0833 0.0833 0.4167 (  4487 PWs)   bands (ev):

     2.6342   3.2067   3.4650   3.5247   3.5250   3.6611   3.6881   3.6882
     4.0918   4.0918   4.1760   4.2926   4.3586   4.5064   4.5476   4.6003
     4.6005   4.7236   4.8724   5.0764   5.0901   5.0904   9.1155   9.1157
    11.4500  11.4503

          k = 0.0833 0.0833-0.5000 (  4486 PWs)   bands (ev):

     2.9955   2.9960   3.5616   3.5619   3.5959   3.5963   3.8039   3.8039
     3.9284   3.9284   4.2080   4.2082   4.4164   4.4165   4.5551   4.5552
     4.7184   4.7186   4.7970   4.7973   5.0897   5.0900   9.1493   9.1495
    11.5871  11.5875

          k = 0.0833 0.1667 0.1667 (  4502 PWs)   bands (ev):

     1.8139   3.1977   3.2081   3.2084   3.3185   3.3186   3.3769   3.8944
     4.0419   4.0559   4.4845   4.5613   4.7030   4.7032   4.7347   4.8086
     4.8595   4.8596   5.0665   5.0665   5.0728   7.5934   7.5935   8.7521
    10.8971  12.0312

          k = 0.0833 0.1667 0.2500 (  4506 PWs)   bands (ev):

     2.0531   3.2557   3.2616   3.2973   3.3817   3.4390   3.5058   3.8535
     4.0951   4.0997   4.4525   4.4654   4.5417   4.5522   4.6133   4.7383
     4.7656   4.7980   5.0184   5.0486   5.0501   6.6845   7.8872   8.9031
    10.9393  11.8884

          k = 0.0833 0.1667 0.3333 (  4500 PWs)   bands (ev):

     2.3699   3.2935   3.3637   3.4197   3.4596   3.5796   3.6435   3.7860
     4.1311   4.1739   4.2244   4.3166   4.3675   4.4578   4.6415   4.6523
     4.6919   4.7074   4.9536   5.0328   5.0357   5.9189   8.2038   8.9791
    11.0210  11.6966

          k = 0.0833 0.1667 0.4167 (  4484 PWs)   bands (ev):

     2.7326   3.2640   3.4968   3.5401   3.5626   3.6973   3.7053   3.7470
     4.0257   4.1059   4.1129   4.1869   4.2699   4.5092   4.5663   4.5707
     4.6081   4.7960   4.8662   5.0251   5.0271   5.3372   8.5050   8.9287
    11.1446  11.4905

          k = 0.0833 0.1667-0.5000 (  4496 PWs)   bands (ev):

     3.0695   3.0699   3.6211   3.6214   3.6234   3.6238   3.7421   3.7421
     3.9778   3.9778   4.1002   4.1003   4.3827   4.3828   4.5472   4.5473
     4.7369   4.7371   4.9716   4.9716   5.0234   5.0237   8.7584   8.7587
    11.3022  11.3026

          k = 0.0833 0.2500 0.2500 (  4500 PWs)   bands (ev):

     2.2734   3.2954   3.3391   3.3392   3.5058   3.5060   3.6342   3.8530
     4.1146   4.1195   4.3110   4.3113   4.4346   4.4395   4.6535   4.6837
     4.7289   4.7290   4.9928   4.9928   4.9997   7.0150   7.0152   8.9295
    10.8717  12.6591

          k = 0.0833 0.2500 0.3333 (  4497 PWs)   bands (ev):

     2.5598   3.3669   3.3705   3.4542   3.5892   3.6470   3.7577   3.8221
     4.0899   4.1185   4.1457   4.1754   4.2751   4.4477   4.5775   4.6155
     4.6665   4.8033   4.9209   4.9611   4.9615   6.2601   7.3852   8.8080
    10.8900  12.1756

          k = 0.0833 0.2500 0.4167 (  4489 PWs)   bands (ev):

     2.8797   3.3416   3.4738   3.5926   3.6657   3.7209   3.7718   3.8173
     3.9655   4.0199   4.0733   4.1243   4.2562   4.4854   4.5166   4.5411
     4.5836   4.8213   4.9383   4.9397   4.9735   5.6592   7.7737   8.5293
    11.0543  11.7243

          k = 0.0833 0.2500-0.5000 (  4490 PWs)   bands (ev):

     3.1708   3.1711   3.6064   3.6065   3.7193   3.7196   3.7426   3.7428
     4.0109   4.0109   4.0256   4.0257   4.3611   4.3612   4.5156   4.5157
     4.6870   4.6872   4.9315   4.9318   5.2372   5.2373   8.1645   8.1647
    11.3425  11.3429

          k = 0.0833 0.3333 0.3333 (  4503 PWs)   bands (ev):

     2.7976   3.4006   3.4685   3.4686   3.7406   3.7408   3.8421   3.8551
     3.9598   3.9601   4.1218   4.1942   4.2076   4.4348   4.4996   4.5745
     4.5747   4.8754   4.8755   4.8952   4.9765   6.6430   6.6432   8.4495
    10.9598  12.6862

          k = 0.0833 0.3333 0.4167 (  4498 PWs)   bands (ev):

     3.0498   3.4204   3.4639   3.5608   3.7760   3.8268   3.8375   3.8718
     3.8961   3.9534   4.0830   4.1492   4.2455   4.4436   4.4557   4.4995
     4.5138   4.7665   4.8396   4.8479   5.2127   6.0221   7.0609   7.9884
    11.2166  12.1000

          k = 0.0833 0.3333-0.5000 (  4492 PWs)   bands (ev):

     3.2728   3.2731   3.5449   3.5449   3.7965   3.7968   3.8263   3.8266
     3.9878   3.9879   4.0790   4.0792   4.3384   4.3385   4.4518   4.4518
     4.6310   4.6311   4.8285   4.8287   5.5477   5.5477   7.5125   7.5127
    11.6055  11.6058

          k = 0.0833 0.4167 0.4167 (  4496 PWs)   bands (ev):

     3.2146   3.4696   3.4742   3.4744   3.8303   3.8303   3.8675   3.8770
     4.0037   4.0039   4.1265   4.1800   4.2395   4.3732   4.4127   4.4130
     4.5088   4.7249   4.7250   4.7688   5.5177   6.4315   6.4317   7.4233
    11.5534  12.5885

          k = 0.0833 0.4167-0.5000 (  4502 PWs)   bands (ev):

     3.3570   3.3572   3.4826   3.4826   3.8425   3.8427   3.8613   3.8614
     4.0858   4.0860   4.1415   4.1417   4.3070   4.3072   4.3647   4.3647
     4.6005   4.6006   4.7224   4.7226   5.9164   5.9164   6.8977   6.8979
    12.0167  12.0170

          k = 0.0833-0.5000-0.5000 (  4496 PWs)   bands (ev):

     3.4230   3.4231   3.4233   3.4233   3.8618   3.8620   3.8620   3.8622
     4.1797   4.1798   4.1798   4.1803   4.2877   4.2879   4.2881   4.2881
     4.6330   4.6332   4.6332   4.6333   6.3624   6.3626   6.3627   6.3627
    12.5443  12.5446

          k = 0.1667 0.1667 0.1667 (  4518 PWs)   bands (ev):

     1.9530   3.2258   3.2258   3.2262   3.4206   3.4206   3.4209   3.9102
     4.0580   4.0580   4.5311   4.5311   4.6325   4.6327   4.6327   4.7296
     4.7297   4.7297   5.0728   5.0728   5.0729   7.7869   7.7870   7.7870
    11.8098  11.8100

          k = 0.1667 0.1667 0.2500 (  4501 PWs)   bands (ev):

     2.1763   3.2617   3.2825   3.2827   3.4911   3.5501   3.5503   3.8971
     4.0893   4.0898   4.4385   4.4385   4.4762   4.5047   4.6011   4.6258
     4.6726   4.6727   5.0533   5.0534   5.0535   6.8987   8.0517   8.0518
    11.4576  11.4579

          k = 0.1667 0.1667 0.3333 (  4498 PWs)   bands (ev):

     2.4671   3.2844   3.3764   3.3765   3.5801   3.6788   3.6790   3.8527
     4.1146   4.1391   4.2351   4.2351   4.2880   4.5123   4.5432   4.6108
     4.6108   4.6858   5.0107   5.0258   5.0259   6.1268   8.3324   8.3325
    11.0633  11.0637

          k = 0.1667 0.1667 0.4167 (  4478 PWs)   bands (ev):

     2.7910   3.2480   3.5013   3.5015   3.6702   3.7346   3.7349   3.7971
     4.0846   4.1028   4.1028   4.1190   4.2087   4.3999   4.5390   4.5390
     4.7157   4.7769   4.9466   5.0048   5.0050   5.4996   8.5640   8.5642
    10.7437  10.7441

          k = 0.1667 0.1667-0.5000 (  4470 PWs)   bands (ev):

     3.0808   3.0812   3.6221   3.6221   3.6643   3.6646   3.7402   3.7405
     4.0535   4.0536   4.0828   4.0829   4.2967   4.2968   4.5011   4.5011
     4.8663   4.8665   4.9974   4.9976   5.0317   5.0318   8.6594   8.6596
    10.6160  10.6164

          k = 0.1667 0.2500 0.2500 (  4496 PWs)   bands (ev):

     2.3703   3.3035   3.3043   3.3044   3.6234   3.6236   3.6736   3.9398
     4.0908   4.0987   4.2994   4.2997   4.3615   4.5227   4.5615   4.5727
     4.5728   4.6540   5.0333   5.0434   5.0434   7.2018   7.2019   8.2728
    10.9144  11.9578

          k = 0.1667 0.2500 0.3333 (  4479 PWs)   bands (ev):

     2.6149   3.3057   3.3585   3.3793   3.7210   3.7390   3.7726   3.9431
     4.1108   4.1206   4.1422   4.1506   4.2490   4.4580   4.4952   4.5308
     4.5622   4.7690   4.9994   5.0084   5.0100   6.4306   7.5562   8.4694
    10.4410  11.3330

          k = 0.1667 0.2500 0.4167 (  4486 PWs)   bands (ev):

     2.8758   3.2510   3.4399   3.4712   3.7475   3.7786   3.8311   3.9269
     4.0287   4.0703   4.1165   4.1719   4.1983   4.3460   4.4426   4.4767
     4.7000   4.9438   4.9440   4.9688   4.9754   5.7761   7.9322   8.5013
    10.2280  10.7861

          k = 0.1667 0.2500-0.5000 (  4494 PWs)   bands (ev):

     3.1042   3.1045   3.5114   3.5114   3.7196   3.7199   3.9123   3.9127
     3.9970   3.9970   4.1789   4.1790   4.2483   4.2484   4.4290   4.4290
     4.8451   4.8452   4.9587   4.9589   5.2694   5.2695   8.2836   8.2839
    10.3794  10.3799

          k = 0.1667 0.3333 0.3333 (  4492 PWs)   bands (ev):

     2.7924   3.3495   3.3496   3.3650   3.8186   3.8188   3.8272   3.9875
     4.0718   4.0719   4.1137   4.1693   4.2664   4.4014   4.4278   4.4280
     4.5581   4.9411   4.9583   4.9721   4.9722   6.7999   6.8001   8.4488
    10.0900  11.7576

          k = 0.1667 0.3333 0.4167 (  4501 PWs)   bands (ev):

     2.9753   3.2701   3.3892   3.3955   3.7965   3.8172   3.8973   3.9758
     4.0546   4.1288   4.1485   4.2012   4.2933   4.3236   4.3452   4.3971
     4.6461   4.9005   4.9175   4.9276   5.1961   6.1299   7.2209   8.1361
    10.1754  11.1028

          k = 0.1667 0.3333-0.5000 (  4502 PWs)   bands (ev):

     3.1406   3.1409   3.4102   3.4103   3.7842   3.7845   3.9464   3.9464
     4.0986   4.0988   4.2378   4.2381   4.2525   4.2526   4.3591   4.3592
     4.7876   4.7877   4.9030   4.9032   5.5863   5.5863   7.6804   7.6807
    10.5587  10.5591

          k = 0.1667 0.4167 0.4167 (  4498 PWs)   bands (ev):

     3.0811   3.2962   3.2963   3.3516   3.8383   3.8596   3.8596   3.9580
     4.1363   4.1779   4.1781   4.2714   4.3256   4.3364   4.3366   4.3672
     4.6396   4.8486   4.8486   4.8585   5.5306   6.5518   6.5519   7.5917
    10.4782  11.5816

          k = 0.1667 0.4167-0.5000 (  4504 PWs)   bands (ev):

     3.1891   3.1892   3.3228   3.3228   3.8444   3.8446   3.9173   3.9174
     4.1627   4.1628   4.2302   4.2303   4.3386   4.3390   4.3807   4.3808
     4.7363   4.7364   4.8254   4.8255   5.9802   5.9802   7.0430   7.0432
    10.9676  10.9680

          k = 0.1667-0.5000-0.5000 (  4504 PWs)   bands (ev):

     3.2493   3.2495   3.2496   3.2496   3.8887   3.8889   3.8889   3.8890
     4.1833   4.1835   4.1837   4.1837   4.4117   4.4119   4.4119   4.4122
     4.7466   4.7468   4.7468   4.7468   6.4657   6.4660   6.4660   6.4660
    11.5175  11.5179

          k = 0.2500 0.2500 0.2500 (  4485 PWs)   bands (ev):

     2.5185   3.3013   3.3013   3.3015   3.7387   3.7387   3.7390   4.0741
     4.0741   4.0762   4.2645   4.2647   4.2647   4.4522   4.4523   4.4523
     4.6266   4.6266   5.0500   5.0500   5.0501   7.4795   7.4796   7.4796
    11.1959  11.1962

          k = 0.2500 0.2500 0.3333 (  4485 PWs)   bands (ev):

     2.6982   3.2691   3.3252   3.3252   3.8022   3.8024   3.8240   4.0446
     4.0796   4.1757   4.2001   4.2305   4.2305   4.3436   4.3972   4.3973
     4.6824   4.7358   5.0255   5.0256   5.0388   6.7022   7.8141   7.8142
    10.4919  10.4922

          k = 0.2500 0.2500 0.4167 (  4495 PWs)   bands (ev):

     2.8856   3.1887   3.3620   3.3620   3.7833   3.7835   3.9127   4.0130
     4.1104   4.1295   4.2061   4.2460   4.2644   4.2644   4.3663   4.3664
     4.8396   4.9518   4.9908   4.9910   4.9977   6.0017   8.1502   8.1503
     9.9270   9.9274

          k = 0.2500 0.2500-0.5000 (  4474 PWs)   bands (ev):

     3.0562   3.0565   3.3820   3.3821   3.7583   3.7586   3.9761   3.9762
     4.1504   4.1508   4.1666   4.1668   4.3230   4.3230   4.3254   4.3255
     4.9293   4.9295   4.9740   4.9742   5.4091   5.4091   8.3245   8.3247
     9.6752   9.6756

          k = 0.2500 0.3333 0.3333 (  4497 PWs)   bands (ev):

     2.8015   3.2557   3.2557   3.2914   3.8266   3.8477   3.8478   4.0386
     4.0558   4.2243   4.2243   4.2930   4.3164   4.3165   4.3415   4.4199
     4.6836   4.8839   5.0094   5.0245   5.0245   7.0588   7.0589   8.1077
     9.7672  10.8401

          k = 0.2500 0.3333 0.4167 (  4505 PWs)   bands (ev):

     2.9171   3.1553   3.2568   3.2734   3.8207   3.8252   3.9017   4.0026
     4.0694   4.1753   4.2224   4.2385   4.3242   4.4021   4.4330   4.4588
     4.7995   4.9774   4.9877   4.9895   5.1961   6.3368   7.4843   8.2442
     9.3691  10.1419

          k = 0.2500 0.3333-0.5000 (  4502 PWs)   bands (ev):

     3.0380   3.0382   3.2636   3.2636   3.8124   3.8127   3.9552   3.9552
     4.1120   4.1122   4.2202   4.2202   4.3898   4.3901   4.4612   4.4613
     4.9168   4.9170   4.9629   4.9630   5.7016   5.7017   7.9411   7.9413
     9.5882   9.5886

          k = 0.2500 0.4167 0.4167 (  4499 PWs)   bands (ev):

     2.9727   3.1483   3.1484   3.2079   3.8500   3.8817   3.8817   3.9817
     4.0539   4.1429   4.1430   4.1678   4.4917   4.4918   4.5455   4.6302
     4.7646   4.9408   4.9480   4.9481   5.5895   6.7718   6.7719   7.8627
     9.4745  10.6022

          k = 0.2500 0.4167-0.5000 (  4516 PWs)   bands (ev):

     3.0510   3.0512   3.1661   3.1662   3.8673   3.8676   3.9377   3.9378
     4.0820   4.0822   4.1370   4.1371   4.5804   4.5806   4.5839   4.5842
     4.8648   4.8650   4.9181   4.9182   6.1246   6.1247   7.2951   7.2953
     9.9608   9.9612

          k = 0.2500-0.5000-0.5000 (  4524 PWs)   bands (ev):

     3.0942   3.0945   3.0945   3.0945   3.9115   3.9117   3.9117   3.9119
     4.0876   4.0877   4.0879   4.0879   4.6554   4.6555   4.6555   4.6558
     4.8549   4.8551   4.8551   4.8551   6.6639   6.6642   6.6642   6.6643
    10.5212  10.5213

          k = 0.3333 0.3333 0.3333 (  4494 PWs)   bands (ev):

     2.8339   3.1889   3.1890   3.1890   3.8569   3.8569   3.8572   4.0255
     4.0255   4.1930   4.1931   4.1931   4.4269   4.4269   4.4270   4.8010
     4.8010   4.8385   5.0325   5.0325   5.0326   7.4121   7.4122   7.4122
     9.9992   9.9996

          k = 0.3333 0.3333 0.4167 (  4497 PWs)   bands (ev):

     2.8927   3.0782   3.1492   3.1493   3.8560   3.8562   3.9034   3.9943
     4.0249   4.1113   4.1423   4.1424   4.5207   4.5637   4.5638   4.7170
     4.9015   5.0100   5.0101   5.0219   5.3516   6.6624   7.8375   7.8375
     9.2753   9.2757

          k = 0.3333 0.3333-0.5000 (  4508 PWs)   bands (ev):

     2.9760   2.9761   3.1361   3.1361   3.8539   3.8541   3.9520   3.9520
     4.0539   4.0541   4.1262   4.1263   4.6193   4.6195   4.6218   4.6219
     4.9770   4.9772   4.9920   4.9921   5.9656   5.9657   8.1459   8.1461
     8.8662   8.8667

          k = 0.3333 0.4167 0.4167 (  4505 PWs)   bands (ev):

     2.9061   3.0395   3.0396   3.0759   3.8820   3.9022   3.9022   3.9835
     3.9982   4.0665   4.0666   4.0794   4.6840   4.6840   4.7024   4.8730
     4.8753   4.9978   5.0071   5.0071   5.7944   7.1098   7.1098   8.1165
     8.6830   9.6988

          k = 0.3333 0.4167-0.5000 (  4506 PWs)   bands (ev):

     2.9561   2.9563   3.0389   3.0390   3.8968   3.8971   3.9473   3.9474
     4.0168   4.0170   4.0539   4.0539   4.7598   4.7599   4.7905   4.7906
     4.9637   4.9638   4.9827   4.9828   6.4040   6.4042   7.6607   7.6610
     9.0347   9.0351

          k = 0.3333-0.5000-0.5000 (  4508 PWs)   bands (ev):

     2.9777   2.9779   2.9779   2.9779   3.9318   3.9320   3.9320   3.9321
     4.0135   4.0137   4.0138   4.0138   4.8531   4.8533   4.8533   4.8534
     4.9416   4.9418   4.9418   4.9418   6.9864   6.9866   6.9866   6.9868
     9.6004   9.6005

          k = 0.4167 0.4167 0.4167 (  4500 PWs)   bands (ev):

     2.8846   2.9730   2.9731   2.9731   3.9182   3.9182   3.9184   3.9725
     3.9725   4.0145   4.0146   4.0146   4.8308   4.8308   4.8309   4.9560
     4.9560   5.0208   5.0208   5.0209   6.2339   7.5726   7.5726   7.5727
     8.8904   8.8908

          k = 0.4167 0.4167-0.5000 (  4526 PWs)   bands (ev):

     2.9077   2.9078   2.9507   2.9508   3.9250   3.9252   3.9500   3.9501
     3.9780   3.9782   3.9956   3.9956   4.8961   4.8962   4.9223   4.9224
     5.0066   5.0067   5.0100   5.0101   6.8511   6.8513   8.0660   8.0662
     8.2812   8.2816

          k = 0.4167-0.5000-0.5000 (  4524 PWs)   bands (ev):

     2.9060   2.9063   2.9063   2.9063   3.9460   3.9463   3.9463   3.9464
     3.9670   3.9672   3.9673   3.9673   4.9758   4.9760   4.9760   4.9761
     4.9973   4.9975   4.9976   4.9976   7.4499   7.4501   7.4501   7.4505
     8.7722   8.7726

          k =-0.5000-0.5000-0.5000 (  4632 PWs)   bands (ev):

     2.8818   2.8821   2.8821   2.8821   3.9512   3.9512   3.9513   3.9513
     3.9513   3.9515   3.9515   3.9515   5.0165   5.0165   5.0167   5.0167
     5.0167   5.0168   5.0168   5.0168   8.0437   8.0441   8.0441   8.0567
     8.0567   8.0576

     the Fermi energy is     7.7649 ev

!    total energy              =   -3100.65446979 Ry

     total all-electron energy =   -152096.038834 Ry
     estimated scf accuracy    <       0.00000018 Ry
     smearing contrib. (-TS)   =      -0.80737651 Ry
     internal energy E=F+TS    =   -3099.84709328 Ry

     The total energy is F=E-TS. E is the sum of the following terms:
     one-electron contribution =      -8.21666057 Ry
     hartree contribution      =      49.41250239 Ry
     xc contribution           =    -127.21823988 Ry
     ewald contribution        =    -243.88954408 Ry
     one-center paw contrib.   =   -2769.93515113 Ry

     convergence has been achieved in  15 iterations

     Forces acting on atoms (cartesian axes, Ry/au):

     atom    1 type  1   force =     0.00000000   -0.00000000    0.00000000
     atom    2 type  1   force =     0.00000000    0.00000000    0.00000000
     atom    3 type  1   force =     0.00000000    0.00000000    0.00000000
     atom    4 type  1   force =     0.00000000    0.00000000    0.00000000

     Total force =     0.000000     Total SCF correction =     0.000000

     Writing all to output data dir ./pwscf.save/
 
     init_run     :      0.89s CPU      1.26s WALL (       1 calls)
     electrons    :     50.89s CPU     52.98s WALL (       1 calls)
     forces       :      0.17s CPU      0.33s WALL (       1 calls)

     Called by init_run:
     wfcinit      :      0.76s CPU      0.79s WALL (       1 calls)
     potinit      :      0.07s CPU      0.17s WALL (       1 calls)
     hinit0       :      0.03s CPU      0.11s WALL (       1 calls)

     Called by electrons:
     c_bands      :     45.85s CPU     46.60s WALL (      16 calls)
     sum_band     :      4.00s CPU      4.14s WALL (      16 calls)
     v_of_rho     :      0.20s CPU      1.41s WALL (      16 calls)
     newd         :      0.11s CPU      0.26s WALL (      16 calls)
     PAW_pot      :      0.77s CPU      0.78s WALL (      16 calls)
     mix_rho      :      0.01s CPU      0.01s WALL (      16 calls)

     Called by c_bands:
     init_us_2    :      0.25s CPU      0.26s WALL (    2856 calls)
     init_us_2:cp :      0.25s CPU      0.25s WALL (    2856 calls)
     cegterg      :     44.11s CPU     44.83s WALL (    1344 calls)

     Called by *egterg:
     cdiaghg      :      8.31s CPU      8.41s WALL (    7699 calls)
     h_psi        :     28.01s CPU     28.56s WALL (    7867 calls)
     s_psi        :      1.00s CPU      1.02s WALL (    7867 calls)
     g_psi        :      0.13s CPU      0.13s WALL (    6439 calls)

     Called by h_psi:
     h_psi:calbec :      1.58s CPU      1.61s WALL (    7867 calls)
     vloc_psi     :     25.33s CPU     25.83s WALL (    7867 calls)
     add_vuspsi   :      1.03s CPU      1.05s WALL (    7867 calls)

     General routines
     calbec       :      1.96s CPU      2.00s WALL (    9547 calls)
     fft          :      0.25s CPU      1.82s WALL (     188 calls)
     ffts         :      0.05s CPU      0.08s WALL (      16 calls)
     fftw         :     26.73s CPU     27.26s WALL (  333416 calls)
 
     Parallel routines
 
     PWSCF        :     52.57s CPU     56.74s WALL

 
   This run was terminated on:  12:36:47   5Apr2024            

=------------------------------------------------------------------------------=
   JOB DONE.
=------------------------------------------------------------------------------=
