MPI startup(): Warning: I_MPI_PMI_LIBRARY will be ignored since the hydra process manager was found
MPI startup(): Warning: I_MPI_PMI_LIBRARY will be ignored since the hydra process manager was found
MPI startup(): Warning: I_MPI_PMI_LIBRARY will be ignored since the hydra process manager was found
MPI startup(): Warning: I_MPI_PMI_LIBRARY will be ignored since the hydra process manager was found
MPI startup(): Warning: I_MPI_PMI_LIBRARY will be ignored since the hydra process manager was found
MPI startup(): Warning: I_MPI_PMI_LIBRARY will be ignored since the hydra process manager was found
MPI startup(): Warning: I_MPI_PMI_LIBRARY will be ignored since the hydra process manager was found
MPI startup(): Warning: I_MPI_PMI_LIBRARY will be ignored since the hydra process manager was found
MPI startup(): Warning: I_MPI_PMI_LIBRARY will be ignored since the hydra process manager was found
MPI startup(): Warning: I_MPI_PMI_LIBRARY will be ignored since the hydra process manager was found

     Program PWSCF v.7.0 starts on  5Apr2024 at 12:35:52 

     This program is part of the open-source Quantum ESPRESSO suite
     for quantum simulation of materials; please cite
         "P. Giannozzi et al., J. Phys.:Condens. Matter 21 395502 (2009);
         "P. Giannozzi et al., J. Phys.:Condens. Matter 29 465901 (2017);
         "P. Giannozzi et al., J. Chem. Phys. 152 154105 (2020);
          URL http://www.quantum-espresso.org", 
     in publications or presentations arising from this work. More details at
     http://www.quantum-espresso.org/quote

     Parallel version (MPI), running on    10 processors

     MPI processes distributed on     1 nodes
     R & G space division:  proc/nbgrp/npool/nimage =      10
     146834 MiB available memory on the printing compute node when the environment starts
 
     Reading input from VolumeFCC_5.3.in
Warning: card &CELL ignored
Warning: card / ignored

     Current dimensions of program PWSCF are:
     Max number of different atomic species (ntypx) = 10
     Max number of k-points (npk) =  40000
     Max angular momentum in pseudopotentials (lmaxx) =  4
     file Au.pbe-n-kjpaw_psl.1.0.0.UPF: wavefunction(s)  6S 5D renormalized
     Found identity + (  0.5000  0.5000  0.0000) symmetry
     This is a supercell, fractional translations are disabled
     Message from routine setup:
     using ibrav=0 with symmetry is DISCOURAGED, use correct ibrav instead

     Subspace diagonalization in iterative solution of the eigenvalue problem:
     one sub-group per band group will be used
     scalapack distributed-memory algorithm (size of sub-group:  3*  3 procs)

 
     Parallelization info
     --------------------
     sticks:   dense  smooth     PW     G-vecs:    dense   smooth      PW
     Min          43      43     14                  709      709     134
     Max          44      44     15                  714      714     137
     Sum         437     437    145                 7123     7123    1357
 
     Using Slab Decomposition
 


     bravais-lattice index     =            0
     lattice parameter (alat)  =       5.2992  a.u.
     unit-cell volume          =     148.8123 (a.u.)^3
     number of atoms/cell      =            4
     number of atomic types    =            1
     number of electrons       =        44.00
     number of Kohn-Sham states=           26
     kinetic-energy cutoff     =      50.0000  Ry
     charge density cutoff     =     200.0000  Ry
     scf convergence threshold =      1.0E-06
     mixing beta               =       0.7000
     number of iterations used =            8  plain     mixing
     Exchange-correlation= SLA  PW   PBX  PBC
                           (   1   4   3   4   0   0   0)

     celldm(1)=   5.299232  celldm(2)=   0.000000  celldm(3)=   0.000000
     celldm(4)=   0.000000  celldm(5)=   0.000000  celldm(6)=   0.000000

     crystal axes: (cart. coord. in units of alat)
               a(1) = (   1.000000   0.000000   0.000000 )  
               a(2) = (   0.000000   1.000000   0.000000 )  
               a(3) = (   0.000000   0.000000   1.000000 )  

     reciprocal axes: (cart. coord. in units 2 pi/alat)
               b(1) = (  1.000000  0.000000  0.000000 )  
               b(2) = (  0.000000  1.000000  0.000000 )  
               b(3) = (  0.000000  0.000000  1.000000 )  


     PseudoPot. # 1 for Au read from file:
     ./Au.pbe-n-kjpaw_psl.1.0.0.UPF
     MD5 check sum: 4db85c736373c707a97ce4c36c2a9d23
     Pseudo is Projector augmented-wave + core cor, Zval = 11.0
     Generated using &quot;atomic&quot; code by A. Dal Corso  v.6.3
     Shape of augmentation charge: PSQ
     Using radial grid of 1279 points,  6 beta functions with: 
                l(1) =   0
                l(2) =   0
                l(3) =   1
                l(4) =   1
                l(5) =   2
                l(6) =   2
     Q(r) pseudized with 0 coefficients 


     atomic species   valence    mass     pseudopotential
        Au            11.00   196.96657     Au( 1.00)

     48 Sym. Ops., with inversion, found



   Cartesian axes

     site n.     atom                  positions (alat units)
         1           Au  tau(   1) = (   0.0000000   0.0000000   0.0000000  )
         2           Au  tau(   2) = (   0.5000000   0.5000000   0.0000000  )
         3           Au  tau(   3) = (   0.5000000   0.0000000   0.5000000  )
         4           Au  tau(   4) = (   0.0000000   0.5000000   0.5000000  )

     number of k points=    84  Gaussian smearing, width (Ry)=  0.2000
                       cart. coord. in units 2pi/alat
        k(    1) = (   0.0000000   0.0000000   0.0000000), wk =   0.0011574
        k(    2) = (   0.0000000   0.0000000   0.0833333), wk =   0.0069444
        k(    3) = (   0.0000000   0.0000000   0.1666667), wk =   0.0069444
        k(    4) = (   0.0000000   0.0000000   0.2500000), wk =   0.0069444
        k(    5) = (   0.0000000   0.0000000   0.3333333), wk =   0.0069444
        k(    6) = (   0.0000000   0.0000000   0.4166667), wk =   0.0069444
        k(    7) = (   0.0000000   0.0000000  -0.5000000), wk =   0.0034722
        k(    8) = (   0.0000000   0.0833333   0.0833333), wk =   0.0138889
        k(    9) = (   0.0000000   0.0833333   0.1666667), wk =   0.0277778
        k(   10) = (   0.0000000   0.0833333   0.2500000), wk =   0.0277778
        k(   11) = (   0.0000000   0.0833333   0.3333333), wk =   0.0277778
        k(   12) = (   0.0000000   0.0833333   0.4166667), wk =   0.0277778
        k(   13) = (   0.0000000   0.0833333  -0.5000000), wk =   0.0138889
        k(   14) = (   0.0000000   0.1666667   0.1666667), wk =   0.0138889
        k(   15) = (   0.0000000   0.1666667   0.2500000), wk =   0.0277778
        k(   16) = (   0.0000000   0.1666667   0.3333333), wk =   0.0277778
        k(   17) = (   0.0000000   0.1666667   0.4166667), wk =   0.0277778
        k(   18) = (   0.0000000   0.1666667  -0.5000000), wk =   0.0138889
        k(   19) = (   0.0000000   0.2500000   0.2500000), wk =   0.0138889
        k(   20) = (   0.0000000   0.2500000   0.3333333), wk =   0.0277778
        k(   21) = (   0.0000000   0.2500000   0.4166667), wk =   0.0277778
        k(   22) = (   0.0000000   0.2500000  -0.5000000), wk =   0.0138889
        k(   23) = (   0.0000000   0.3333333   0.3333333), wk =   0.0138889
        k(   24) = (   0.0000000   0.3333333   0.4166667), wk =   0.0277778
        k(   25) = (   0.0000000   0.3333333  -0.5000000), wk =   0.0138889
        k(   26) = (   0.0000000   0.4166667   0.4166667), wk =   0.0138889
        k(   27) = (   0.0000000   0.4166667  -0.5000000), wk =   0.0138889
        k(   28) = (   0.0000000  -0.5000000  -0.5000000), wk =   0.0034722
        k(   29) = (   0.0833333   0.0833333   0.0833333), wk =   0.0092593
        k(   30) = (   0.0833333   0.0833333   0.1666667), wk =   0.0277778
        k(   31) = (   0.0833333   0.0833333   0.2500000), wk =   0.0277778
        k(   32) = (   0.0833333   0.0833333   0.3333333), wk =   0.0277778
        k(   33) = (   0.0833333   0.0833333   0.4166667), wk =   0.0277778
        k(   34) = (   0.0833333   0.0833333  -0.5000000), wk =   0.0138889
        k(   35) = (   0.0833333   0.1666667   0.1666667), wk =   0.0277778
        k(   36) = (   0.0833333   0.1666667   0.2500000), wk =   0.0555556
        k(   37) = (   0.0833333   0.1666667   0.3333333), wk =   0.0555556
        k(   38) = (   0.0833333   0.1666667   0.4166667), wk =   0.0555556
        k(   39) = (   0.0833333   0.1666667  -0.5000000), wk =   0.0277778
        k(   40) = (   0.0833333   0.2500000   0.2500000), wk =   0.0277778
        k(   41) = (   0.0833333   0.2500000   0.3333333), wk =   0.0555556
        k(   42) = (   0.0833333   0.2500000   0.4166667), wk =   0.0555556
        k(   43) = (   0.0833333   0.2500000  -0.5000000), wk =   0.0277778
        k(   44) = (   0.0833333   0.3333333   0.3333333), wk =   0.0277778
        k(   45) = (   0.0833333   0.3333333   0.4166667), wk =   0.0555556
        k(   46) = (   0.0833333   0.3333333  -0.5000000), wk =   0.0277778
        k(   47) = (   0.0833333   0.4166667   0.4166667), wk =   0.0277778
        k(   48) = (   0.0833333   0.4166667  -0.5000000), wk =   0.0277778
        k(   49) = (   0.0833333  -0.5000000  -0.5000000), wk =   0.0069444
        k(   50) = (   0.1666667   0.1666667   0.1666667), wk =   0.0092593
        k(   51) = (   0.1666667   0.1666667   0.2500000), wk =   0.0277778
        k(   52) = (   0.1666667   0.1666667   0.3333333), wk =   0.0277778
        k(   53) = (   0.1666667   0.1666667   0.4166667), wk =   0.0277778
        k(   54) = (   0.1666667   0.1666667  -0.5000000), wk =   0.0138889
        k(   55) = (   0.1666667   0.2500000   0.2500000), wk =   0.0277778
        k(   56) = (   0.1666667   0.2500000   0.3333333), wk =   0.0555556
        k(   57) = (   0.1666667   0.2500000   0.4166667), wk =   0.0555556
        k(   58) = (   0.1666667   0.2500000  -0.5000000), wk =   0.0277778
        k(   59) = (   0.1666667   0.3333333   0.3333333), wk =   0.0277778
        k(   60) = (   0.1666667   0.3333333   0.4166667), wk =   0.0555556
        k(   61) = (   0.1666667   0.3333333  -0.5000000), wk =   0.0277778
        k(   62) = (   0.1666667   0.4166667   0.4166667), wk =   0.0277778
        k(   63) = (   0.1666667   0.4166667  -0.5000000), wk =   0.0277778
        k(   64) = (   0.1666667  -0.5000000  -0.5000000), wk =   0.0069444
        k(   65) = (   0.2500000   0.2500000   0.2500000), wk =   0.0092593
        k(   66) = (   0.2500000   0.2500000   0.3333333), wk =   0.0277778
        k(   67) = (   0.2500000   0.2500000   0.4166667), wk =   0.0277778
        k(   68) = (   0.2500000   0.2500000  -0.5000000), wk =   0.0138889
        k(   69) = (   0.2500000   0.3333333   0.3333333), wk =   0.0277778
        k(   70) = (   0.2500000   0.3333333   0.4166667), wk =   0.0555556
        k(   71) = (   0.2500000   0.3333333  -0.5000000), wk =   0.0277778
        k(   72) = (   0.2500000   0.4166667   0.4166667), wk =   0.0277778
        k(   73) = (   0.2500000   0.4166667  -0.5000000), wk =   0.0277778
        k(   74) = (   0.2500000  -0.5000000  -0.5000000), wk =   0.0069444
        k(   75) = (   0.3333333   0.3333333   0.3333333), wk =   0.0092593
        k(   76) = (   0.3333333   0.3333333   0.4166667), wk =   0.0277778
        k(   77) = (   0.3333333   0.3333333  -0.5000000), wk =   0.0138889
        k(   78) = (   0.3333333   0.4166667   0.4166667), wk =   0.0277778
        k(   79) = (   0.3333333   0.4166667  -0.5000000), wk =   0.0277778
        k(   80) = (   0.3333333  -0.5000000  -0.5000000), wk =   0.0069444
        k(   81) = (   0.4166667   0.4166667   0.4166667), wk =   0.0092593
        k(   82) = (   0.4166667   0.4166667  -0.5000000), wk =   0.0138889
        k(   83) = (   0.4166667  -0.5000000  -0.5000000), wk =   0.0069444
        k(   84) = (  -0.5000000  -0.5000000  -0.5000000), wk =   0.0011574

     Dense  grid:     7123 G-vectors     FFT dimensions: (  24,  24,  24)

     Estimated max dynamical RAM per process >       6.77 MB

     Estimated total dynamical RAM >      67.72 MB

     Initial potential from superposition of free atoms

     starting charge      43.9996, renormalised to      44.0000
     Starting wfcs are   36 randomized atomic wfcs
     Checking if some PAW data can be deallocated... 

     total cpu time spent up to now is        1.1 secs

     Self-consistent Calculation

     iteration #  1     ecut=    50.00 Ry     beta= 0.70
     Davidson diagonalization with overlap
     ethr =  1.00E-02,  avg # of iterations =  8.7

     total cpu time spent up to now is        3.7 secs

     total energy              =   -3085.66278165 Ry
     estimated scf accuracy    <       0.79970832 Ry

     iteration #  2     ecut=    50.00 Ry     beta= 0.70
     Davidson diagonalization with overlap
     ethr =  1.82E-03,  avg # of iterations =  4.8

     negative rho (up, down):  1.837E-03 0.000E+00

     total cpu time spent up to now is        5.5 secs

     total energy              =   -3086.12359198 Ry
     estimated scf accuracy    <       0.03637412 Ry

     iteration #  3     ecut=    50.00 Ry     beta= 0.70
     Davidson diagonalization with overlap
     c_bands:  1 eigenvalues not converged
     ethr =  8.27E-05,  avg # of iterations = 10.0

     negative rho (up, down):  6.909E-03 0.000E+00

     total cpu time spent up to now is        8.6 secs

     total energy              =   -3086.17134043 Ry
     estimated scf accuracy    <       0.00481781 Ry

     iteration #  4     ecut=    50.00 Ry     beta= 0.70
     Davidson diagonalization with overlap
     c_bands:  1 eigenvalues not converged
     c_bands:  1 eigenvalues not converged
     c_bands:  1 eigenvalues not converged
     c_bands:  1 eigenvalues not converged
     c_bands:  1 eigenvalues not converged
     c_bands:  1 eigenvalues not converged
     ethr =  1.09E-05,  avg # of iterations =  7.6

     negative rho (up, down):  7.376E-03 0.000E+00

     total cpu time spent up to now is       10.9 secs

     total energy              =   -3086.17308414 Ry
     estimated scf accuracy    <       0.00068712 Ry

     iteration #  5     ecut=    50.00 Ry     beta= 0.70
     Davidson diagonalization with overlap
     c_bands:  1 eigenvalues not converged
     c_bands:  1 eigenvalues not converged
     c_bands:  1 eigenvalues not converged
     c_bands:  1 eigenvalues not converged
     c_bands:  2 eigenvalues not converged
     c_bands:  1 eigenvalues not converged
     c_bands:  1 eigenvalues not converged
     ethr =  1.56E-06,  avg # of iterations =  7.9

     negative rho (up, down):  7.201E-03 0.000E+00

     total cpu time spent up to now is       13.2 secs

     total energy              =   -3086.17327178 Ry
     estimated scf accuracy    <       0.00000763 Ry

     iteration #  6     ecut=    50.00 Ry     beta= 0.70
     Davidson diagonalization with overlap
     ethr =  1.73E-08,  avg # of iterations = 10.5

     negative rho (up, down):  7.137E-03 0.000E+00

     total cpu time spent up to now is       17.1 secs

     End of self-consistent calculation

          k = 0.0000 0.0000 0.0000 (   895 PWs)   bands (ev):

    32.4026  32.4030  32.4030  33.3182  33.3182  33.3182  36.2364  43.9637
    43.9637  43.9637  53.2045  53.2045  60.8890  60.8892  60.8892  63.1982
    63.1982  63.1982  63.1987  63.1987  63.1987  66.6295  66.6295  66.6295
    71.8963  79.4443

          k = 0.0000 0.0000 0.0833 (   896 PWs)   bands (ev):

    32.6268  32.6644  32.6647  33.4425  33.6307  33.6307  36.5566  43.6633
    44.1820  44.1820  52.7811  53.3084  60.2403  60.2404  60.7173  60.9219
    60.9219  62.4876  62.4876  63.2013  63.2018  65.8126  68.7522  68.7522
    72.4465  79.4708

          k = 0.0000 0.0000 0.1667 (   892 PWs)   bands (ev):

    33.2892  33.4250  33.4253  33.8132  34.5588  34.5588  37.4687  42.8343
    44.8309  44.8309  51.6299  53.6170  57.4340  57.4340  58.4886  58.4887
    60.2262  60.6972  60.6972  63.2097  63.2102  63.6447  71.7664  71.7664
    74.0232  79.5845

          k = 0.0000 0.0000 0.2500 (   900 PWs)   bands (ev):

    34.3582  34.4234  34.6013  34.6016  36.0692  36.0692  38.7899  41.6454
    45.8909  45.8909  50.1078  53.8165  53.8165  54.1198  56.0892  56.0892
    58.3857  58.3857  59.4801  60.6695  63.2211  63.2216  74.5526  74.5526
    76.4545  79.8577

          k = 0.0000 0.0000 0.3333 (   868 PWs)   bands (ev):

    35.2595  35.7810  36.0157  36.0161  38.1192  38.1192  40.0321  40.2764
    47.3316  47.3316  48.8959  50.2325  50.2325  53.5727  53.5728  54.7987
    55.9130  55.9130  57.3446  58.5644  63.2331  63.2335  76.8911  76.8911
    79.5596  80.2558

          k = 0.0000 0.0000 0.4167 (   872 PWs)   bands (ev):

    36.3016  37.3041  37.3044  37.4434  38.8670  40.2378  40.6385  40.6385
    46.7812  46.7812  49.0938  49.1113  49.1113  51.5391  51.5392  53.4728
    53.4728  54.0202  55.6267  57.5670  63.2414  63.2419  78.6263  78.6263
    80.1290  80.1308

          k = 0.0000 0.0000-0.5000 (   884 PWs)   bands (ev):

    37.5191  37.5195  37.8637  37.8640  39.1120  39.1123  43.5533  43.5533
    43.5535  43.5535  50.7176  50.7177  51.0654  51.0655  51.1791  51.1791
    51.1793  51.1793  56.5660  56.5665  63.2441  63.2446  79.6837  79.6838
    79.6841  79.6843

          k = 0.0000 0.0833 0.0833 (   887 PWs)   bands (ev):

    32.8249  32.8880  32.8883  33.7528  33.7528  34.0341  36.8568  43.5721
    44.2080  44.3932  52.6402  53.1649  59.5018  59.5021  59.6771  59.8174
    60.8713  60.8715  62.4892  62.4892  62.7293  67.9313  67.9314  70.1880
    72.9733  78.0198

          k = 0.0000 0.0833 0.1667 (   885 PWs)   bands (ev):

    33.3929  33.5500  33.6479  34.1170  34.6745  35.1231  37.7138  42.8691
    44.7710  45.0057  51.6444  53.4241  56.3033  56.9864  57.8441  58.1081
    59.0112  60.3806  60.6943  62.4873  62.4935  65.8137  70.9670  72.8244
    74.4855  77.0269

          k = 0.0000 0.0833 0.2500 (   880 PWs)   bands (ev):

    34.4137  34.6190  34.7157  34.8227  36.1747  36.7380  38.9680  41.7435
    45.8207  45.9160  50.2746  52.8121  53.6131  53.9998  55.7014  55.8795
    56.6846  58.3749  59.4137  62.4423  62.4974  63.0588  73.7167  75.4696
    76.6017  76.8205

          k = 0.0000 0.0833 0.3333 (   881 PWs)   bands (ev):

    35.5354  35.7814  36.0422  36.2301  38.2062  38.7491  40.1992  40.4236
    46.6834  47.2654  49.4175  49.6179  50.1484  53.3380  53.4897  54.1593
    54.8007  55.8918  57.8820  60.3649  62.4462  62.4981  75.7848  76.6201
    77.7543  79.7965

          k = 0.0000 0.0833 0.4167 (   879 PWs)   bands (ev):

    36.5556  37.1799  37.4882  37.7085  39.0568  40.4809  40.7022  41.0259
    46.2816  46.7671  47.2220  49.0545  50.7859  50.9445  51.5717  51.9805
    53.4398  55.5643  55.7991  58.3992  62.4632  62.4930  76.8504  76.8651
    79.4768  80.9822

          k = 0.0000 0.0833-0.5000 (   878 PWs)   bands (ev):

    37.7444  37.7448  37.9348  37.9352  39.3816  39.3820  43.5030  43.5032
    43.5852  43.5854  48.7474  48.7475  50.9277  50.9278  51.1338  51.1340
    52.9883  52.9883  56.9810  56.9813  62.4805  62.4810  77.0629  77.0631
    80.5371  80.5373

          k = 0.0000 0.1667 0.1667 (   881 PWs)   bands (ev):

    33.6493  34.3075  34.3078  35.0180  35.0180  36.4281  38.4177  42.6748
    44.9329  45.4892  51.2753  53.3678  54.4239  54.4243  55.4484  56.9727
    59.1236  59.1236  60.6846  60.6846  61.4011  68.9251  68.9253  75.0551
    75.0965  75.8164

          k = 0.0000 0.1667 0.2500 (   883 PWs)   bands (ev):

    34.3858  35.3756  35.4782  35.5810  36.4833  38.1677  39.4764  41.9142
    45.7600  46.0496  50.3423  51.0224  52.3374  52.8900  54.0613  55.2026
    57.2041  58.3428  58.4608  60.6668  60.8285  66.2855  71.6955  73.9325
    77.5879  77.8794

          k = 0.0000 0.1667 0.3333 (   885 PWs)   bands (ev):

    35.5672  36.3505  36.8027  36.8652  38.4623  40.1294  40.6396  40.8121
    45.9773  47.1389  47.8785  49.8452  50.1540  50.2143  53.1742  54.9267
    55.2699  55.8320  57.1150  60.6191  60.6399  63.5427  73.5910  73.6095
    79.4320  79.8411

          k = 0.0000 0.1667 0.4167 (   887 PWs)   bands (ev):

    37.0018  37.3018  38.0236  38.4835  39.5986  40.8867  41.1667  41.9925
    45.2681  45.5651  46.7005  48.1832  48.9210  51.3670  51.5746  52.7317
    53.3501  55.2842  56.8479  60.5659  60.6066  60.9914  73.7817  74.3211
    80.1667  81.9636

          k = 0.0000 0.1667-0.5000 (   876 PWs)   bands (ev):

    38.1257  38.1260  38.4022  38.4025  40.1767  40.1771  43.4870  43.4871
    43.6682  43.6684  46.4410  46.4411  51.0172  51.0174  51.3425  51.3426
    53.2490  53.2492  58.7550  58.7552  60.5753  60.5757  74.1744  74.1746
    81.3873  81.3875

          k = 0.0000 0.2500 0.2500 (   876 PWs)   bands (ev):

    34.8169  36.5430  36.5432  36.9874  36.9875  39.9512  40.2463  41.8169
    46.1202  46.2459  49.1258  49.1262  49.7450  51.4070  54.0078  55.0506
    56.9343  56.9343  58.2927  58.2928  59.4190  69.1783  69.1784  72.1885
    78.5038  79.5364

          k = 0.0000 0.2500 0.3333 (   884 PWs)   bands (ev):

    35.7291  37.6672  37.9023  37.9745  38.8758  41.1790  41.2509  41.8141
    45.8033  46.2966  47.1807  47.3060  49.1636  49.5219  52.4815  55.0197
    55.7461  55.8350  56.8115  58.2325  58.6148  66.5362  71.2702  71.4482
    78.4613  81.4170

          k = 0.0000 0.2500 0.4167 (   882 PWs)   bands (ev):

    37.0327  38.4954  38.8560  39.6892  40.3857  41.1696  42.0340  43.2700
    44.3164  44.4755  45.6644  46.5007  48.8304  50.5689  51.2963  53.0155
    53.2342  54.1605  58.1800  58.2718  58.9820  63.9186  71.5042  72.1139
    79.1077  81.7235

          k = 0.0000 0.2500-0.5000 (   884 PWs)   bands (ev):

    38.4006  38.4008  39.4256  39.4260  41.4509  41.4512  43.7540  43.7540
    43.7608  43.7609  44.3706  44.3707  50.8912  50.8914  51.4787  51.4789
    52.2779  52.2782  58.1703  58.1707  61.3822  61.3822  71.9364  71.9366
    80.2810  80.2812

          k = 0.0000 0.3333 0.3333 (   886 PWs)   bands (ev):

    36.3453  39.3010  39.3012  39.4188  39.4189  41.4397  41.6567  43.5140
    44.8792  44.8795  45.9069  47.7360  47.8952  48.5624  51.4062  54.2009
    54.2010  55.6605  55.6606  57.0402  59.0524  68.9540  68.9543  70.3897
    78.2876  81.8584

          k = 0.0000 0.3333 0.4167 (   885 PWs)   bands (ev):

    37.4007  39.8392  40.0477  40.9942  41.2129  41.5064  42.1240  43.7199
    43.7708  44.6705  44.8352  46.0144  49.0030  49.1250  50.5069  52.4246
    52.6567  53.1518  55.6245  56.1234  61.5600  66.5912  70.2678  70.3215
    78.8279  81.2422

          k = 0.0000 0.3333-0.5000 (   890 PWs)   bands (ev):

    38.7661  38.7663  40.6874  40.6877  42.5724  42.5724  43.1508  43.1511
    43.7803  43.7804  44.4427  44.4428  50.7990  50.7993  50.8749  50.8751
    50.9084  50.9086  55.7266  55.7270  64.1138  64.1139  70.5311  70.5313
    79.9200  79.9203

          k = 0.0000 0.4167 0.4167 (   890 PWs)   bands (ev):

    38.1569  40.6646  40.6648  41.6099  41.7990  41.8184  41.8185  43.9797
    43.9798  45.0559  45.8225  45.8402  48.0368  49.4624  49.7282  51.0124
    51.0126  53.2089  53.2091  54.5083  64.1708  68.5965  68.5968  69.8804
    79.2683  81.2361

          k = 0.0000 0.4167-0.5000 (   880 PWs)   bands (ev):

    39.2934  39.2934  41.1610  41.1610  41.9739  41.9741  43.5856  43.5856
    45.0160  45.0163  45.4980  45.4982  49.2031  49.2034  49.5968  49.5971
    51.1667  51.1668  53.5824  53.5826  66.5676  66.5677  69.6089  69.6090
    80.2442  80.2444

          k = 0.0000-0.5000-0.5000 (   888 PWs)   bands (ev):

    40.0703  40.0703  40.0707  40.0707  43.0018  43.0020  43.0021  43.0021
    46.3198  46.3201  46.3201  46.3203  48.3225  48.3225  48.3227  48.3232
    52.0212  52.0213  52.0215  52.0215  68.4321  68.4321  68.4323  68.4325
    80.9194  80.9196

          k = 0.0833 0.0833 0.0833 (   889 PWs)   bands (ev):

    33.0385  33.0389  33.0389  34.1632  34.1632  34.1632  37.1266  43.5446
    44.3956  44.3956  52.7772  52.7772  59.1579  59.1579  59.1581  59.1893
    59.1894  59.1894  62.5244  62.5248  62.5248  69.2708  69.2708  69.2708
    73.4669  78.8468

          k = 0.0833 0.0833 0.1667 (   889 PWs)   bands (ev):

    33.5955  33.5958  33.6597  34.5593  35.2539  35.2539  37.8932  42.9975
    44.8999  44.9527  51.7363  53.1842  56.0671  56.0671  57.4469  57.9029
    58.0909  58.0910  61.9125  62.2531  62.2534  66.9589  71.8493  71.8493
    74.8696  77.8129

          k = 0.0833 0.0833 0.2500 (   881 PWs)   bands (ev):

    34.5917  34.6105  34.6107  35.2812  36.8576  36.8576  38.9880  42.0206
    45.8089  45.8601  50.4911  52.7032  52.7032  53.8484  55.1637  56.1491
    56.2096  56.2098  60.9479  62.0150  62.0154  63.9271  74.4369  74.4369
    76.9414  77.2957

          k = 0.0833 0.0833 0.3333 (   881 PWs)   bands (ev):

    35.6147  35.9771  35.9773  36.4810  38.8380  38.8381  39.7717  41.1692
    46.3414  47.0860  49.4005  49.4005  50.2145  52.6656  53.9327  53.9328
    54.1951  54.7468  59.7426  60.6301  61.8965  61.8969  76.5348  76.5348
    77.2211  77.2212

          k = 0.0833 0.0833 0.4167 (   879 PWs)   bands (ev):

    36.6763  37.3640  37.3643  38.0832  39.0290  40.9254  41.0308  41.0308
    46.3699  46.3700  46.5974  48.5893  50.1938  51.7766  51.9115  51.9116
    52.2144  55.8447  57.3569  58.4208  61.8484  61.8488  77.2586  77.2588
    77.9487  77.9490

          k = 0.0833 0.0833-0.5000 (   874 PWs)   bands (ev):

    37.8348  37.8352  38.0234  38.0237  39.7619  39.7623  42.8278  42.8280
    44.2721  44.2723  48.0041  48.0042  50.3193  50.3195  51.0414  51.0415
    54.3268  54.3269  57.0919  57.0922  61.8361  61.8365  77.3439  77.3442
    78.3812  78.3815

          k = 0.0833 0.1667 0.1667 (   890 PWs)   bands (ev):

    33.8358  34.1808  34.1810  35.6581  35.6582  36.5612  38.4012  43.0667
    45.0073  45.3799  51.5277  53.0588  54.2919  54.2922  54.8864  56.3263
    57.2141  57.2141  61.6677  61.6976  61.6977  69.5006  69.5007  73.6582
    75.8606  76.1472

          k = 0.0833 0.1667 0.2500 (   885 PWs)   bands (ev):

    34.5628  35.0650  35.1803  36.3844  37.2263  38.2818  39.1023  42.6438
    45.7021  45.9601  50.7102  50.9921  52.2291  52.2562  53.8219  54.8970
    55.5457  56.0787  60.7824  61.0060  61.0741  66.5445  72.1010  74.2282
    76.7395  76.8838

          k = 0.0833 0.1667 0.3333 (   884 PWs)   bands (ev):

    35.7392  36.0892  36.5464  37.5230  39.1051  39.5461  40.1831  42.2353
    45.8256  46.8384  47.9568  49.2998  50.0894  50.8465  53.2063  53.5758
    54.3300  55.0733  59.3389  60.5382  60.6095  63.5048  74.0529  74.0931
    77.6647  78.3995

          k = 0.0833 0.1667 0.4167 (   886 PWs)   bands (ev):

    37.1362  37.1751  37.9042  39.0678  39.1218  41.0140  41.8211  42.0137
    45.3576  45.6032  46.6042  48.0262  48.1879  51.6061  51.6226  52.4146
    52.5210  56.6500  57.3166  60.3181  60.3661  60.7750  74.3308  74.8607
    78.6941  78.8885

          k = 0.0833 0.1667-0.5000 (   884 PWs)   bands (ev):

    38.1824  38.1828  38.2557  38.2560  40.7770  40.7774  42.2786  42.2787
    44.9397  44.9398  46.2547  46.2548  49.7866  49.7866  51.2074  51.2076
    54.8891  54.8892  58.5239  58.5241  60.2755  60.2758  74.7351  74.7353
    79.3701  79.3708

          k = 0.0833 0.2500 0.2500 (   884 PWs)   bands (ev):

    34.9784  36.0459  36.0460  37.8849  37.8850  39.3362  40.0244  43.0936
    45.8880  46.2054  49.1445  49.1449  50.2963  51.0333  53.3386  54.7870
    54.9158  54.9158  59.9385  59.9386  59.9461  69.2898  69.2900  72.5864
    76.6021  78.7609

          k = 0.0833 0.2500 0.3333 (   884 PWs)   bands (ev):

    35.8777  37.0481  37.4255  38.9251  39.5376  39.5639  41.7630  43.1786
    45.7984  46.4882  46.6627  47.3699  48.9454  50.4218  52.0124  53.1280
    53.8185  56.5563  58.4029  59.0557  59.1098  66.4374  71.3903  71.8455
    76.7773  80.0160

          k = 0.0833 0.2500 0.4167 (   888 PWs)   bands (ev):

    37.1759  38.0089  38.7636  39.4037  40.4048  40.8977  42.7603  43.3443
    44.4248  45.0317  45.7876  46.9072  47.8431  50.9414  51.1922  51.9398
    52.3208  56.3837  58.5287  58.5841  58.7283  63.7091  71.8821  72.3452
    77.5725  80.9072

          k = 0.0833 0.2500-0.5000 (   890 PWs)   bands (ev):

    38.5510  38.5513  38.8360  38.8363  42.0554  42.0554  42.1848  42.1851
    44.5330  44.5330  45.5623  45.5623  49.3810  49.3810  51.0170  51.0172
    54.1087  54.1088  58.3903  58.3906  61.1347  61.1347  72.2653  72.2655
    78.8880  78.8883

          k = 0.0833 0.3333 0.3333 (   889 PWs)   bands (ev):

    36.4674  38.4389  38.4390  39.6382  40.2852  40.2853  43.1760  43.4970
    45.2524  45.2526  46.2542  46.6358  48.1250  49.9604  50.7321  52.4183
    52.4183  57.4135  57.4135  57.7334  58.7931  68.8465  68.8467  70.6820
    76.6464  81.4711

          k = 0.0833 0.3333 0.4167 (   891 PWs)   bands (ev):

    37.4975  39.2506  39.7297  39.8592  40.6493  41.4033  43.3029  43.4945
    44.4408  44.9233  45.4048  47.2255  47.4955  49.8632  50.6413  51.0391
    51.3571  55.3586  56.6935  56.7991  61.3009  66.3742  70.2836  70.4637
    77.2486  79.9254

          k = 0.0833 0.3333-0.5000 (   892 PWs)   bands (ev):

    38.8589  38.8590  39.6574  39.6577  42.1825  42.1825  42.6637  42.6638
    44.3734  44.3737  46.1851  46.1851  48.9122  48.9123  50.1997  50.2000
    53.1015  53.1016  56.4542  56.4545  63.8617  63.8617  70.6162  70.6163
    78.4428  78.4429

          k = 0.0833 0.4167 0.4167 (   891 PWs)   bands (ev):

    38.1897  39.9510  40.3347  40.3349  41.0711  41.0712  42.8166  43.4519
    45.2910  45.2911  46.8733  46.9623  47.5916  48.7589  49.8637  49.8638
    51.0639  54.6184  54.6185  55.3414  63.9089  68.4018  68.4020  69.9139
    77.6909  79.9539

          k = 0.0833 0.4167-0.5000 (   882 PWs)   bands (ev):

    39.2357  39.2357  40.1135  40.1136  42.1145  42.1147  42.4071  42.4072
    46.0386  46.0388  46.8538  46.8539  48.3203  48.3206  48.9477  48.9479
    52.5326  52.5326  54.5451  54.5453  66.3155  66.3156  69.5022  69.5023
    78.7390  78.7392

          k = 0.0833-0.5000-0.5000 (   884 PWs)   bands (ev):

    39.7394  39.7394  39.7396  39.7397  42.3356  42.3359  42.3359  42.3360
    47.5235  47.5235  47.5235  47.5240  47.6510  47.6512  47.6512  47.6514
    53.0272  53.0274  53.0274  53.0274  68.2157  68.2157  68.2159  68.2160
    79.5222  79.5225

          k = 0.1667 0.1667 0.1667 (   898 PWs)   bands (ev):

    34.3730  34.3732  34.3732  36.9702  36.9703  36.9703  38.4378  43.8951
    45.2468  45.2468  52.2558  52.2558  53.4160  53.4160  53.4163  54.8733
    54.8735  54.8735  61.9690  61.9693  61.9693  71.0315  71.0316  71.0316
    75.6874  78.0119

          k = 0.1667 0.1667 0.2500 (   886 PWs)   bands (ev):

    35.0703  35.0705  35.1889  37.6901  38.5947  38.6310  38.6311  44.0620
    45.6883  45.7334  50.8253  50.8253  51.4548  51.5057  53.1666  53.3845
    53.8726  53.8729  61.3302  61.3305  61.7749  67.7153  72.8237  72.8239
    75.4676  77.0551

          k = 0.1667 0.1667 0.3333 (   891 PWs)   bands (ev):

    36.1547  36.2316  36.2318  38.7303  38.7764  40.3384  40.3386  43.8986
    45.6060  46.3641  48.1723  48.1724  49.3523  51.4573  52.0706  52.8047
    52.8049  54.8151  60.4490  60.4493  60.9726  64.1566  74.2056  74.2059
    75.7520  76.7980

          k = 0.1667 0.1667 0.4167 (   890 PWs)   bands (ev):

    37.1240  37.6775  37.6777  38.5568  40.2516  41.3396  41.3398  43.6335
    44.8298  46.4856  46.4857  47.2904  47.3629  49.8673  51.4758  51.4760
    54.2534  56.4341  59.6857  59.8285  59.8288  60.6058  75.0602  75.0606
    76.7255  76.7257

          k = 0.1667 0.1667-0.5000 (   882 PWs)   bands (ev):

    37.9734  37.9738  38.6091  38.6094  41.1891  41.1892  42.0097  42.0100
    45.7168  45.7169  46.2412  46.2413  48.4649  48.4649  50.7271  50.7274
    57.2377  57.2378  58.1101  58.1103  59.6218  59.6221  75.4329  75.4333
    76.6003  76.6009

          k = 0.1667 0.2500 0.2500 (   883 PWs)   bands (ev):

    35.4364  35.8340  35.8341  38.3228  39.2415  39.2416  40.2443  44.9378
    45.4971  46.2728  49.1621  49.1625  50.0778  51.6296  51.8976  52.3445
    52.3445  54.0870  60.8999  61.3071  61.3072  69.6656  69.6656  72.7479
    74.6033  77.0361

          k = 0.1667 0.2500 0.3333 (   888 PWs)   bands (ev):

    36.2902  36.7080  36.9588  38.2604  40.1642  40.5920  41.6097  44.7091
    45.8129  46.5299  47.0661  47.5705  48.4601  50.6709  50.9123  51.7093
    52.1829  55.8678  59.9881  60.2545  60.5543  66.3092  71.4807  72.4275
    74.5426  77.7992

          k = 0.1667 0.2500 0.4167 (   886 PWs)   bands (ev):

    37.4933  37.5654  38.2340  38.4346  40.7060  41.4376  41.7505  44.2168
    45.5110  46.2612  46.5384  46.7249  47.6533  49.0917  50.0617  50.7923
    54.1803  58.0166  58.9611  59.1540  59.3036  63.1694  72.5218  72.5646
    75.2626  77.7299

          k = 0.1667 0.2500-0.5000 (   896 PWs)   bands (ev):

    38.0190  38.0192  38.9882  38.9884  40.5440  40.5441  42.9605  42.9606
    45.4539  45.4540  47.3718  47.3719  47.7451  47.7451  49.8531  49.8534
    56.6824  56.6825  58.8821  58.8823  60.4235  60.4236  72.7661  72.7664
    76.6163  76.6165

          k = 0.1667 0.3333 0.3333 (   884 PWs)   bands (ev):

    36.7866  37.7173  37.7174  38.0901  40.9996  40.9996  42.4060  44.5483
    45.5375  46.3050  46.3052  47.8561  48.6774  49.3356  50.2579  50.2580
    51.9338  58.0595  59.1314  59.4531  59.4531  68.4938  68.4939  71.1455
    74.2091  78.7316

          k = 0.1667 0.3333 0.4167 (   893 PWs)   bands (ev):

    37.7063  38.1339  38.1838  39.0706  40.4101  41.7233  42.0671  43.8099
    45.7959  46.0299  46.7070  47.9055  48.5163  48.8425  48.8507  49.7787
    53.2760  57.8013  58.2062  58.3939  60.5538  65.7355  69.9763  70.7094
    74.7268  77.6239

          k = 0.1667 0.3333-0.5000 (   892 PWs)   bands (ev):

    38.2453  38.2455  38.9519  38.9519  40.7523  40.7524  42.7619  42.7620
    46.0608  46.0609  47.8174  47.8176  47.8843  47.8846  49.2088  49.2089
    55.5601  55.5601  57.8710  57.8713  63.1239  63.1239  70.5736  70.5738
    75.9574  75.9576

          k = 0.1667 0.4167 0.4167 (   888 PWs)   bands (ev):

    38.1372  38.2177  38.8585  38.8585  41.2192  41.2193  41.9918  43.3049
    45.6248  46.6230  46.6232  47.3962  49.1161  49.1162  49.2531  49.6897
    53.1617  56.7758  56.7758  57.0504  63.1381  67.7495  67.7497  69.7520
    75.0647  77.6410

          k = 0.1667 0.4167-0.5000 (   892 PWs)   bands (ev):

    38.4696  38.4697  38.7295  38.7295  41.4322  41.4324  42.3678  42.3680
    46.0468  46.0469  46.9186  46.9189  49.2444  49.2447  49.7521  49.7521
    54.7234  54.7234  56.3931  56.3933  65.5471  65.5472  69.0079  69.0081
    76.1496  76.1498

          k = 0.1667-0.5000-0.5000 (   884 PWs)   bands (ev):

    38.5963  38.5963  38.5964  38.5964  42.0165  42.0166  42.0166  42.0169
    46.1711  46.1711  46.1711  46.1715  50.0829  50.0831  50.0831  50.0833
    54.9691  54.9693  54.9693  54.9694  67.4915  67.4915  67.4915  67.4918
    77.0251  77.0253

          k = 0.2500 0.2500 0.2500 (   886 PWs)   bands (ev):

    36.1023  36.1026  36.1026  37.6868  40.6191  40.6193  40.6193  45.2763
    45.2763  47.6723  48.9045  48.9045  48.9049  50.2968  50.2970  50.2970
    53.3687  53.3687  61.5216  61.5219  61.5219  70.3032  70.3035  70.3035
    73.3394  77.8422

          k = 0.2500 0.2500 0.3333 (   890 PWs)   bands (ev):

    36.7993  36.8464  36.8466  37.4133  41.1869  41.4125  41.4126  44.7789
    45.3461  47.8881  47.9746  47.9747  48.5703  48.7903  49.6794  49.6796
    53.9118  55.3102  60.7627  60.7629  61.4413  66.7707  70.9963  70.9966
    72.9923  77.4772

          k = 0.2500 0.2500 0.4167 (   894 PWs)   bands (ev):

    37.2825  37.3937  38.0058  38.0059  40.8925  40.8927  42.0050  44.0070
    45.7415  47.3318  47.4913  47.9298  47.9300  48.0314  49.4096  49.4098
    56.3425  57.2916  59.7571  59.7573  60.5913  63.1167  71.5277  71.5280
    73.5402  77.3109

          k = 0.2500 0.2500-0.5000 (   904 PWs)   bands (ev):

    37.4324  37.4327  39.2376  39.2377  39.7226  39.7229  43.0213  43.0214
    46.4625  46.4626  47.4054  47.4056  48.3586  48.3588  49.1153  49.1153
    59.1274  59.1275  59.2982  59.2984  59.5772  59.5772  71.7366  71.7369
    74.8395  74.8396

          k = 0.2500 0.3333 0.3333 (   896 PWs)   bands (ev):

    36.9854  37.1213  37.2866  37.2867  41.4148  41.4148  41.6830  44.6847
    44.7849  47.3687  47.3687  47.8576  48.9188  48.9190  49.3878  50.4636
    54.0805  57.0163  60.4274  60.8585  60.8586  67.9516  67.9517  70.2724
    72.3806  77.5598

          k = 0.2500 0.3333 0.4167 (   899 PWs)   bands (ev):

    36.9237  37.3391  37.7128  37.9993  40.8343  41.2281  41.9259  43.8698
    45.0059  46.4410  46.9804  47.0855  49.0332  49.9593  50.3933  50.4711
    55.6701  59.4242  59.5995  59.7966  59.9523  64.8170  69.0219  69.8812
    72.7304  75.7526

          k = 0.2500 0.3333-0.5000 (   892 PWs)   bands (ev):

    37.1134  37.1135  38.2815  38.2815  40.5739  40.5741  42.8592  42.8593
    45.5860  45.5861  46.8929  46.8932  49.6659  49.6662  50.6784  50.6784
    58.0522  58.0523  59.2049  59.2051  61.9882  61.9883  69.6093  69.6096
    73.9314  73.9316

          k = 0.2500 0.4167 0.4167 (   894 PWs)   bands (ev):

    36.8155  37.5069  37.5069  37.6121  41.4616  41.6264  41.6265  43.5934
    44.5803  45.8623  45.8624  46.0447  50.8613  50.8613  51.6971  52.1150
    55.3908  58.8306  58.8327  58.8327  61.9271  66.5545  66.5546  68.6947
    72.9051  75.7518

          k = 0.2500 0.4167-0.5000 (   892 PWs)   bands (ev):

    37.0365  37.0365  37.5984  37.5984  41.5072  41.5074  42.6884  42.6885
    44.9887  44.9889  45.6695  45.6697  51.7902  51.7905  52.0086  52.0086
    57.0075  57.0076  58.2904  58.2906  64.2782  64.2783  67.7715  67.7717
    73.9900  73.9901

          k = 0.2500-0.5000-0.5000 (   912 PWs)   bands (ev):

    37.1919  37.1919  37.1920  37.1920  42.2916  42.2917  42.2917  42.2920
    44.9543  44.9543  44.9543  44.9547  52.7181  52.7183  52.7183  52.7184
    57.0578  57.0580  57.0580  57.0581  66.1488  66.1489  66.1489  66.1491
    74.9285  74.9287

          k = 0.3333 0.3333 0.3333 (   892 PWs)   bands (ev):

    36.3487  37.1479  37.1480  37.1480  41.5122  41.5124  41.5124  44.4045
    44.4045  46.5435  46.5437  46.5437  50.2073  50.2073  50.2074  52.9553
    56.2673  56.2673  61.1432  61.1434  61.1434  67.6075  67.6078  67.6078
    71.5013  77.0822

          k = 0.3333 0.3333 0.4167 (   903 PWs)   bands (ev):

    36.1599  36.7799  37.2004  37.2005  41.3517  41.3519  42.0473  43.7912
    44.4023  45.4968  45.8198  45.8200  51.1389  51.8294  51.8294  53.1977
    57.9224  58.3175  60.4798  60.4800  61.0028  64.3578  67.6509  67.6511
    71.6560  74.7267

          k = 0.3333 0.3333-0.5000 (   900 PWs)   bands (ev):

    36.3535  36.3537  37.2578  37.2579  41.2250  41.2252  42.9316  42.9318
    44.7725  44.7726  45.6024  45.6026  52.1810  52.1813  52.5684  52.5684
    59.9901  59.9901  59.9974  59.9977  61.0376  61.0377  67.7297  67.7299
    72.7880  72.7881

          k = 0.3333 0.4167 0.4167 (   905 PWs)   bands (ev):

    35.8576  36.4976  36.4976  36.6977  41.8015  42.0891  42.0892  43.7174
    43.8931  44.8294  44.8294  44.9223  53.1841  53.1841  53.5557  55.0811
    57.5457  60.2323  60.3989  60.3990  60.4592  65.0521  65.0522  66.5840
    71.6360  74.5856

          k = 0.3333 0.4167-0.5000 (   900 PWs)   bands (ev):

    35.9934  35.9935  36.4705  36.4705  42.0416  42.0418  42.9768  42.9769
    44.1684  44.1685  44.5965  44.5967  54.2476  54.2476  54.4519  54.4522
    59.1262  59.1262  59.8309  59.8311  62.6769  62.6770  65.8598  65.8600
    72.6612  72.6614

          k = 0.3333-0.5000-0.5000 (   900 PWs)   bands (ev):

    36.0369  36.0369  36.0370  36.0370  42.7404  42.7405  42.7405  42.7408
    44.0346  44.0347  44.0347  44.0350  55.3038  55.3040  55.3040  55.3041
    58.9461  58.9463  58.9463  58.9464  64.3124  64.3125  64.3125  64.3128
    73.5188  73.5188

          k = 0.4167 0.4167 0.4167 (   904 PWs)   bands (ev):

    35.3877  35.8779  35.8779  35.8779  42.4824  42.4825  42.4825  43.5852
    43.5852  44.1140  44.1141  44.1141  55.2615  55.2615  55.2615  57.5290
    59.3797  59.3797  60.8899  60.8902  60.8902  64.0135  64.0137  64.0137
    71.4050  73.9856

          k = 0.4167 0.4167-0.5000 (   900 PWs)   bands (ev):

    35.4074  35.4075  35.6690  35.6690  42.6544  42.6546  43.1473  43.1475
    43.6613  43.6615  43.8445  43.8447  56.2657  56.2658  56.8216  56.8219
    60.5858  60.5858  60.5925  60.5927  61.3421  61.3423  63.8355  63.8357
    72.2374  72.2377

          k = 0.4167-0.5000-0.5000 (   908 PWs)   bands (ev):

    35.3009  35.3009  35.3009  35.3010  43.1245  43.1245  43.1245  43.1248
    43.4667  43.4667  43.4667  43.4671  57.6849  57.6852  57.6852  57.6853
    60.3010  60.3012  60.3012  60.3013  62.3086  62.3087  62.3087  62.3089
    72.6831  72.6831

          k =-0.5000-0.5000-0.5000 (   912 PWs)   bands (ev):

    35.0494  35.0494  35.0494  35.0495  43.2751  43.2751  43.2751  43.2751
    43.2751  43.2751  43.2755  43.2755  59.3123  59.3128  59.3128  59.3128
    60.8011  60.8011  60.8011  60.8013  60.8013  60.8013  60.8014  60.8014
    72.3938  72.3939

     the Fermi energy is    67.4881 ev

!    total energy              =   -3086.17330666 Ry

     total all-electron energy =   -152081.557671 Ry
     estimated scf accuracy    <       0.00000069 Ry
     smearing contrib. (-TS)   =      -0.11745305 Ry
     internal energy E=F+TS    =   -3086.05585362 Ry

     The total energy is F=E-TS. E is the sum of the following terms:
     one-electron contribution =     241.41331428 Ry
     hartree contribution      =       6.87367010 Ry
     xc contribution           =    -140.70731411 Ry
     ewald contribution        =    -418.75374549 Ry
     one-center paw contrib.   =   -2774.88177840 Ry

     convergence has been achieved in   6 iterations

     negative rho (up, down):  7.137E-03 0.000E+00

     Forces acting on atoms (cartesian axes, Ry/au):

     atom    1 type  1   force =     0.00000000    0.00000000    0.00000000
     atom    2 type  1   force =     0.00000000    0.00000000    0.00000000
     atom    3 type  1   force =     0.00000000    0.00000000    0.00000000
     atom    4 type  1   force =     0.00000000    0.00000000    0.00000000

     Total force =     0.000000     Total SCF correction =     0.000000

     Writing all to output data dir ./pwscf.save/
 
     init_run     :      0.49s CPU      0.52s WALL (       1 calls)
     electrons    :     15.66s CPU     16.05s WALL (       1 calls)
     forces       :      0.11s CPU      0.11s WALL (       1 calls)

     Called by init_run:
     wfcinit      :      0.41s CPU      0.42s WALL (       1 calls)
     potinit      :      0.05s CPU      0.06s WALL (       1 calls)
     hinit0       :      0.03s CPU      0.03s WALL (       1 calls)

     Called by electrons:
     c_bands      :     14.67s CPU     14.98s WALL (       6 calls)
     sum_band     :      0.67s CPU      0.70s WALL (       6 calls)
     v_of_rho     :      0.01s CPU      0.01s WALL (       7 calls)
     newd         :      0.01s CPU      0.01s WALL (       7 calls)
     PAW_pot      :      0.34s CPU      0.38s WALL (       7 calls)
     mix_rho      :      0.00s CPU      0.00s WALL (       6 calls)

     Called by c_bands:
     init_us_2    :      0.03s CPU      0.03s WALL (    1176 calls)
     init_us_2:cp :      0.03s CPU      0.03s WALL (    1176 calls)
     cegterg      :     14.52s CPU     14.82s WALL (     504 calls)

     Called by *egterg:
     cdiaghg      :      7.21s CPU      7.31s WALL (    4663 calls)
     h_psi        :      5.13s CPU      5.30s WALL (    4747 calls)
     s_psi        :      0.13s CPU      0.14s WALL (    4747 calls)
     g_psi        :      0.01s CPU      0.01s WALL (    4159 calls)

     Called by h_psi:
     h_psi:calbec :      0.61s CPU      0.63s WALL (    4747 calls)
     vloc_psi     :      4.35s CPU      4.49s WALL (    4747 calls)
     add_vuspsi   :      0.15s CPU      0.16s WALL (    4747 calls)

     General routines
     calbec       :      0.80s CPU      0.83s WALL (    5587 calls)
     fft          :      0.01s CPU      0.01s WALL (      88 calls)
     ffts         :      0.00s CPU      0.00s WALL (       6 calls)
     fftw         :      4.63s CPU      4.78s WALL (  135496 calls)
 
     Parallel routines
 
     PWSCF        :     16.86s CPU     18.38s WALL

 
   This run was terminated on:  12:36:10   5Apr2024            

=------------------------------------------------------------------------------=
   JOB DONE.
=------------------------------------------------------------------------------=
