MPI startup(): Warning: I_MPI_PMI_LIBRARY will be ignored since the hydra process manager was found
MPI startup(): Warning: I_MPI_PMI_LIBRARY will be ignored since the hydra process manager was found
MPI startup(): Warning: I_MPI_PMI_LIBRARY will be ignored since the hydra process manager was found
MPI startup(): Warning: I_MPI_PMI_LIBRARY will be ignored since the hydra process manager was found
MPI startup(): Warning: I_MPI_PMI_LIBRARY will be ignored since the hydra process manager was found
MPI startup(): Warning: I_MPI_PMI_LIBRARY will be ignored since the hydra process manager was found
MPI startup(): Warning: I_MPI_PMI_LIBRARY will be ignored since the hydra process manager was found
MPI startup(): Warning: I_MPI_PMI_LIBRARY will be ignored since the hydra process manager was found
MPI startup(): Warning: I_MPI_PMI_LIBRARY will be ignored since the hydra process manager was found
MPI startup(): Warning: I_MPI_PMI_LIBRARY will be ignored since the hydra process manager was found

     Program PWSCF v.7.0 starts on  5Apr2024 at 12:35:52 

     This program is part of the open-source Quantum ESPRESSO suite
     for quantum simulation of materials; please cite
         "P. Giannozzi et al., J. Phys.:Condens. Matter 21 395502 (2009);
         "P. Giannozzi et al., J. Phys.:Condens. Matter 29 465901 (2017);
         "P. Giannozzi et al., J. Chem. Phys. 152 154105 (2020);
          URL http://www.quantum-espresso.org", 
     in publications or presentations arising from this work. More details at
     http://www.quantum-espresso.org/quote

     Parallel version (MPI), running on    10 processors

     MPI processes distributed on     1 nodes
     R & G space division:  proc/nbgrp/npool/nimage =      10
     146807 MiB available memory on the printing compute node when the environment starts
 
     Reading input from VolumeFCC_5.4.in
Warning: card &CELL ignored
Warning: card / ignored

     Current dimensions of program PWSCF are:
     Max number of different atomic species (ntypx) = 10
     Max number of k-points (npk) =  40000
     Max angular momentum in pseudopotentials (lmaxx) =  4
     file Au.pbe-n-kjpaw_psl.1.0.0.UPF: wavefunction(s)  6S 5D renormalized
     Found identity + ( -0.5000 -0.5000  0.0000) symmetry
     This is a supercell, fractional translations are disabled
     Message from routine setup:
     using ibrav=0 with symmetry is DISCOURAGED, use correct ibrav instead

     Subspace diagonalization in iterative solution of the eigenvalue problem:
     one sub-group per band group will be used
     scalapack distributed-memory algorithm (size of sub-group:  3*  3 procs)

 
     Parallelization info
     --------------------
     sticks:   dense  smooth     PW     G-vecs:    dense   smooth      PW
     Min          46      46     14                  748      748     136
     Max          47      47     15                  751      751     137
     Sum         465     465    145                 7497     7497    1365
 
     Using Slab Decomposition
 


     bravais-lattice index     =            0
     lattice parameter (alat)  =       5.3992  a.u.
     unit-cell volume          =     157.3956 (a.u.)^3
     number of atoms/cell      =            4
     number of atomic types    =            1
     number of electrons       =        44.00
     number of Kohn-Sham states=           26
     kinetic-energy cutoff     =      50.0000  Ry
     charge density cutoff     =     200.0000  Ry
     scf convergence threshold =      1.0E-06
     mixing beta               =       0.7000
     number of iterations used =            8  plain     mixing
     Exchange-correlation= SLA  PW   PBX  PBC
                           (   1   4   3   4   0   0   0)

     celldm(1)=   5.399217  celldm(2)=   0.000000  celldm(3)=   0.000000
     celldm(4)=   0.000000  celldm(5)=   0.000000  celldm(6)=   0.000000

     crystal axes: (cart. coord. in units of alat)
               a(1) = (   1.000000   0.000000   0.000000 )  
               a(2) = (   0.000000   1.000000   0.000000 )  
               a(3) = (   0.000000   0.000000   1.000000 )  

     reciprocal axes: (cart. coord. in units 2 pi/alat)
               b(1) = (  1.000000  0.000000  0.000000 )  
               b(2) = (  0.000000  1.000000  0.000000 )  
               b(3) = (  0.000000  0.000000  1.000000 )  


     PseudoPot. # 1 for Au read from file:
     ./Au.pbe-n-kjpaw_psl.1.0.0.UPF
     MD5 check sum: 4db85c736373c707a97ce4c36c2a9d23
     Pseudo is Projector augmented-wave + core cor, Zval = 11.0
     Generated using &quot;atomic&quot; code by A. Dal Corso  v.6.3
     Shape of augmentation charge: PSQ
     Using radial grid of 1279 points,  6 beta functions with: 
                l(1) =   0
                l(2) =   0
                l(3) =   1
                l(4) =   1
                l(5) =   2
                l(6) =   2
     Q(r) pseudized with 0 coefficients 


     atomic species   valence    mass     pseudopotential
        Au            11.00   196.96657     Au( 1.00)

     48 Sym. Ops., with inversion, found



   Cartesian axes

     site n.     atom                  positions (alat units)
         1           Au  tau(   1) = (   0.0000000   0.0000000   0.0000000  )
         2           Au  tau(   2) = (   0.5000000   0.5000000   0.0000000  )
         3           Au  tau(   3) = (   0.5000000   0.0000000   0.5000000  )
         4           Au  tau(   4) = (   0.0000000   0.5000000   0.5000000  )

     number of k points=    84  Gaussian smearing, width (Ry)=  0.2000
                       cart. coord. in units 2pi/alat
        k(    1) = (   0.0000000   0.0000000   0.0000000), wk =   0.0011574
        k(    2) = (   0.0000000   0.0000000   0.0833333), wk =   0.0069444
        k(    3) = (   0.0000000   0.0000000   0.1666667), wk =   0.0069444
        k(    4) = (   0.0000000   0.0000000   0.2500000), wk =   0.0069444
        k(    5) = (   0.0000000   0.0000000   0.3333333), wk =   0.0069444
        k(    6) = (   0.0000000   0.0000000   0.4166667), wk =   0.0069444
        k(    7) = (   0.0000000   0.0000000  -0.5000000), wk =   0.0034722
        k(    8) = (   0.0000000   0.0833333   0.0833333), wk =   0.0138889
        k(    9) = (   0.0000000   0.0833333   0.1666667), wk =   0.0277778
        k(   10) = (   0.0000000   0.0833333   0.2500000), wk =   0.0277778
        k(   11) = (   0.0000000   0.0833333   0.3333333), wk =   0.0277778
        k(   12) = (   0.0000000   0.0833333   0.4166667), wk =   0.0277778
        k(   13) = (   0.0000000   0.0833333  -0.5000000), wk =   0.0138889
        k(   14) = (   0.0000000   0.1666667   0.1666667), wk =   0.0138889
        k(   15) = (   0.0000000   0.1666667   0.2500000), wk =   0.0277778
        k(   16) = (   0.0000000   0.1666667   0.3333333), wk =   0.0277778
        k(   17) = (   0.0000000   0.1666667   0.4166667), wk =   0.0277778
        k(   18) = (   0.0000000   0.1666667  -0.5000000), wk =   0.0138889
        k(   19) = (   0.0000000   0.2500000   0.2500000), wk =   0.0138889
        k(   20) = (   0.0000000   0.2500000   0.3333333), wk =   0.0277778
        k(   21) = (   0.0000000   0.2500000   0.4166667), wk =   0.0277778
        k(   22) = (   0.0000000   0.2500000  -0.5000000), wk =   0.0138889
        k(   23) = (   0.0000000   0.3333333   0.3333333), wk =   0.0138889
        k(   24) = (   0.0000000   0.3333333   0.4166667), wk =   0.0277778
        k(   25) = (   0.0000000   0.3333333  -0.5000000), wk =   0.0138889
        k(   26) = (   0.0000000   0.4166667   0.4166667), wk =   0.0138889
        k(   27) = (   0.0000000   0.4166667  -0.5000000), wk =   0.0138889
        k(   28) = (   0.0000000  -0.5000000  -0.5000000), wk =   0.0034722
        k(   29) = (   0.0833333   0.0833333   0.0833333), wk =   0.0092593
        k(   30) = (   0.0833333   0.0833333   0.1666667), wk =   0.0277778
        k(   31) = (   0.0833333   0.0833333   0.2500000), wk =   0.0277778
        k(   32) = (   0.0833333   0.0833333   0.3333333), wk =   0.0277778
        k(   33) = (   0.0833333   0.0833333   0.4166667), wk =   0.0277778
        k(   34) = (   0.0833333   0.0833333  -0.5000000), wk =   0.0138889
        k(   35) = (   0.0833333   0.1666667   0.1666667), wk =   0.0277778
        k(   36) = (   0.0833333   0.1666667   0.2500000), wk =   0.0555556
        k(   37) = (   0.0833333   0.1666667   0.3333333), wk =   0.0555556
        k(   38) = (   0.0833333   0.1666667   0.4166667), wk =   0.0555556
        k(   39) = (   0.0833333   0.1666667  -0.5000000), wk =   0.0277778
        k(   40) = (   0.0833333   0.2500000   0.2500000), wk =   0.0277778
        k(   41) = (   0.0833333   0.2500000   0.3333333), wk =   0.0555556
        k(   42) = (   0.0833333   0.2500000   0.4166667), wk =   0.0555556
        k(   43) = (   0.0833333   0.2500000  -0.5000000), wk =   0.0277778
        k(   44) = (   0.0833333   0.3333333   0.3333333), wk =   0.0277778
        k(   45) = (   0.0833333   0.3333333   0.4166667), wk =   0.0555556
        k(   46) = (   0.0833333   0.3333333  -0.5000000), wk =   0.0277778
        k(   47) = (   0.0833333   0.4166667   0.4166667), wk =   0.0277778
        k(   48) = (   0.0833333   0.4166667  -0.5000000), wk =   0.0277778
        k(   49) = (   0.0833333  -0.5000000  -0.5000000), wk =   0.0069444
        k(   50) = (   0.1666667   0.1666667   0.1666667), wk =   0.0092593
        k(   51) = (   0.1666667   0.1666667   0.2500000), wk =   0.0277778
        k(   52) = (   0.1666667   0.1666667   0.3333333), wk =   0.0277778
        k(   53) = (   0.1666667   0.1666667   0.4166667), wk =   0.0277778
        k(   54) = (   0.1666667   0.1666667  -0.5000000), wk =   0.0138889
        k(   55) = (   0.1666667   0.2500000   0.2500000), wk =   0.0277778
        k(   56) = (   0.1666667   0.2500000   0.3333333), wk =   0.0555556
        k(   57) = (   0.1666667   0.2500000   0.4166667), wk =   0.0555556
        k(   58) = (   0.1666667   0.2500000  -0.5000000), wk =   0.0277778
        k(   59) = (   0.1666667   0.3333333   0.3333333), wk =   0.0277778
        k(   60) = (   0.1666667   0.3333333   0.4166667), wk =   0.0555556
        k(   61) = (   0.1666667   0.3333333  -0.5000000), wk =   0.0277778
        k(   62) = (   0.1666667   0.4166667   0.4166667), wk =   0.0277778
        k(   63) = (   0.1666667   0.4166667  -0.5000000), wk =   0.0277778
        k(   64) = (   0.1666667  -0.5000000  -0.5000000), wk =   0.0069444
        k(   65) = (   0.2500000   0.2500000   0.2500000), wk =   0.0092593
        k(   66) = (   0.2500000   0.2500000   0.3333333), wk =   0.0277778
        k(   67) = (   0.2500000   0.2500000   0.4166667), wk =   0.0277778
        k(   68) = (   0.2500000   0.2500000  -0.5000000), wk =   0.0138889
        k(   69) = (   0.2500000   0.3333333   0.3333333), wk =   0.0277778
        k(   70) = (   0.2500000   0.3333333   0.4166667), wk =   0.0555556
        k(   71) = (   0.2500000   0.3333333  -0.5000000), wk =   0.0277778
        k(   72) = (   0.2500000   0.4166667   0.4166667), wk =   0.0277778
        k(   73) = (   0.2500000   0.4166667  -0.5000000), wk =   0.0277778
        k(   74) = (   0.2500000  -0.5000000  -0.5000000), wk =   0.0069444
        k(   75) = (   0.3333333   0.3333333   0.3333333), wk =   0.0092593
        k(   76) = (   0.3333333   0.3333333   0.4166667), wk =   0.0277778
        k(   77) = (   0.3333333   0.3333333  -0.5000000), wk =   0.0138889
        k(   78) = (   0.3333333   0.4166667   0.4166667), wk =   0.0277778
        k(   79) = (   0.3333333   0.4166667  -0.5000000), wk =   0.0277778
        k(   80) = (   0.3333333  -0.5000000  -0.5000000), wk =   0.0069444
        k(   81) = (   0.4166667   0.4166667   0.4166667), wk =   0.0092593
        k(   82) = (   0.4166667   0.4166667  -0.5000000), wk =   0.0138889
        k(   83) = (   0.4166667  -0.5000000  -0.5000000), wk =   0.0069444
        k(   84) = (  -0.5000000  -0.5000000  -0.5000000), wk =   0.0011574

     Dense  grid:     7497 G-vectors     FFT dimensions: (  25,  25,  25)

     Estimated max dynamical RAM per process >       7.11 MB

     Estimated total dynamical RAM >      71.14 MB

     Initial potential from superposition of free atoms

     starting charge      43.9996, renormalised to      44.0000
     Starting wfcs are   36 randomized atomic wfcs
     Checking if some PAW data can be deallocated... 

     total cpu time spent up to now is        1.0 secs

     Self-consistent Calculation

     iteration #  1     ecut=    50.00 Ry     beta= 0.70
     Davidson diagonalization with overlap
     ethr =  1.00E-02,  avg # of iterations =  7.9

     total cpu time spent up to now is        2.6 secs

     total energy              =   -3087.84949100 Ry
     estimated scf accuracy    <       0.68143415 Ry

     iteration #  2     ecut=    50.00 Ry     beta= 0.70
     Davidson diagonalization with overlap
     ethr =  1.55E-03,  avg # of iterations =  5.5

     total cpu time spent up to now is        3.9 secs

     total energy              =   -3088.28652971 Ry
     estimated scf accuracy    <       0.03004784 Ry

     iteration #  3     ecut=    50.00 Ry     beta= 0.70
     Davidson diagonalization with overlap
     c_bands:  1 eigenvalues not converged
     c_bands:  1 eigenvalues not converged
     c_bands:  2 eigenvalues not converged
     c_bands:  1 eigenvalues not converged
     c_bands:  1 eigenvalues not converged
     c_bands:  1 eigenvalues not converged
     ethr =  6.83E-05,  avg # of iterations = 10.6

     negative rho (up, down):  6.031E-04 0.000E+00

     total cpu time spent up to now is        5.9 secs

     total energy              =   -3088.32157063 Ry
     estimated scf accuracy    <       0.00396946 Ry

     iteration #  4     ecut=    50.00 Ry     beta= 0.70
     Davidson diagonalization with overlap
     c_bands:  1 eigenvalues not converged
     c_bands:  2 eigenvalues not converged
     c_bands:  1 eigenvalues not converged
     ethr =  9.02E-06,  avg # of iterations =  6.8

     negative rho (up, down):  6.595E-04 0.000E+00

     total cpu time spent up to now is        7.3 secs

     total energy              =   -3088.32314072 Ry
     estimated scf accuracy    <       0.00048978 Ry

     iteration #  5     ecut=    50.00 Ry     beta= 0.70
     Davidson diagonalization with overlap
     c_bands:  1 eigenvalues not converged
     c_bands:  1 eigenvalues not converged
     c_bands:  1 eigenvalues not converged
     c_bands:  2 eigenvalues not converged
     c_bands:  1 eigenvalues not converged
     c_bands:  1 eigenvalues not converged
     c_bands:  1 eigenvalues not converged
     c_bands:  1 eigenvalues not converged
     c_bands:  1 eigenvalues not converged
     ethr =  1.11E-06,  avg # of iterations =  7.1

     negative rho (up, down):  6.398E-04 0.000E+00

     total cpu time spent up to now is        8.7 secs

     total energy              =   -3088.32328630 Ry
     estimated scf accuracy    <       0.00002656 Ry

     iteration #  6     ecut=    50.00 Ry     beta= 0.70
     Davidson diagonalization with overlap
     c_bands:  1 eigenvalues not converged
     c_bands:  1 eigenvalues not converged
     ethr =  6.04E-08,  avg # of iterations =  7.3

     negative rho (up, down):  6.218E-04 0.000E+00

     total cpu time spent up to now is       10.5 secs

     End of self-consistent calculation

          k = 0.0000 0.0000 0.0000 (   925 PWs)   bands (ev):

    30.7761  30.7763  30.7763  31.6980  31.6980  31.6980  33.4143  41.6106
    41.6106  41.6106  50.1451  50.1451  57.1982  57.1984  57.1984  59.3287
    59.3287  59.3287  59.3289  59.3289  59.3289  62.0745  62.0745  62.0745
    68.9531  75.1870

          k = 0.0000 0.0000 0.0833 (   932 PWs)   bands (ev):

    30.9812  31.0162  31.0164  31.8147  31.9809  31.9809  33.7075  41.3351
    41.8104  41.8104  49.7635  50.2413  56.6079  56.6081  57.0421  57.0546
    57.0546  58.6762  58.6762  59.3313  59.3315  61.2864  64.2288  64.2288
    69.4669  75.1917

          k = 0.0000 0.0000 0.1667 (   936 PWs)   bands (ev):

    31.5858  31.7144  31.7145  32.1624  32.8192  32.8192  34.5465  40.5728
    42.4043  42.4043  48.7193  50.5268  53.7614  53.7614  55.0082  55.0083
    56.5959  57.0254  57.0254  59.2077  59.3384  59.3386  67.1502  67.1502
    70.9429  75.1785

          k = 0.0000 0.0000 0.2500 (   932 PWs)   bands (ev):

    32.5641  32.7343  32.7936  32.7938  34.1875  34.1875  35.7816  39.4746
    43.3749  43.3749  47.3136  50.3978  50.3978  50.9915  52.8069  52.8069
    54.8871  54.8871  55.9164  56.3819  59.3480  59.3482  69.8547  69.8547
    73.2261  75.3289

          k = 0.0000 0.0000 0.3333 (   932 PWs)   bands (ev):

    33.5158  33.8526  34.0885  34.0887  36.0443  36.0443  37.0303  38.2027
    44.6948  44.6948  46.1023  47.0930  47.0930  50.4933  50.4934  51.6185
    52.5989  52.5989  53.2613  55.0800  59.3578  59.3580  72.1565  72.1567
    75.6007  75.6011

          k = 0.0000 0.0000 0.4167 (   932 PWs)   bands (ev):

    34.4924  35.2643  35.2646  35.3326  36.8899  37.5051  38.3312  38.3312
    43.9295  43.9295  46.0084  46.3281  46.3281  48.6255  48.6256  50.1954
    50.3441  50.3441  52.3822  54.1663  59.3650  59.3652  73.9149  73.9150
    75.5960  75.5974

          k = 0.0000 0.0000-0.5000 (   916 PWs)   bands (ev):

    35.6314  35.6316  35.7741  35.7744  36.7405  36.7408  40.9845  40.9845
    40.9846  40.9846  47.5689  47.5689  47.8731  47.8731  48.2296  48.2296
    48.2298  48.2298  53.2469  53.2473  59.3681  59.3683  75.0498  75.0499
    75.0502  75.0504

          k = 0.0000 0.0833 0.0833 (   941 PWs)   bands (ev):

    31.1732  31.2202  31.2203  32.0949  32.0949  32.3358  33.9850  41.2460
    41.8383  42.0011  49.6373  50.1136  55.8573  55.8575  55.9782  56.0933
    57.0672  57.0674  58.6776  58.6776  58.9065  63.4477  63.4477  65.6207
    69.9595  73.7896

          k = 0.0000 0.0833 0.1667 (   947 PWs)   bands (ev):

    31.7063  31.8258  31.9181  32.4357  32.9269  33.3105  34.7805  40.5969
    42.3551  42.5552  48.7337  50.3546  52.7870  53.3219  54.2747  54.6575
    55.4067  56.6329  57.0227  58.6808  58.6842  61.4502  66.3828  68.1591
    71.3763  72.8005

          k = 0.0000 0.0833 0.2500 (   939 PWs)   bands (ev):

    32.6474  32.8046  32.9969  32.9970  34.2850  34.7687  35.9608  39.5561
    43.3157  43.3873  47.4633  49.5257  50.1966  50.8856  52.2413  52.6122
    53.2867  54.8778  55.7162  58.6397  58.6839  58.9077  69.0435  70.7190
    72.3352  73.5704

          k = 0.0000 0.0833 0.3333 (   932 PWs)   bands (ev):

    33.7655  33.9014  34.0955  34.2880  36.1259  36.5903  37.1901  38.3313
    44.1156  44.6389  46.3797  46.7479  47.0085  49.9976  50.4158  50.9811
    51.6225  52.5808  54.1899  56.5447  58.6407  58.6843  71.0945  72.2829
    72.9642  75.9772

          k = 0.0000 0.0833 0.4167 (   926 PWs)   bands (ev):

    34.7213  35.1745  35.4401  35.5799  37.0586  37.7206  38.3906  38.6573
    43.4828  43.9134  44.4850  46.2799  47.6902  47.7364  48.6542  49.0016
    50.3161  51.9637  52.5378  54.8744  58.6545  58.6798  72.2268  72.4368
    74.7075  76.3898

          k = 0.0000 0.0833-0.5000 (   926 PWs)   bands (ev):

    35.8334  35.8336  35.8539  35.8541  36.9897  36.9900  40.9223  40.9225
    41.0125  41.0126  45.7244  45.7245  48.0571  48.0571  48.1912  48.1914
    49.6314  49.6314  53.6130  53.6133  58.6691  58.6692  72.5351  72.5352
    75.8413  75.8420

          k = 0.0000 0.1667 0.1667 (   941 PWs)   bands (ev):

    31.9625  32.5238  32.5239  33.2498  33.2498  34.4756  35.4547  40.4012
    42.5152  42.9741  48.4008  50.3076  51.0539  51.0542  51.8617  53.6128
    55.4690  55.4690  57.0142  57.0143  57.7069  64.4428  64.4428  70.3285
    70.9099  72.6265

          k = 0.0000 0.1667 0.2500 (   934 PWs)   bands (ev):

    32.6491  33.5045  33.6018  33.7786  34.5751  36.0400  36.4757  39.6906
    43.2757  43.4753  47.5310  47.8921  49.1020  49.4969  50.9390  51.9855
    53.7075  54.8223  54.8505  56.9989  57.1808  61.9745  67.1018  69.8060
    72.7248  74.5706

          k = 0.0000 0.1667 0.3333 (   934 PWs)   bands (ev):

    33.7392  34.4996  34.8030  34.8813  36.3663  37.6259  37.8055  38.6661
    43.4662  44.5374  44.9797  46.7093  47.1076  47.2498  50.1220  51.6268
    52.0342  52.5302  53.5387  56.9761  56.9794  59.4585  69.0000  69.4262
    74.9255  75.9719

          k = 0.0000 0.1667 0.4167 (   937 PWs)   bands (ev):

    35.0554  35.3909  35.9555  36.3035  37.5362  38.3225  38.5616  39.4847
    42.5498  43.0345  43.8424  45.2104  46.1698  48.2516  48.6509  49.6406
    50.2407  51.8127  53.4556  56.9220  56.9485  57.1607  69.5336  69.8151
    76.6124  76.6844

          k = 0.0000 0.1667-0.5000 (   924 PWs)   bands (ev):

    36.0723  36.0725  36.4196  36.4198  37.7229  37.7232  40.8660  40.8661
    41.0857  41.0859  43.6503  43.6504  48.0939  48.0941  48.4120  48.4120
    49.9338  49.9339  55.1631  55.1632  56.9244  56.9246  69.8070  69.8072
    77.7044  77.7083

          k = 0.0000 0.2500 0.2500 (   927 PWs)   bands (ev):

    33.0641  34.5847  34.5848  35.0469  35.0470  37.2613  37.6347  39.5736
    43.6069  43.6230  46.1294  46.1297  47.0023  48.1091  50.8833  51.8192
    53.4151  53.4151  54.8082  54.8083  55.9064  64.7182  64.7183  68.1379
    75.0791  76.1414

          k = 0.0000 0.2500 0.3333 (   933 PWs)   bands (ev):

    33.9126  35.6846  35.8508  35.8978  36.7529  38.2127  39.0344  39.2977
    43.2319  43.5082  44.4259  44.5987  46.0579  46.7307  49.4799  51.6622
    52.3680  52.4590  53.4013  54.7590  55.1634  62.2558  66.7555  67.3972
    75.0111  77.3248

          k = 0.0000 0.2500 0.4167 (   941 PWs)   bands (ev):

    35.1169  36.4589  36.7629  37.4401  38.2250  38.8241  39.0951  40.5970
    41.6395  42.0922  42.8950  43.6439  46.1078  47.5781  48.3829  49.8491
    50.1465  50.8084  54.7196  54.8320  55.3607  59.8475  67.3811  67.6929
    75.5668  77.1883

          k = 0.0000 0.2500-0.5000 (   944 PWs)   bands (ev):

    36.3752  36.3753  37.3284  37.3287  38.8949  38.8952  41.0580  41.0580
    41.1658  41.1659  41.7862  41.7862  47.9952  47.9954  48.4981  48.4982
    49.0895  49.0897  54.7230  54.7232  57.5360  57.5360  67.6797  67.6798
    76.6087  76.6089

          k = 0.0000 0.3333 0.3333 (   946 PWs)   bands (ev):

    34.4943  37.1578  37.1579  37.2598  37.2599  38.8132  39.1716  40.8017
    42.1656  42.1658  43.1743  44.8860  45.1276  45.9116  48.4896  50.8715
    50.8716  52.3922  52.3923  53.7316  55.4230  64.5556  64.5557  66.3682
    74.7939  77.5598

          k = 0.0000 0.3333 0.4167 (   937 PWs)   bands (ev):

    35.4760  37.7289  37.8467  38.7418  38.9406  39.1363  39.4157  41.0309
    41.0678  41.8226  42.1907  43.1850  46.2936  46.3146  47.6508  49.2635
    49.4376  50.0894  52.3760  52.8791  57.7070  62.3416  65.9457  66.1811
    75.2470  77.1545

          k = 0.0000 0.3333-0.5000 (   940 PWs)   bands (ev):

    36.7438  36.7439  38.4449  38.4451  40.1232  40.1233  40.4976  40.4978
    41.1780  41.1781  41.6444  41.6445  47.7566  47.7568  47.9390  47.9391
    48.0051  48.0052  52.4917  52.4919  60.0498  60.0499  66.3012  66.3012
    76.2002  76.2011

          k = 0.0000 0.4167 0.4167 (   938 PWs)   bands (ev):

    36.1804  38.5199  38.5201  39.1798  39.4257  39.4259  39.4376  41.1942
    41.1942  42.3123  42.8109  42.8261  45.4183  46.7070  46.9797  47.9521
    47.9524  50.1668  50.1670  51.4034  60.1097  64.2681  64.2683  65.7269
    75.5943  77.1070

          k = 0.0000 0.4167-0.5000 (   936 PWs)   bands (ev):

    37.2326  37.2326  38.9005  38.9006  39.5762  39.5763  40.9986  40.9986
    42.1255  42.1258  42.5581  42.5583  46.3432  46.3434  46.7412  46.7414
    48.3017  48.3018  50.5372  50.5374  62.3417  62.3417  65.3348  65.3349
    76.4011  76.4039

          k = 0.0000-0.5000-0.5000 (   952 PWs)   bands (ev):

    37.9285  37.9285  37.9288  37.9288  40.4795  40.4796  40.4797  40.4797
    43.1947  43.1950  43.1950  43.1952  45.6687  45.6688  45.6689  45.6693
    49.1056  49.1058  49.1059  49.1059  64.1345  64.1345  64.1346  64.1348
    76.8482  76.8485

          k = 0.0833 0.0833 0.0833 (   937 PWs)   bands (ev):

    31.3703  31.3705  31.3705  32.4561  32.4561  32.4561  34.2399  41.2051
    42.0101  42.0101  49.7638  49.7638  55.3655  55.3655  55.3657  55.6482
    55.6484  55.6484  58.7110  58.7112  58.7112  64.7488  64.7489  64.7489
    70.4218  74.5601

          k = 0.0833 0.0833 0.1667 (   941 PWs)   bands (ev):

    31.8936  31.8937  31.9450  32.8206  33.4319  33.4319  34.9691  40.6864
    42.4625  42.5195  48.8190  50.1394  52.5302  52.5302  53.7707  54.4656
    54.5766  54.5768  58.1390  58.4677  58.4678  62.5531  67.2347  67.2347
    71.7390  73.5270

          k = 0.0833 0.0833 0.2500 (   936 PWs)   bands (ev):

    32.8220  32.8296  32.8297  33.4706  34.8801  34.8802  36.0412  39.7542
    43.2871  43.3493  47.6592  49.4087  49.4087  50.7516  51.6350  52.8433
    52.8510  52.8510  57.2517  58.2504  58.2506  59.6953  69.7397  69.7398
    72.9715  72.9717

          k = 0.0833 0.0833 0.3333 (   931 PWs)   bands (ev):

    33.8036  34.0829  34.0831  34.5319  36.6737  36.6738  37.0690  38.7453
    43.8116  44.4723  46.3561  46.3561  47.2862  49.2972  50.7718  50.7719
    51.0320  51.5783  56.1504  56.6219  58.1400  58.1402  71.7979  71.7980
    72.8453  72.8456

          k = 0.0833 0.0833 0.4167 (   933 PWs)   bands (ev):

    34.8047  35.3486  35.3489  35.9498  36.9151  38.2343  38.6639  38.6639
    43.5596  43.5596  43.9282  45.8530  47.0007  48.5944  48.9375  48.9375
    49.1975  52.5864  53.6107  54.9438  58.0943  58.0945  72.6924  72.6926
    73.3726  73.3728

          k = 0.0833 0.0833-0.5000 (   928 PWs)   bands (ev):

    35.8773  35.8775  35.9479  35.9481  37.3742  37.3745  40.3095  40.3096
    41.6206  41.6207  45.0328  45.0329  47.4465  47.4466  48.1539  48.1539
    50.8635  50.8636  53.7289  53.7292  58.0824  58.0826  72.7801  72.7804
    73.8052  73.8052

          k = 0.0833 0.1667 0.1667 (   941 PWs)   bands (ev):

    32.1348  32.4367  32.4369  33.8049  33.8049  34.5995  35.5071  40.6797
    42.5821  42.8853  48.6335  50.0295  50.9001  50.9004  51.3431  53.0193
    53.7459  53.7459  57.9416  57.9417  57.9422  64.9985  64.9986  69.0524
    71.8355  72.6814

          k = 0.0833 0.1667 0.2500 (   934 PWs)   bands (ev):

    32.8122  33.2613  33.3581  34.4701  35.2234  36.1476  36.2864  40.2069
    43.2119  43.3996  47.8520  47.8672  48.9425  48.9712  50.7268  51.6689
    52.2140  52.6808  57.0720  57.3426  57.3794  62.2110  67.4989  70.0145
    71.9657  73.6529

          k = 0.0833 0.1667 0.3333 (   934 PWs)   bands (ev):

    33.8971  34.2182  34.6133  35.5034  36.9257  36.9787  37.8586  39.6213
    43.3282  44.2544  45.0477  46.2378  46.9624  47.8785  50.1078  50.4105
    51.0765  51.8652  55.6956  56.9116  56.9596  59.4016  69.4192  69.8952
    73.5449  74.1633

          k = 0.0833 0.1667 0.4167 (   934 PWs)   bands (ev):

    35.1899  35.2165  35.8629  36.8881  36.9066  38.6549  39.2887  39.3354
    42.8472  42.8570  43.7592  45.0405  45.4874  48.6092  48.6697  49.3108
    49.3462  53.2896  53.7535  56.7036  56.7389  56.9535  70.0488  70.3149
    74.3681  74.5700

          k = 0.0833 0.1667-0.5000 (   934 PWs)   bands (ev):

    36.1390  36.1393  36.1996  36.1999  38.3568  38.3571  39.7847  39.7849
    42.2121  42.2123  43.4620  43.4621  46.9470  46.9470  48.2822  48.2823
    51.4653  51.4653  54.9635  54.9636  56.6591  56.6593  70.3301  70.3302
    74.7242  74.7252

          k = 0.0833 0.2500 0.2500 (   933 PWs)   bands (ev):

    33.2105  34.1605  34.1606  35.8360  35.8361  36.6692  37.7062  40.5141
    43.4074  43.5525  46.1374  46.1377  47.5099  47.7680  50.2683  51.5848
    51.6008  51.6008  56.3020  56.3021  56.3827  64.8305  64.8306  68.5049
    73.3579  73.8324

          k = 0.0833 0.2500 0.3333 (   934 PWs)   bands (ev):

    34.0467  35.0832  35.4272  36.8004  37.0453  37.3635  39.2581  40.5009
    43.2034  43.6853  44.1027  44.4767  45.8716  47.5606  49.0312  49.9648
    50.5740  53.1749  54.8431  55.5620  55.5685  62.1628  66.8736  67.7680
    73.4740  75.4633

          k = 0.0833 0.2500 0.4167 (   938 PWs)   bands (ev):

    35.2465  35.9567  36.6817  37.1055  38.1575  38.5540  40.1522  40.5247
    42.0444  42.3113  42.9972  44.0060  45.1698  48.0430  48.2008  48.8611
    49.2117  52.9423  55.0761  55.0980  55.1339  59.6519  67.7325  67.9058
    74.1692  76.1198

          k = 0.0833 0.2500-0.5000 (   930 PWs)   bands (ev):

    36.5166  36.5168  36.6832  36.6834  39.5513  39.5514  39.7219  39.7222
    41.8865  41.8865  42.7623  42.7624  46.5580  46.5580  48.0708  48.0709
    50.8288  50.8289  54.9352  54.9354  57.3103  57.3103  67.9830  67.9830
    75.3426  75.8760

          k = 0.0833 0.3333 0.3333 (   938 PWs)   bands (ev):

    34.6021  36.3467  36.3468  37.2112  38.0671  38.0672  40.5080  40.9166
    42.5155  42.5158  43.3865  44.1136  45.0960  47.1983  47.8698  49.2845
    49.2846  53.9639  53.9639  54.3635  55.1902  64.4607  64.4608  66.6392
    73.3027  76.6534

          k = 0.0833 0.3333 0.4167 (   936 PWs)   bands (ev):

    35.5563  37.0514  37.3705  37.7307  38.3159  39.1714  40.8061  40.8633
    41.7106  42.1836  42.6001  44.2515  44.8167  47.0579  47.6629  48.1249
    48.2997  52.0441  53.3428  53.5000  57.4726  62.1447  65.9116  66.3600
    73.8164  76.6093

          k = 0.0833 0.3333-0.5000 (   938 PWs)   bands (ev):

    36.8170  36.8171  37.3716  37.3718  39.6641  39.6641  40.4049  40.4049
    41.5714  41.5717  43.3165  43.3165  46.0914  46.0915  47.2839  47.2841
    49.9691  49.9691  53.1593  53.1595  59.8203  59.8204  66.3765  66.3765
    74.8683  74.8686

          k = 0.0833 0.4167 0.4167 (   941 PWs)   bands (ev):

    36.1915  37.5824  38.0188  38.0189  38.8670  38.8671  40.4957  40.7916
    42.4991  42.4992  43.7328  44.4206  44.5148  46.0591  46.9135  46.9136
    48.2162  51.4252  51.4253  52.1671  59.8727  64.0926  64.0928  65.7542
    74.1718  75.9957

          k = 0.0833 0.4167-0.5000 (   938 PWs)   bands (ev):

    37.1363  37.1363  37.7714  37.7714  39.8542  39.8543  39.9058  39.9058
    43.1762  43.1764  43.9262  43.9263  45.4727  45.4729  46.0918  46.0919
    49.5319  49.5319  51.4147  51.4149  62.1142  62.1143  65.2362  65.2363
    75.0617  75.0620

          k = 0.0833-0.5000-0.5000 (   952 PWs)   bands (ev):

    37.5296  37.5296  37.5297  37.5298  39.9231  39.9233  39.9233  39.9234
    44.4679  44.4682  44.4682  44.4683  44.9305  44.9305  44.9306  44.9310
    50.0321  50.0323  50.0324  50.0324  63.9391  63.9391  63.9392  63.9393
    75.6439  75.6439

          k = 0.1667 0.1667 0.1667 (   943 PWs)   bands (ev):

    32.6303  32.6304  32.6304  34.9803  34.9804  34.9804  35.6883  41.2529
    42.7987  42.7987  49.3041  49.3041  49.9831  49.9831  49.9834  51.6795
    51.6796  51.6796  58.2025  58.2027  58.2027  66.4972  66.4973  66.4973
    72.5411  73.6460

          k = 0.1667 0.1667 0.2500 (   932 PWs)   bands (ev):

    33.2787  33.2788  33.3822  35.6507  35.9994  36.4776  36.4777  41.3505
    43.1608  43.2003  47.6503  47.6504  48.1655  48.5976  50.1011  50.3417
    50.6907  50.6909  57.6273  57.6274  58.0138  63.3314  68.2997  68.2998
    72.3184  72.6203

          k = 0.1667 0.1667 0.3333 (   943 PWs)   bands (ev):

    34.2651  34.3487  34.3489  36.3026  36.6597  38.0155  38.0157  41.1259
    43.0784  43.8182  45.2309  45.2309  46.2179  48.5187  48.9869  49.6831
    49.6833  51.6541  56.8304  56.8306  57.2780  59.9727  69.7621  69.7624
    72.2419  72.2419

          k = 0.1667 0.1667 0.4167 (   935 PWs)   bands (ev):

    35.1386  35.6818  35.6820  36.3101  38.0176  38.9151  38.9153  40.8536
    42.3669  43.6560  43.6562  44.3876  44.6691  47.0474  48.4819  48.4820
    50.8648  53.1361  56.1044  56.2663  56.2665  56.6580  70.6552  70.6555
    72.1507  72.1509

          k = 0.1667 0.1667-0.5000 (   926 PWs)   bands (ev):

    35.8754  35.8756  36.5508  36.5510  38.7713  38.7715  39.5902  39.5905
    42.9261  42.9261  43.3844  43.3845  45.7517  45.7517  47.8262  47.8263
    53.5561  53.5561  54.6674  54.6675  56.0773  56.0775  70.9992  70.9993
    72.0773  72.0775

          k = 0.1667 0.2500 0.2500 (   936 PWs)   bands (ev):

    33.6260  33.9750  33.9751  35.8736  37.0584  37.0585  37.9232  42.2285
    43.0428  43.4438  46.1166  46.1169  46.8938  48.7376  48.9392  49.2741
    49.2741  50.9667  57.2424  57.5851  57.5852  65.2252  65.2253  68.4903
    71.4800  72.3306

          k = 0.1667 0.2500 0.3333 (   940 PWs)   bands (ev):

    34.4153  34.7579  35.0046  35.9145  37.9407  38.2831  39.1430  42.1701
    43.2595  43.6233  44.2186  44.6329  45.4590  47.7365  47.9808  48.6490
    49.1688  52.5717  56.4169  56.6295  56.8697  62.0467  67.0136  68.2663
    71.3840  73.0069

          k = 0.1667 0.2500 0.4167 (   937 PWs)   bands (ev):

    35.4380  35.5894  35.9785  36.3646  38.3753  39.1606  39.2723  41.8523
    42.6064  43.4016  43.7128  44.1114  44.6980  46.2910  47.1950  47.8038
    50.9053  54.5044  55.3622  55.6586  55.7753  59.1381  68.1414  68.3173
    72.0141  73.2871

          k = 0.1667 0.2500-0.5000 (   942 PWs)   bands (ev):

    35.8594  35.8596  36.9221  36.9223  38.1670  38.1671  40.6281  40.6282
    42.6138  42.6139  44.4129  44.4129  45.0594  45.0594  46.9983  46.9985
    53.2094  53.2094  55.4041  55.4043  56.6593  56.6593  68.4532  68.4533
    73.2654  73.2655

          k = 0.1667 0.3333 0.3333 (   952 PWs)   bands (ev):

    34.8719  35.6589  35.6590  35.7953  38.7280  38.7280  39.8496  42.1143
    43.0933  43.5099  43.5100  44.6171  45.6041  46.5815  47.3002  47.3002
    49.0195  54.5344  55.6364  55.8594  55.8595  64.1581  64.1582  67.0527
    71.0331  73.9845

          k = 0.1667 0.3333 0.4167 (   946 PWs)   bands (ev):

    35.7058  35.8733  36.0175  36.8381  38.2385  39.4881  39.5684  41.4721
    43.2556  43.2932  43.9068  44.7598  45.7293  45.8237  45.9704  46.8087
    50.1766  54.3074  54.7908  54.9122  56.7977  61.5642  65.6484  66.5785
    71.4731  74.2530

          k = 0.1667 0.3333-0.5000 (   946 PWs)   bands (ev):

    36.0170  36.0171  36.8056  36.8056  38.4478  38.4479  40.5042  40.5043
    43.3673  43.3675  44.9691  44.9693  44.9864  44.9865  46.2180  46.2181
    52.2320  52.2321  54.4666  54.4668  59.1482  59.1482  66.3391  66.3391
    72.5642  72.5643

          k = 0.1667 0.4167 0.4167 (   950 PWs)   bands (ev):

    35.9547  36.0616  36.5766  36.5766  39.0601  39.0602  39.5471  40.9983
    43.1785  43.9559  43.9561  44.8004  45.9217  46.0524  46.0524  46.4607
    50.1528  53.4055  53.4055  53.7332  59.1749  63.5087  63.5088  65.6008
    71.7380  73.9074

          k = 0.1667 0.4167-0.5000 (   948 PWs)   bands (ev):

    36.2014  36.2014  36.5234  36.5235  39.1523  39.1525  40.1314  40.1315
    43.5380  43.5381  44.3370  44.3372  46.0136  46.0138  46.5134  46.5135
    51.5385  51.5385  53.1104  53.1105  61.4209  61.4210  64.7909  64.7909
    72.6760  72.6764

          k = 0.1667-0.5000-0.5000 (   944 PWs)   bands (ev):

    36.3442  36.3442  36.3442  36.3443  39.7548  39.7549  39.7549  39.7551
    43.6784  43.6784  43.6785  43.6788  46.7451  46.7454  46.7454  46.7454
    51.8198  51.8199  51.8199  51.8199  63.2897  63.2897  63.2898  63.2899
    73.3827  73.3828

          k = 0.2500 0.2500 0.2500 (   946 PWs)   bands (ev):

    34.2210  34.2211  34.2211  35.3625  38.3015  38.3017  38.3017  42.8340
    42.8340  44.3479  45.8160  45.8160  45.8163  47.4598  47.4599  47.4599
    50.3369  50.3369  57.7963  57.7965  57.7965  65.9280  65.9282  65.9282
    70.2724  73.3877

          k = 0.2500 0.2500 0.3333 (   951 PWs)   bands (ev):

    34.8196  34.8933  34.8934  35.1633  38.8863  39.0200  39.0202  42.3802
    42.8934  44.8746  45.0723  45.0724  45.2420  46.0666  46.7793  46.7794
    50.7365  52.1185  57.1104  57.1105  57.7147  62.5206  66.7050  66.7051
    69.9124  72.9154

          k = 0.2500 0.2500 0.4167 (   945 PWs)   bands (ev):

    35.1903  35.1995  35.9292  35.9293  38.5767  38.5769  39.7262  41.6740
    43.2540  44.3438  44.8664  44.8876  45.1100  45.1101  46.4211  46.4212
    52.8167  53.9314  56.2035  56.2036  56.9390  59.0609  67.2850  67.2851
    70.3829  72.7330

          k = 0.2500 0.2500-0.5000 (   956 PWs)   bands (ev):

    35.2755  35.2756  36.9295  36.9296  37.6412  37.6414  40.7368  40.7368
    43.9174  43.9174  44.3752  44.3754  45.6407  45.6409  45.9910  45.9911
    55.6063  55.6063  55.7592  55.7592  55.7918  55.7919  67.5047  67.5048
    72.6461  72.6478

          k = 0.2500 0.3333 0.3333 (   945 PWs)   bands (ev):

    34.7920  35.1191  35.2272  35.2273  39.1232  39.1232  39.2790  42.2854
    42.3923  44.6614  44.6614  45.2158  45.9211  45.9212  46.2607  46.9435
    50.9961  53.6189  56.8106  57.1786  57.1787  63.7194  63.7194  66.1306
    69.3071  73.1051

          k = 0.2500 0.3333 0.4167 (   948 PWs)   bands (ev):

    34.7545  35.2009  35.6076  35.8110  38.6587  38.9293  39.6927  41.5442
    42.5856  43.8866  44.3707  44.4961  45.9304  46.7873  47.1119  47.1629
    52.3614  55.7848  56.0611  56.2167  56.3229  60.7316  64.8295  65.7773
    69.5909  72.2585

          k = 0.2500 0.3333-0.5000 (   946 PWs)   bands (ev):

    34.9517  34.9517  36.0420  36.0421  38.4393  38.4395  40.6017  40.6018
    43.1130  43.1131  44.3045  44.3047  46.4672  46.4675  47.4145  47.4146
    54.5394  54.5394  55.6970  55.6972  58.1085  58.1085  65.4730  65.4731
    70.6534  70.6540

          k = 0.2500 0.4167 0.4167 (   954 PWs)   bands (ev):

    34.6575  35.3128  35.3128  35.4575  39.2056  39.4476  39.4477  41.2770
    42.2074  43.3643  43.3644  43.5502  47.5868  47.5868  48.3318  48.5806
    52.2041  55.3081  55.3082  55.3588  58.0799  62.4433  62.4434  64.6280
    69.7040  72.1579

          k = 0.2500 0.4167-0.5000 (   950 PWs)   bands (ev):

    34.8672  34.8672  35.3986  35.3987  39.3163  39.3164  40.4419  40.4420
    42.5742  42.5744  43.1975  43.1977  48.3873  48.3876  48.6075  48.6075
    53.6349  53.6349  54.8526  54.8527  60.2748  60.2748  63.6822  63.6822
    70.6441  70.6442

          k = 0.2500-0.5000-0.5000 (   944 PWs)   bands (ev):

    35.0127  35.0127  35.0127  35.0128  40.0577  40.0577  40.0577  40.0580
    42.5505  42.5505  42.5505  42.5508  49.2111  49.2114  49.2114  49.2114
    53.7365  53.7367  53.7367  53.7367  62.0855  62.0855  62.0855  62.0856
    71.4303  71.4306

          k = 0.3333 0.3333 0.3333 (   943 PWs)   bands (ev):

    34.2176  35.0506  35.0507  35.0507  39.2485  39.2486  39.2486  42.0354
    42.0354  44.0010  44.0011  44.0011  47.0173  47.0173  47.0174  49.1869
    53.0031  53.0031  57.4531  57.4533  57.4533  63.4956  63.4958  63.4958
    68.4542  73.0874

          k = 0.3333 0.3333 0.4167 (   950 PWs)   bands (ev):

    34.0535  34.6542  35.0469  35.0470  39.1585  39.1587  39.8267  41.4738
    42.0285  43.0344  43.3307  43.3308  47.8715  48.4953  48.4953  49.6307
    54.3546  54.8774  56.8535  56.8536  57.3206  60.3497  63.6163  63.6164
    68.5550  71.2513

          k = 0.3333 0.3333-0.5000 (   954 PWs)   bands (ev):

    34.2409  34.2409  35.0731  35.0732  39.0742  39.0744  40.6747  40.6748
    42.3669  42.3670  43.1259  43.1261  48.8063  48.8066  49.1599  49.1600
    56.4001  56.4002  56.4212  56.4214  57.1940  57.1941  63.7200  63.7201
    69.5487  69.5487

          k = 0.3333 0.4167 0.4167 (   950 PWs)   bands (ev):

    33.7771  34.3728  34.3729  34.5621  39.5975  39.8840  39.8840  41.3978
    41.5676  42.4203  42.4204  42.5117  49.7482  49.7482  50.0740  51.3391
    54.1789  56.6309  56.7594  56.7636  56.7637  61.0892  61.0892  62.6337
    68.4892  71.0863

          k = 0.3333 0.4167-0.5000 (   952 PWs)   bands (ev):

    33.9036  33.9036  34.3425  34.3426  39.8394  39.8396  40.7158  40.7159
    41.8150  41.8151  42.2088  42.2089  50.7034  50.7035  50.8878  50.8881
    55.5824  55.5824  56.2625  56.2626  58.8128  58.8128  61.9199  61.9200
    69.3785  69.3786

          k = 0.3333-0.5000-0.5000 (   940 PWs)   bands (ev):

    33.9418  33.9418  33.9418  33.9419  40.4900  40.4900  40.4900  40.4903
    41.6973  41.6973  41.6973  41.6976  51.6466  51.6469  51.6469  51.6469
    55.4607  55.4608  55.4608  55.4608  60.4020  60.4020  60.4020  60.4021
    70.1200  70.1200

          k = 0.4167 0.4167 0.4167 (   940 PWs)   bands (ev):

    33.3456  33.7968  33.7969  33.7969  40.2540  40.2541  40.2541  41.2794
    41.2794  41.7646  41.7647  41.7647  51.6759  51.6760  51.6760  53.5805
    55.8510  55.8510  57.2229  57.2231  57.2231  60.1473  60.1475  60.1475
    68.2368  70.5582

          k = 0.4167 0.4167-0.5000 (   942 PWs)   bands (ev):

    33.3632  33.3632  33.6025  33.6026  40.4156  40.4157  40.8756  40.8758
    41.3472  41.3473  41.5169  41.5171  52.5972  52.5973  53.1109  53.1112
    56.9455  56.9456  56.9552  56.9553  57.5743  57.5745  59.9916  59.9917
    68.9663  68.9665

          k = 0.4167-0.5000-0.5000 (   948 PWs)   bands (ev):

    33.2648  33.2649  33.2649  33.2649  40.8515  40.8515  40.8515  40.8518
    41.1704  41.1704  41.1704  41.1707  53.9047  53.9050  53.9050  53.9050
    56.6904  56.6905  56.6905  56.6905  58.5163  58.5164  58.5164  58.5164
    69.3708  69.3708

          k =-0.5000-0.5000-0.5000 (   968 PWs)   bands (ev):

    33.0335  33.0336  33.0336  33.0336  40.9923  40.9923  40.9923  40.9923
    40.9923  40.9923  40.9925  40.9925  55.3922  55.3928  55.3928  55.3928
    57.1422  57.1422  57.1422  57.1423  57.1423  57.1424  57.1424  57.1424
    69.1194  69.1196

     the Fermi energy is    63.2681 ev

!    total energy              =   -3088.32331663 Ry

     total all-electron energy =   -152083.707681 Ry
     estimated scf accuracy    <       0.00000085 Ry
     smearing contrib. (-TS)   =      -0.12254424 Ry
     internal energy E=F+TS    =   -3088.20077239 Ry

     The total energy is F=E-TS. E is the sum of the following terms:
     one-electron contribution =     229.37067106 Ry
     hartree contribution      =       7.38525186 Ry
     xc contribution           =    -139.61403995 Ry
     ewald contribution        =    -410.99904650 Ry
     one-center paw contrib.   =   -2774.34360885 Ry

     convergence has been achieved in   6 iterations

     negative rho (up, down):  6.218E-04 0.000E+00

     Forces acting on atoms (cartesian axes, Ry/au):

     atom    1 type  1   force =     0.00000000    0.00000000    0.00000000
     atom    2 type  1   force =     0.00000000    0.00000000    0.00000000
     atom    3 type  1   force =     0.00000000   -0.00000000    0.00000000
     atom    4 type  1   force =     0.00000000    0.00000000   -0.00000000

     Total force =     0.000000     Total SCF correction =     0.000000

     Writing all to output data dir ./pwscf.save/
 
     init_run     :      0.35s CPU      0.39s WALL (       1 calls)
     electrons    :      9.25s CPU      9.57s WALL (       1 calls)
     forces       :      0.06s CPU      0.06s WALL (       1 calls)

     Called by init_run:
     wfcinit      :      0.26s CPU      0.28s WALL (       1 calls)
     potinit      :      0.06s CPU      0.06s WALL (       1 calls)
     hinit0       :      0.02s CPU      0.04s WALL (       1 calls)

     Called by electrons:
     c_bands      :      8.51s CPU      8.72s WALL (       6 calls)
     sum_band     :      0.42s CPU      0.44s WALL (       6 calls)
     v_of_rho     :      0.00s CPU      0.00s WALL (       7 calls)
     newd         :      0.01s CPU      0.01s WALL (       7 calls)
     PAW_pot      :      0.34s CPU      0.38s WALL (       7 calls)
     mix_rho      :      0.00s CPU      0.00s WALL (       6 calls)

     Called by c_bands:
     init_us_2    :      0.02s CPU      0.02s WALL (    1176 calls)
     init_us_2:cp :      0.02s CPU      0.02s WALL (    1176 calls)
     cegterg      :      8.36s CPU      8.57s WALL (     504 calls)

     Called by *egterg:
     cdiaghg      :      4.32s CPU      4.40s WALL (    4293 calls)
     h_psi        :      2.83s CPU      2.94s WALL (    4377 calls)
     s_psi        :      0.10s CPU      0.10s WALL (    4377 calls)
     g_psi        :      0.01s CPU      0.01s WALL (    3789 calls)

     Called by h_psi:
     h_psi:calbec :      0.26s CPU      0.27s WALL (    4377 calls)
     vloc_psi     :      2.44s CPU      2.54s WALL (    4377 calls)
     add_vuspsi   :      0.11s CPU      0.11s WALL (    4377 calls)

     General routines
     calbec       :      0.32s CPU      0.34s WALL (    5217 calls)
     fft          :      0.00s CPU      0.00s WALL (      88 calls)
     ffts         :      0.00s CPU      0.00s WALL (       6 calls)
     fftw         :      2.58s CPU      2.68s WALL (  122816 calls)
 
     Parallel routines
 
     PWSCF        :     10.15s CPU     11.73s WALL

 
   This run was terminated on:  12:36: 4   5Apr2024            

=------------------------------------------------------------------------------=
   JOB DONE.
=------------------------------------------------------------------------------=
