MPI startup(): Warning: I_MPI_PMI_LIBRARY will be ignored since the hydra process manager was found
MPI startup(): Warning: I_MPI_PMI_LIBRARY will be ignored since the hydra process manager was found
MPI startup(): Warning: I_MPI_PMI_LIBRARY will be ignored since the hydra process manager was found
MPI startup(): Warning: I_MPI_PMI_LIBRARY will be ignored since the hydra process manager was found
MPI startup(): Warning: I_MPI_PMI_LIBRARY will be ignored since the hydra process manager was found
MPI startup(): Warning: I_MPI_PMI_LIBRARY will be ignored since the hydra process manager was found
MPI startup(): Warning: I_MPI_PMI_LIBRARY will be ignored since the hydra process manager was found
MPI startup(): Warning: I_MPI_PMI_LIBRARY will be ignored since the hydra process manager was found
MPI startup(): Warning: I_MPI_PMI_LIBRARY will be ignored since the hydra process manager was found
MPI startup(): Warning: I_MPI_PMI_LIBRARY will be ignored since the hydra process manager was found

     Program PWSCF v.7.0 starts on  5Apr2024 at 12:35:51 

     This program is part of the open-source Quantum ESPRESSO suite
     for quantum simulation of materials; please cite
         "P. Giannozzi et al., J. Phys.:Condens. Matter 21 395502 (2009);
         "P. Giannozzi et al., J. Phys.:Condens. Matter 29 465901 (2017);
         "P. Giannozzi et al., J. Chem. Phys. 152 154105 (2020);
          URL http://www.quantum-espresso.org", 
     in publications or presentations arising from this work. More details at
     http://www.quantum-espresso.org/quote

     Parallel version (MPI), running on    10 processors

     MPI processes distributed on     1 nodes
     R & G space division:  proc/nbgrp/npool/nimage =      10
     224725 MiB available memory on the printing compute node when the environment starts
 
     Reading input from VolumeFCC_5.6.in
Warning: card &CELL ignored
Warning: card / ignored

     Current dimensions of program PWSCF are:
     Max number of different atomic species (ntypx) = 10
     Max number of k-points (npk) =  40000
     Max angular momentum in pseudopotentials (lmaxx) =  4
     file Au.pbe-n-kjpaw_psl.1.0.0.UPF: wavefunction(s)  6S 5D renormalized
     Found identity + ( -0.5000 -0.5000  0.0000) symmetry
     This is a supercell, fractional translations are disabled
     Message from routine setup:
     using ibrav=0 with symmetry is DISCOURAGED, use correct ibrav instead

     Subspace diagonalization in iterative solution of the eigenvalue problem:
     one sub-group per band group will be used
     scalapack distributed-memory algorithm (size of sub-group:  3*  3 procs)

 
     Parallelization info
     --------------------
     sticks:   dense  smooth     PW     G-vecs:    dense   smooth      PW
     Min          49      49     16                  837      837     154
     Max          50      50     17                  840      840     157
     Sum         497     497    161                 8385     8385    1551
 
     Using Slab Decomposition
 


     bravais-lattice index     =            0
     lattice parameter (alat)  =       5.5992  a.u.
     unit-cell volume          =     175.5397 (a.u.)^3
     number of atoms/cell      =            4
     number of atomic types    =            1
     number of electrons       =        44.00
     number of Kohn-Sham states=           26
     kinetic-energy cutoff     =      50.0000  Ry
     charge density cutoff     =     200.0000  Ry
     scf convergence threshold =      1.0E-06
     mixing beta               =       0.7000
     number of iterations used =            8  plain     mixing
     Exchange-correlation= SLA  PW   PBX  PBC
                           (   1   4   3   4   0   0   0)

     celldm(1)=   5.599189  celldm(2)=   0.000000  celldm(3)=   0.000000
     celldm(4)=   0.000000  celldm(5)=   0.000000  celldm(6)=   0.000000

     crystal axes: (cart. coord. in units of alat)
               a(1) = (   1.000000   0.000000   0.000000 )  
               a(2) = (   0.000000   1.000000   0.000000 )  
               a(3) = (   0.000000   0.000000   1.000000 )  

     reciprocal axes: (cart. coord. in units 2 pi/alat)
               b(1) = (  1.000000  0.000000  0.000000 )  
               b(2) = (  0.000000  1.000000  0.000000 )  
               b(3) = (  0.000000  0.000000  1.000000 )  


     PseudoPot. # 1 for Au read from file:
     ./Au.pbe-n-kjpaw_psl.1.0.0.UPF
     MD5 check sum: 4db85c736373c707a97ce4c36c2a9d23
     Pseudo is Projector augmented-wave + core cor, Zval = 11.0
     Generated using &quot;atomic&quot; code by A. Dal Corso  v.6.3
     Shape of augmentation charge: PSQ
     Using radial grid of 1279 points,  6 beta functions with: 
                l(1) =   0
                l(2) =   0
                l(3) =   1
                l(4) =   1
                l(5) =   2
                l(6) =   2
     Q(r) pseudized with 0 coefficients 


     atomic species   valence    mass     pseudopotential
        Au            11.00   196.96657     Au( 1.00)

     48 Sym. Ops., with inversion, found



   Cartesian axes

     site n.     atom                  positions (alat units)
         1           Au  tau(   1) = (   0.0000000   0.0000000   0.0000000  )
         2           Au  tau(   2) = (   0.5000000   0.5000000   0.0000000  )
         3           Au  tau(   3) = (   0.5000000   0.0000000   0.5000000  )
         4           Au  tau(   4) = (   0.0000000   0.5000000   0.5000000  )

     number of k points=    84  Gaussian smearing, width (Ry)=  0.2000
                       cart. coord. in units 2pi/alat
        k(    1) = (   0.0000000   0.0000000   0.0000000), wk =   0.0011574
        k(    2) = (   0.0000000   0.0000000   0.0833333), wk =   0.0069444
        k(    3) = (   0.0000000   0.0000000   0.1666667), wk =   0.0069444
        k(    4) = (   0.0000000   0.0000000   0.2500000), wk =   0.0069444
        k(    5) = (   0.0000000   0.0000000   0.3333333), wk =   0.0069444
        k(    6) = (   0.0000000   0.0000000   0.4166667), wk =   0.0069444
        k(    7) = (   0.0000000   0.0000000  -0.5000000), wk =   0.0034722
        k(    8) = (   0.0000000   0.0833333   0.0833333), wk =   0.0138889
        k(    9) = (   0.0000000   0.0833333   0.1666667), wk =   0.0277778
        k(   10) = (   0.0000000   0.0833333   0.2500000), wk =   0.0277778
        k(   11) = (   0.0000000   0.0833333   0.3333333), wk =   0.0277778
        k(   12) = (   0.0000000   0.0833333   0.4166667), wk =   0.0277778
        k(   13) = (   0.0000000   0.0833333  -0.5000000), wk =   0.0138889
        k(   14) = (   0.0000000   0.1666667   0.1666667), wk =   0.0138889
        k(   15) = (   0.0000000   0.1666667   0.2500000), wk =   0.0277778
        k(   16) = (   0.0000000   0.1666667   0.3333333), wk =   0.0277778
        k(   17) = (   0.0000000   0.1666667   0.4166667), wk =   0.0277778
        k(   18) = (   0.0000000   0.1666667  -0.5000000), wk =   0.0138889
        k(   19) = (   0.0000000   0.2500000   0.2500000), wk =   0.0138889
        k(   20) = (   0.0000000   0.2500000   0.3333333), wk =   0.0277778
        k(   21) = (   0.0000000   0.2500000   0.4166667), wk =   0.0277778
        k(   22) = (   0.0000000   0.2500000  -0.5000000), wk =   0.0138889
        k(   23) = (   0.0000000   0.3333333   0.3333333), wk =   0.0138889
        k(   24) = (   0.0000000   0.3333333   0.4166667), wk =   0.0277778
        k(   25) = (   0.0000000   0.3333333  -0.5000000), wk =   0.0138889
        k(   26) = (   0.0000000   0.4166667   0.4166667), wk =   0.0138889
        k(   27) = (   0.0000000   0.4166667  -0.5000000), wk =   0.0138889
        k(   28) = (   0.0000000  -0.5000000  -0.5000000), wk =   0.0034722
        k(   29) = (   0.0833333   0.0833333   0.0833333), wk =   0.0092593
        k(   30) = (   0.0833333   0.0833333   0.1666667), wk =   0.0277778
        k(   31) = (   0.0833333   0.0833333   0.2500000), wk =   0.0277778
        k(   32) = (   0.0833333   0.0833333   0.3333333), wk =   0.0277778
        k(   33) = (   0.0833333   0.0833333   0.4166667), wk =   0.0277778
        k(   34) = (   0.0833333   0.0833333  -0.5000000), wk =   0.0138889
        k(   35) = (   0.0833333   0.1666667   0.1666667), wk =   0.0277778
        k(   36) = (   0.0833333   0.1666667   0.2500000), wk =   0.0555556
        k(   37) = (   0.0833333   0.1666667   0.3333333), wk =   0.0555556
        k(   38) = (   0.0833333   0.1666667   0.4166667), wk =   0.0555556
        k(   39) = (   0.0833333   0.1666667  -0.5000000), wk =   0.0277778
        k(   40) = (   0.0833333   0.2500000   0.2500000), wk =   0.0277778
        k(   41) = (   0.0833333   0.2500000   0.3333333), wk =   0.0555556
        k(   42) = (   0.0833333   0.2500000   0.4166667), wk =   0.0555556
        k(   43) = (   0.0833333   0.2500000  -0.5000000), wk =   0.0277778
        k(   44) = (   0.0833333   0.3333333   0.3333333), wk =   0.0277778
        k(   45) = (   0.0833333   0.3333333   0.4166667), wk =   0.0555556
        k(   46) = (   0.0833333   0.3333333  -0.5000000), wk =   0.0277778
        k(   47) = (   0.0833333   0.4166667   0.4166667), wk =   0.0277778
        k(   48) = (   0.0833333   0.4166667  -0.5000000), wk =   0.0277778
        k(   49) = (   0.0833333  -0.5000000  -0.5000000), wk =   0.0069444
        k(   50) = (   0.1666667   0.1666667   0.1666667), wk =   0.0092593
        k(   51) = (   0.1666667   0.1666667   0.2500000), wk =   0.0277778
        k(   52) = (   0.1666667   0.1666667   0.3333333), wk =   0.0277778
        k(   53) = (   0.1666667   0.1666667   0.4166667), wk =   0.0277778
        k(   54) = (   0.1666667   0.1666667  -0.5000000), wk =   0.0138889
        k(   55) = (   0.1666667   0.2500000   0.2500000), wk =   0.0277778
        k(   56) = (   0.1666667   0.2500000   0.3333333), wk =   0.0555556
        k(   57) = (   0.1666667   0.2500000   0.4166667), wk =   0.0555556
        k(   58) = (   0.1666667   0.2500000  -0.5000000), wk =   0.0277778
        k(   59) = (   0.1666667   0.3333333   0.3333333), wk =   0.0277778
        k(   60) = (   0.1666667   0.3333333   0.4166667), wk =   0.0555556
        k(   61) = (   0.1666667   0.3333333  -0.5000000), wk =   0.0277778
        k(   62) = (   0.1666667   0.4166667   0.4166667), wk =   0.0277778
        k(   63) = (   0.1666667   0.4166667  -0.5000000), wk =   0.0277778
        k(   64) = (   0.1666667  -0.5000000  -0.5000000), wk =   0.0069444
        k(   65) = (   0.2500000   0.2500000   0.2500000), wk =   0.0092593
        k(   66) = (   0.2500000   0.2500000   0.3333333), wk =   0.0277778
        k(   67) = (   0.2500000   0.2500000   0.4166667), wk =   0.0277778
        k(   68) = (   0.2500000   0.2500000  -0.5000000), wk =   0.0138889
        k(   69) = (   0.2500000   0.3333333   0.3333333), wk =   0.0277778
        k(   70) = (   0.2500000   0.3333333   0.4166667), wk =   0.0555556
        k(   71) = (   0.2500000   0.3333333  -0.5000000), wk =   0.0277778
        k(   72) = (   0.2500000   0.4166667   0.4166667), wk =   0.0277778
        k(   73) = (   0.2500000   0.4166667  -0.5000000), wk =   0.0277778
        k(   74) = (   0.2500000  -0.5000000  -0.5000000), wk =   0.0069444
        k(   75) = (   0.3333333   0.3333333   0.3333333), wk =   0.0092593
        k(   76) = (   0.3333333   0.3333333   0.4166667), wk =   0.0277778
        k(   77) = (   0.3333333   0.3333333  -0.5000000), wk =   0.0138889
        k(   78) = (   0.3333333   0.4166667   0.4166667), wk =   0.0277778
        k(   79) = (   0.3333333   0.4166667  -0.5000000), wk =   0.0277778
        k(   80) = (   0.3333333  -0.5000000  -0.5000000), wk =   0.0069444
        k(   81) = (   0.4166667   0.4166667   0.4166667), wk =   0.0092593
        k(   82) = (   0.4166667   0.4166667  -0.5000000), wk =   0.0138889
        k(   83) = (   0.4166667  -0.5000000  -0.5000000), wk =   0.0069444
        k(   84) = (  -0.5000000  -0.5000000  -0.5000000), wk =   0.0011574

     Dense  grid:     8385 G-vectors     FFT dimensions: (  25,  25,  25)

     Estimated max dynamical RAM per process >       7.77 MB

     Estimated total dynamical RAM >      77.70 MB

     Initial potential from superposition of free atoms

     starting charge      43.9996, renormalised to      44.0000
     Starting wfcs are   36 randomized atomic wfcs
     Checking if some PAW data can be deallocated... 

     total cpu time spent up to now is        0.8 secs

     Self-consistent Calculation

     iteration #  1     ecut=    50.00 Ry     beta= 0.70
     Davidson diagonalization with overlap
     ethr =  1.00E-02,  avg # of iterations =  6.9

     total cpu time spent up to now is        2.5 secs

     total energy              =   -3091.37568460 Ry
     estimated scf accuracy    <       0.46305865 Ry

     iteration #  2     ecut=    50.00 Ry     beta= 0.70
     Davidson diagonalization with overlap
     ethr =  1.05E-03,  avg # of iterations =  5.6

     total cpu time spent up to now is        4.3 secs

     total energy              =   -3091.77137298 Ry
     estimated scf accuracy    <       0.02849945 Ry

     iteration #  3     ecut=    50.00 Ry     beta= 0.70
     Davidson diagonalization with overlap
     c_bands:  1 eigenvalues not converged
     c_bands:  1 eigenvalues not converged
     c_bands:  1 eigenvalues not converged
     c_bands:  2 eigenvalues not converged
     ethr =  6.48E-05,  avg # of iterations =  7.9

     total cpu time spent up to now is        6.3 secs

     total energy              =   -3091.78909810 Ry
     estimated scf accuracy    <       0.00301876 Ry

     iteration #  4     ecut=    50.00 Ry     beta= 0.70
     Davidson diagonalization with overlap
     c_bands:  1 eigenvalues not converged
     c_bands:  1 eigenvalues not converged
     c_bands:  1 eigenvalues not converged
     c_bands:  2 eigenvalues not converged
     c_bands:  1 eigenvalues not converged
     c_bands:  1 eigenvalues not converged
     c_bands:  1 eigenvalues not converged
     ethr =  6.86E-06,  avg # of iterations =  8.3

     total cpu time spent up to now is        8.4 secs

     total energy              =   -3091.79081964 Ry
     estimated scf accuracy    <       0.00031071 Ry

     iteration #  5     ecut=    50.00 Ry     beta= 0.70
     Davidson diagonalization with overlap
     c_bands:  1 eigenvalues not converged
     c_bands:  1 eigenvalues not converged
     c_bands:  1 eigenvalues not converged
     c_bands:  2 eigenvalues not converged
     c_bands:  1 eigenvalues not converged
     c_bands:  1 eigenvalues not converged
     ethr =  7.06E-07,  avg # of iterations =  6.5

     total cpu time spent up to now is       10.2 secs

     total energy              =   -3091.79097720 Ry
     estimated scf accuracy    <       0.00001833 Ry

     iteration #  6     ecut=    50.00 Ry     beta= 0.70
     Davidson diagonalization with overlap
     c_bands:  1 eigenvalues not converged
     c_bands:  1 eigenvalues not converged
     ethr =  4.17E-08,  avg # of iterations =  6.8

     total cpu time spent up to now is       12.3 secs

     End of self-consistent calculation

          k = 0.0000 0.0000 0.0000 (  1021 PWs)   bands (ev):

    27.7706  27.7709  27.7709  28.5553  28.6816  28.6816  28.6816  37.2903
    37.2903  37.2903  44.5729  44.5729  50.5203  50.5203  50.5207  52.3317
    52.3317  52.3317  52.3318  52.3318  52.3318  54.1402  54.1402  54.1402
    63.6013  67.5613

          k = 0.0000 0.0000 0.0833 (  1029 PWs)   bands (ev):

    27.9441  27.9744  27.9746  28.7846  28.8036  28.9134  28.9134  37.0583
    37.4573  37.4573  44.2624  44.6553  50.0350  50.0352  50.1311  50.1311
    50.3920  51.7868  51.7868  52.3336  52.3337  53.4070  56.2732  56.2732
    64.0497  67.4464

          k = 0.0000 0.0000 0.1667 (  1049 PWs)   bands (ev):

    28.4550  28.5653  28.5654  29.0915  29.5194  29.6003  29.6003  36.4127
    37.9548  37.9548  43.4042  44.8998  47.2203  47.2203  48.7072  48.7074
    50.0232  50.3927  50.3927  51.4970  52.3388  52.3389  58.9706  58.9706
    65.3427  67.2475

          k = 0.0000 0.0000 0.2500 (  1049 PWs)   bands (ev):

    29.2684  29.4784  29.4785  29.5949  30.5990  30.7254  30.7254  35.4744
    38.7697  38.7697  42.2161  44.3120  44.3120  45.2975  46.8602  46.8604
    48.5691  48.5691  48.9489  49.4590  52.3460  52.3460  61.4889  61.4889
    67.1552  67.1554

          k = 0.0000 0.0000 0.3333 (  1048 PWs)   bands (ev):

    30.2849  30.3172  30.5701  30.5702  31.7943  32.2550  32.2550  34.3787
    39.8818  39.8818  41.0859  41.4916  41.4916  44.9063  44.9064  45.8328
    46.2021  46.6101  46.6101  48.7605  52.3532  52.3533  63.6930  63.6930
    67.1995  67.1998

          k = 0.0000 0.0000 0.4167 (  1056 PWs)   bands (ev):

    31.1439  31.4609  31.5555  31.5556  32.5777  33.2395  34.1467  34.1467
    38.8196  38.8196  40.6596  41.2630  41.2630  43.3286  43.3287  43.6049
    44.6812  44.6812  46.4830  47.9930  52.3585  52.3585  65.4640  65.4645
    67.2982  67.2986

          k = 0.0000 0.0000-0.5000 (  1044 PWs)   bands (ev):

    31.9797  31.9797  32.1418  32.1419  32.3940  32.3942  36.3526  36.3526
    36.3528  36.3528  41.5657  41.5658  42.6953  42.6954  42.8780  42.8780
    42.8782  42.8782  47.2167  47.2168  52.3604  52.3605  66.7147  66.7147
    66.7149  66.7152

          k = 0.0000 0.0833 0.0833 (  1041 PWs)   bands (ev):

    28.1213  28.1477  28.1479  29.0145  29.0145  29.0417  29.1924  36.9733
    37.4886  37.6140  44.1612  44.5543  49.1363  49.2537  49.2538  49.6080
    50.2659  50.2661  51.7878  51.7878  51.9892  55.5700  55.5701  57.5527
    64.4804  66.1905

          k = 0.0000 0.0833 0.1667 (  1049 PWs)   bands (ev):

    28.5914  28.6594  28.7396  29.3151  29.6965  29.7289  29.9773  36.4199
    37.9234  38.0716  43.4179  44.7628  46.4695  46.8080  47.8248  48.4104
    48.9431  49.9115  50.3906  51.7900  51.8038  53.8034  58.2649  59.8764
    65.1965  65.7239

          k = 0.0000 0.0833 0.2500 (  1041 PWs)   bands (ev):

    29.3964  29.4745  29.6538  29.8102  30.7705  30.8117  31.1676  35.5303
    38.7292  38.7693  42.3380  43.6338  44.1203  45.2152  45.9907  46.6921
    47.1792  48.5622  49.0829  51.6501  51.7627  51.7920  60.7256  62.2516
    64.6473  67.4676

          k = 0.0000 0.0833 0.3333 (  1049 PWs)   bands (ev):

    30.4545  30.4869  30.5268  30.7453  31.9424  32.3264  32.6648  34.4748
    39.4198  39.8426  40.9307  41.4088  41.6004  43.9641  44.8380  45.2510
    45.8405  46.5970  47.6329  49.8142  51.7603  51.7919  62.7029  64.3947
    64.4603  67.6128

          k = 0.0000 0.0833 0.4167 (  1055 PWs)   bands (ev):

    31.3260  31.5182  31.6747  31.7169  32.7509  33.3704  34.1977  34.3753
    38.4548  38.8006  39.5848  41.2290  41.9620  42.2280  43.3501  43.6064
    44.6611  45.6829  46.6126  48.5364  51.7694  51.7880  63.9200  64.4530
    66.1442  68.1242

          k = 0.0000 0.0833-0.5000 (  1050 PWs)   bands (ev):

    32.0730  32.0730  32.3010  32.3010  32.6032  32.6033  36.2771  36.2772
    36.3750  36.3752  40.3320  40.3320  42.8374  42.8375  42.8507  42.8509
    43.7719  43.7720  47.5103  47.5104  51.7800  51.7801  64.3841  64.3843
    67.3929  67.3935

          k = 0.0000 0.1667 0.1667 (  1041 PWs)   bands (ev):

    28.8434  29.2537  29.2539  29.9811  29.9811  30.3357  30.9057  36.2254
    38.0783  38.3983  43.1462  44.7331  44.9920  44.9922  45.5042  47.5276
    48.9293  48.9295  50.3841  50.3841  51.0098  56.5147  56.5148  61.8373
    63.4472  66.8273

          k = 0.0000 0.1667 0.2500 (  1045 PWs)   bands (ev):

    29.4441  30.0748  30.1715  30.4468  31.0667  31.2667  32.1731  35.6049
    38.7221  38.8078  42.2632  42.4012  43.2799  43.4762  45.2617  46.1541
    47.4494  48.3251  48.5422  50.3724  50.5690  54.3533  58.9332  62.3692
    64.0374  68.2851

          k = 0.0000 0.1667 0.3333 (  1050 PWs)   bands (ev):

    30.3753  31.0812  31.1390  31.2631  32.3602  32.5366  33.6095  34.7191
    38.8702  39.7613  39.7816  41.1243  41.5206  42.0326  44.5813  45.7097
    46.1697  46.5610  47.1727  50.3558  50.3886  52.2277  60.7546  61.9124
    66.1138  68.2117

          k = 0.0000 0.1667 0.4167 (  1059 PWs)   bands (ev):

    31.4874  31.8635  32.1902  32.3031  33.2336  33.7377  34.3453  34.9816
    37.6563  38.4593  38.7251  39.8827  41.1565  42.7237  43.3360  44.0734
    44.6086  45.6591  47.3378  50.3293  50.3368  50.3455  61.7071  61.8646
    67.8588  68.8204

          k = 0.0000 0.1667-0.5000 (  1068 PWs)   bands (ev):

    32.3251  32.3252  32.7637  32.7637  33.2149  33.2150  36.1613  36.1614
    36.4324  36.4325  38.6854  38.6855  42.7843  42.7844  43.0991  43.0993
    44.0715  44.0716  48.7275  48.7276  50.3227  50.3227  61.9280  61.9281
    69.1358  69.1367

          k = 0.0000 0.2500 0.2500 (  1057 PWs)   bands (ev):

    29.8250  31.0042  31.0043  31.4811  31.4812  32.0334  33.4526  35.4585
    38.8703  39.0417  40.7357  40.7358  41.9788  42.2630  45.2155  45.9734
    47.1358  47.1359  48.5122  48.5123  49.5235  56.7929  56.7930  60.8286
    66.1653  68.9161

          k = 0.0000 0.2500 0.3333 (  1054 PWs)   bands (ev):

    30.5636  32.0406  32.0940  32.1045  32.8747  32.9725  34.7888  34.9703
    38.4841  38.5926  39.2454  39.8707  40.5357  41.6730  44.0274  45.6663
    46.1975  46.5129  47.2659  48.4796  48.8936  54.6469  58.6863  60.0762
    68.2501  68.7331

          k = 0.0000 0.2500 0.4167 (  1054 PWs)   bands (ev):

    31.5969  32.7194  32.9397  33.3014  33.8863  34.2620  34.5705  35.8291
    36.8227  37.7202  37.9419  38.5344  41.1387  42.2361  43.0893  44.1754
    44.5485  44.8531  48.4593  48.5933  48.8763  52.6025  59.7316  59.9202
    68.9578  69.1056

          k = 0.0000 0.2500-0.5000 (  1060 PWs)   bands (ev):

    32.6660  32.6661  33.4797  33.4797  34.1673  34.1674  36.2319  36.2320
    36.4927  36.4928  37.2177  37.2177  42.7284  42.7285  43.1177  43.1178
    43.4234  43.4235  48.4797  48.4798  50.6739  50.6741  59.9799  59.9800
    69.6676  69.6690

          k = 0.0000 0.3333 0.3333 (  1057 PWs)   bands (ev):

    31.0836  33.2283  33.2284  33.3176  33.3177  33.6786  35.0268  35.9762
    37.2869  37.2870  38.3905  39.5325  40.3478  41.0526  43.1851  44.9445
    44.9445  46.4746  46.4747  47.7063  48.9246  56.7008  56.7008  59.0826
    68.4283  70.4092

          k = 0.0000 0.3333 0.4167 (  1051 PWs)   bands (ev):

    31.9331  33.8296  33.8606  34.4121  34.5457  34.7934  34.8383  36.2093
    36.2662  36.7742  37.5676  38.1283  41.2647  41.3382  42.4598  43.6240
    43.7170  44.5291  46.4861  46.9739  50.8252  54.7594  58.0721  58.7643
    68.7052  69.1591

          k = 0.0000 0.3333-0.5000 (  1058 PWs)   bands (ev):

    33.0289  33.0290  34.3522  34.3522  35.1264  35.1264  36.2570  36.2571
    36.4946  36.4948  36.6453  36.6453  42.3446  42.3447  42.6019  42.6021
    42.7755  42.7756  46.6155  46.6155  52.7978  52.7980  58.6371  58.6373
    69.2944  69.2958

          k = 0.0000 0.4167 0.4167 (  1047 PWs)   bands (ev):

    32.5416  34.5720  34.5722  34.6151  35.0890  35.0891  35.1490  36.2014
    36.2015  37.4011  37.5121  37.6831  40.6202  41.6803  41.9490  42.5079
    42.5080  44.6323  44.6324  45.7382  52.8569  56.5034  56.5034  58.1850
    68.8595  69.3578

          k = 0.0000 0.4167-0.5000 (  1048 PWs)   bands (ev):

    33.4356  33.4357  34.6774  34.6775  35.2300  35.2300  36.3430  36.3430
    37.0349  37.0350  37.3301  37.3301  41.2411  41.2412  41.6124  41.6125
    43.0695  43.0696  44.9847  44.9847  54.7827  54.7829  57.6103  57.6106
    69.1843  69.1876

          k = 0.0000-0.5000-0.5000 (  1056 PWs)   bands (ev):

    33.9697  33.9699  33.9699  33.9699  35.9309  35.9309  35.9310  35.9311
    37.7486  37.7487  37.7487  37.7487  40.8146  40.8148  40.8148  40.8148
    43.7771  43.7771  43.7773  43.7774  56.4103  56.4106  56.4106  56.4107
    69.3130  69.3131

          k = 0.0833 0.0833 0.0833 (  1048 PWs)   bands (ev):

    28.2899  28.2902  28.2902  29.2661  29.2966  29.2966  29.2966  36.9195
    37.6318  37.6318  44.2692  44.2692  48.6043  48.6043  48.6043  49.2385
    49.2385  49.2388  51.8140  51.8140  51.8141  56.7705  56.7705  56.7706
    64.8862  66.8561

          k = 0.0833 0.0833 0.1667 (  1046 PWs)   bands (ev):

    28.7531  28.7532  28.7838  29.6106  29.9136  30.0817  30.0817  36.4622
    38.0038  38.0574  43.4915  44.5894  46.1893  46.1894  47.2097  48.2420
    48.2717  48.2719  51.3180  51.6190  51.6190  54.8062  59.0457  59.0457
    65.8170  65.8173

          k = 0.0833 0.0833 0.2500 (  1047 PWs)   bands (ev):

    29.5435  29.5545  29.5546  30.1504  30.8939  31.2645  31.2645  35.6453
    38.6882  38.7530  42.5002  43.5080  43.5081  45.1101  45.3305  46.8134
    46.8136  46.8564  50.5684  51.4407  51.4407  52.2826  61.3608  61.3608
    65.1894  65.1898

          k = 0.0833 0.0833 0.3333 (  1051 PWs)   bands (ev):

    30.4305  30.6134  30.6134  30.9795  31.9891  32.7385  32.7385  34.6768
    39.1785  39.6990  40.8980  40.8980  42.0416  43.2769  45.0721  45.0722
    45.3002  45.8110  49.6221  49.6478  51.3468  51.3468  63.3154  63.3155
    64.9590  64.9592

          k = 0.0833 0.0833 0.4167 (  1057 PWs)   bands (ev):

    31.3200  31.6758  31.6758  32.0605  32.6493  33.7673  34.3841  34.3841
    38.5135  38.5135  39.1457  40.8680  41.3048  42.9796  43.5498  43.5500
    43.7242  46.6623  47.0735  48.6402  51.3067  51.3067  64.4001  64.4001
    65.2059  65.2061

          k = 0.0833 0.0833-0.5000 (  1052 PWs)   bands (ev):

    32.1748  32.1749  32.1976  32.1976  33.0586  33.0587  35.7656  35.7657
    36.8587  36.8588  39.7616  39.7616  42.2252  42.2253  42.9073  42.9075
    44.8019  44.8020  47.6231  47.6231  51.2959  51.2960  64.5609  64.5610
    65.5559  65.5561

          k = 0.0833 0.1667 0.1667 (  1048 PWs)   bands (ev):

    28.9911  29.2218  29.2219  30.4017  30.4017  30.4459  31.0137  36.3762
    38.1323  38.3402  43.3442  44.5070  44.8059  44.8061  45.0590  47.0270
    47.5305  47.5306  51.1551  51.1552  51.1930  57.0300  57.0301  60.7782
    64.1536  66.9019

          k = 0.0833 0.1667 0.2500 (  1047 PWs)   bands (ev):

    29.5831  29.9315  30.0096  30.9626  31.2504  31.5628  32.2691  35.8931
    38.6516  38.7614  42.2080  42.6838  43.0339  43.1174  45.0933  45.8463
    46.2309  46.5952  50.3831  50.6998  50.7019  54.5582  59.3090  62.3162
    63.5498  66.5627

          k = 0.0833 0.1667 0.3333 (  1048 PWs)   bands (ev):

    30.5098  30.7572  31.0730  31.8124  32.1398  32.9631  33.6613  35.2041
    38.7596  39.5320  39.8121  40.7591  41.3521  42.5559  44.5140  44.7088
    45.2417  46.0425  49.1477  50.3406  50.3579  52.1551  61.1291  62.3231
    64.8432  66.1521

          k = 0.0833 0.1667 0.4167 (  1053 PWs)   bands (ev):

    31.5815  31.6276  32.1380  32.6425  32.9083  34.3856  34.6079  34.8666
    37.9164  38.3100  38.6601  39.7059  40.5665  43.1907  43.3168  43.6179
    43.8192  47.2184  47.3899  50.1589  50.1678  50.1768  62.1349  62.3162
    65.9573  66.1909

          k = 0.0833 0.1667-0.5000 (  1052 PWs)   bands (ev):

    32.3166  32.3166  32.4480  32.4481  33.9631  33.9632  35.2862  35.2863
    37.3270  37.3271  38.5114  38.5114  41.7921  41.7922  42.9796  42.9797
    45.3941  45.3942  48.5792  48.5792  50.1145  50.1145  62.3794  62.3796
    66.3272  66.3275

          k = 0.0833 0.2500 0.2500 (  1047 PWs)   bands (ev):

    29.9479  30.6933  30.6934  31.7911  32.0930  32.0930  33.5210  35.9980
    38.8174  38.8567  40.7263  40.7264  41.9761  42.4096  44.6941  45.6596
    45.6597  45.7868  49.7473  49.7474  49.9131  56.9073  56.9073  61.1440
    65.0123  67.4550

          k = 0.0833 0.2500 0.3333 (  1049 PWs)   bands (ev):

    30.6724  31.4663  31.7654  32.3965  32.9184  33.3608  34.7670  35.8259
    38.5529  38.6350  39.2752  39.4318  40.3934  42.3783  43.6263  44.2805
    44.7663  47.0868  48.4512  49.1545  49.2343  54.5700  58.8013  60.4004
    66.5697  67.5459

          k = 0.0833 0.2500 0.4167 (  1050 PWs)   bands (ev):

    31.7004  32.1739  32.7984  32.8718  34.0379  34.3114  35.4876  35.6200
    37.4174  37.6815  38.0085  38.8255  40.3064  42.7820  42.8062  43.3504
    43.6364  46.7834  48.6949  48.7895  48.8102  52.4354  59.9133  60.2231
    67.3321  67.4195

          k = 0.0833 0.2500-0.5000 (  1058 PWs)   bands (ev):

    32.6920  32.6920  32.7895  32.7896  35.0395  35.0396  35.1665  35.1667
    37.2442  37.2442  37.7558  37.7559  41.4455  41.4455  42.7501  42.7503
    44.9703  44.9703  48.6732  48.6733  50.4877  50.4878  60.2364  60.2366
    67.4800  67.4803

          k = 0.0833 0.3333 0.3333 (  1047 PWs)   bands (ev):

    31.1634  32.5089  32.5089  32.7203  34.0238  34.0238  35.7547  36.2152
    37.5909  37.5910  38.4621  39.4861  39.7090  42.1434  42.6588  43.6673
    43.6674  47.7546  47.7547  48.2321  48.7367  56.6283  56.6283  59.3157
    67.2051  67.8462

          k = 0.0833 0.3333 0.4167 (  1053 PWs)   bands (ev):

    31.9804  33.0223  33.0279  33.7692  34.1457  35.0697  36.0115  36.2961
    36.8241  37.2552  37.7280  38.9665  40.0013  41.9546  42.3118  42.8288
    42.8533  46.0929  47.2857  47.4979  50.6336  54.5965  58.0454  58.9125
    68.1813  68.1909

          k = 0.0833 0.3333-0.5000 (  1052 PWs)   bands (ev):

    33.0590  33.0591  33.1802  33.1802  35.1379  35.1379  36.2485  36.2486
    36.5714  36.5715  38.1829  38.1830  41.0165  41.0165  42.0436  42.0438
    44.3427  44.3427  47.1794  47.1794  52.6081  52.6082  58.6954  58.6957
    68.0713  68.0717

          k = 0.0833 0.4167 0.4167 (  1051 PWs)   bands (ev):

    32.5070  33.2572  33.7665  33.7665  34.8732  34.8733  36.0444  36.2178
    37.4670  37.4670  38.2947  39.0849  39.7585  41.1286  41.6488  41.6488
    43.0104  45.6550  45.6551  46.3811  52.6620  56.3594  56.3595  58.2011
    67.7208  68.2718

          k = 0.0833 0.4167-0.5000 (  1042 PWs)   bands (ev):

    33.2542  33.2543  33.4940  33.4940  35.4281  35.4281  35.7246  35.7246
    37.9766  37.9766  38.6398  38.6398  40.4582  40.4582  41.0217  41.0218
    44.0861  44.0862  45.7192  45.7193  54.5957  54.5959  57.5248  57.5250
    68.3290  68.3294

          k = 0.0833-0.5000-0.5000 (  1044 PWs)   bands (ev):

    33.4442  33.4443  33.4443  33.4444  35.5991  35.5991  35.5991  35.5991
    38.8929  38.8929  38.8929  38.8929  40.1826  40.1827  40.1827  40.1828
    44.5645  44.5645  44.5647  44.5647  56.2488  56.2491  56.2491  56.2492
    68.4183  68.4187

          k = 0.1667 0.1667 0.1667 (  1057 PWs)   bands (ev):

    29.4152  29.4154  29.4154  30.7679  31.3457  31.3457  31.3457  36.6487
    38.3092  38.3092  43.8871  43.8872  43.8872  43.9135  43.9135  45.8871
    45.8871  45.8873  51.3871  51.3871  51.3872  58.4366  58.4366  58.4367
    65.7891  65.7896

          k = 0.1667 0.1667 0.2500 (  1048 PWs)   bands (ev):

    29.9768  29.9769  30.0497  31.2607  31.9279  32.5652  32.5652  36.5997
    38.5580  38.6421  41.9614  41.9614  42.3171  43.3021  44.5356  44.7915
    44.9702  44.9704  50.9221  50.9222  51.2134  55.5793  60.1779  60.1780
    64.6845  64.6848

          k = 0.1667 0.1667 0.3333 (  1044 PWs)   bands (ev):

    30.7796  30.8877  30.8878  31.7997  32.7955  33.8191  33.8191  36.2764
    38.5208  39.1608  39.9416  39.9417  40.6421  43.1771  43.4792  44.0770
    44.0772  45.8975  50.2729  50.2730  50.5950  52.6020  61.6901  61.6903
    64.1318  64.1319

          k = 0.1667 0.1667 0.4167 (  1048 PWs)   bands (ev):

    31.4724  32.0244  32.0245  32.1220  33.9299  34.5458  34.5459  35.9293
    37.9308  38.5771  38.5772  39.1069  39.8815  41.9141  43.0844  43.0846
    44.8922  47.1414  49.6180  49.7207  49.8086  49.8086  62.6483  62.6486
    63.9470  63.9471

          k = 0.1667 0.1667-0.5000 (  1064 PWs)   bands (ev):

    31.9858  31.9858  32.7880  32.7881  34.4058  34.4059  35.1411  35.1413
    38.0222  38.0222  38.2866  38.2867  40.8044  40.8045  42.5695  42.5696
    47.0899  47.0899  48.4211  48.4211  49.6514  49.6514  62.9713  62.9716
    63.9068  63.9069

          k = 0.1667 0.2500 0.2500 (  1050 PWs)   bands (ev):

    30.2889  30.5508  30.5509  31.3798  33.0899  33.0899  33.7322  37.2402
    38.5402  38.6574  40.6496  40.6497  41.2379  43.4514  43.5605  43.7505
    43.7505  45.2988  50.6118  50.8577  50.8578  57.3253  57.3253  60.7654
    63.9676  66.5833

          k = 0.1667 0.2500 0.3333 (  1050 PWs)   bands (ev):

    30.9615  31.1687  31.4125  31.6072  33.8915  34.1053  34.7143  37.3533
    38.4752  38.8563  39.0857  39.3626  40.0793  42.4449  42.6904  43.1603
    43.7295  46.6192  49.9364  50.0739  50.2229  54.4857  59.0072  60.7358
    64.4081  65.7041

          k = 0.1667 0.2500 0.4167 (  1044 PWs)   bands (ev):

    31.6612  31.8368  31.9534  32.5593  34.1757  34.8253  34.9906  37.3284
    37.6101  38.2913  38.6276  39.3919  39.4127  41.2257  42.0142  42.4425
    45.0577  48.2025  48.8892  49.3114  49.3830  51.9861  60.1599  60.6983
    64.8742  65.2187

          k = 0.1667 0.2500-0.5000 (  1048 PWs)   bands (ev):

    31.8941  31.8941  33.1201  33.1202  33.8938  33.8939  36.3024  36.3025
    37.5951  37.5951  39.1361  39.1362  40.1908  40.1908  41.8365  41.8366
    46.9927  46.9928  49.0920  49.0921  49.9518  49.9519  60.6386  60.6389
    65.0386  65.0389

          k = 0.1667 0.3333 0.3333 (  1048 PWs)   bands (ev):

    31.3443  31.6065  31.8799  31.8799  34.6034  34.6035  35.2831  37.6090
    38.4622  38.4623  38.6061  39.0403  40.1402  41.5591  41.9979  41.9980
    43.6953  48.2121  49.2882  49.3805  49.3806  56.4091  56.4091  59.6353
    65.2431  65.3658

          k = 0.1667 0.3333 0.4167 (  1047 PWs)   bands (ev):

    31.7574  32.0175  32.0622  32.7612  34.2919  35.1016  35.3991  37.1719
    38.2169  38.6195  38.8248  39.3079  40.2111  40.8447  40.8965  41.5220
    44.5862  48.0266  48.5829  48.6198  50.0837  54.1182  57.8494  59.0761
    65.5309  65.9111

          k = 0.1667 0.3333-0.5000 (  1042 PWs)   bands (ev):

    31.9622  31.9623  32.8346  32.8347  34.3275  34.3275  36.3583  36.3584
    38.3537  38.3538  39.7623  39.7624  39.8841  39.8841  40.9953  40.9954
    46.2575  46.2575  48.2902  48.2902  52.0515  52.0516  58.6594  58.6596
    66.1620  66.1623

          k = 0.1667 0.4167 0.4167 (  1041 PWs)   bands (ev):

    31.8512  32.2348  32.4490  32.4490  35.0932  35.0933  35.1801  36.7635
    38.6864  39.0298  39.0299  40.0517  40.0897  40.6756  40.6756  40.7575
    44.6620  47.3254  47.3255  47.6972  52.0889  55.8857  55.8858  58.0555
    65.6555  66.4713

          k = 0.1667 0.4167-0.5000 (  1040 PWs)   bands (ev):

    32.0945  32.0945  32.4842  32.4843  35.0377  35.0377  36.0259  36.0260
    38.9208  38.9209  39.6008  39.6009  40.3253  40.3254  40.8117  40.8118
    45.7770  45.7770  47.1491  47.1492  54.0264  54.0266  57.1542  57.1544
    66.2914  66.7385

          k = 0.1667-0.5000-0.5000 (  1032 PWs)   bands (ev):

    32.2534  32.2534  32.2534  32.2536  35.6363  35.6363  35.6363  35.6363
    39.1067  39.1069  39.1069  39.1069  40.8794  40.8794  40.8794  40.8795
    46.0804  46.0804  46.0805  46.0805  55.7168  55.7171  55.7171  55.7172
    66.6238  66.6239

          k = 0.2500 0.2500 0.2500 (  1060 PWs)   bands (ev):

    30.7549  30.7549  30.7549  31.1116  34.1115  34.1115  34.1116  38.3538
    38.3538  38.6533  40.3215  40.3217  40.3217  42.2937  42.2937  42.2938
    44.8052  44.8052  51.0522  51.0522  51.0524  58.0938  58.0939  58.0939
    65.3340  65.3343

          k = 0.2500 0.2500 0.3333 (  1038 PWs)   bands (ev):

    31.0595  31.1799  31.2980  31.2980  34.7129  34.7139  34.7139  37.9697
    38.3965  39.4472  39.5102  39.8069  39.8070  41.0993  41.6000  41.6002
    45.0417  46.3066  50.4939  50.4940  50.9715  54.9655  58.9522  58.9524
    64.7028  64.7031

          k = 0.2500 0.2500 0.4167 (  1043 PWs)   bands (ev):

    31.1768  31.3869  32.1084  32.1084  34.4113  34.4114  35.5638  37.3866
    38.6979  39.0245  39.3094  39.9256  39.9258  40.0713  41.1665  41.1667
    46.5982  47.8258  49.7567  49.7568  50.3254  51.8863  59.5767  59.5769
    64.4612  64.4614

          k = 0.2500 0.2500-0.5000 (  1042 PWs)   bands (ev):

    31.3424  31.3425  32.7663  32.7664  33.8216  33.8217  36.5424  36.5425
    38.9810  38.9811  39.2608  39.2609  40.4447  40.4448  40.7020  40.7021
    49.0287  49.0287  49.2206  49.2207  49.4245  49.4245  59.8034  59.8036
    64.3929  64.3931

          k = 0.2500 0.3333 0.3333 (  1040 PWs)   bands (ev):

    30.8047  31.4360  31.4522  31.4523  34.9652  34.9707  34.9707  37.8807
    37.9968  39.6424  39.6424  40.3895  40.6619  40.6620  40.6999  40.8244
    45.3720  47.5008  50.2520  50.5240  50.5241  56.1280  56.1281  58.6095
    63.7055  64.6701

          k = 0.2500 0.3333 0.4167 (  1048 PWs)   bands (ev):

    30.8192  31.3107  31.7494  31.8354  34.6867  34.7871  35.6056  37.2695
    38.1448  39.2013  39.5990  39.7659  40.4149  41.1586  41.1616  41.4340
    46.4147  49.2704  49.6378  49.7372  49.7741  53.4351  57.2337  58.2992
    63.8662  64.9567

          k = 0.2500 0.3333-0.5000 (  1040 PWs)   bands (ev):

    31.0318  31.0319  31.9921  31.9922  34.5287  34.5287  36.4528  36.4529
    38.5805  38.5805  39.5824  39.5825  40.7693  40.7694  41.6315  41.6316
    48.2229  48.2229  49.3311  49.3312  51.1856  51.1857  57.9342  57.9344
    65.2075  65.2084

          k = 0.2500 0.4167 0.4167 (  1043 PWs)   bands (ev):

    30.7515  31.3478  31.3479  31.5354  35.1144  35.4422  35.4423  37.0224
    37.8464  38.7924  38.7924  38.9793  41.7695  41.7696  42.3718  42.3817
    46.3995  48.9447  48.9448  49.0521  51.1906  55.0239  55.0240  57.2052
    63.8729  65.4878

          k = 0.2500 0.4167-0.5000 (  1040 PWs)   bands (ev):

    30.9455  30.9456  31.4224  31.4225  35.3013  35.3013  36.3119  36.3120
    38.1437  38.1437  38.6695  38.6696  42.3546  42.3547  42.5948  42.5948
    47.5441  47.5441  48.6151  48.6152  53.0817  53.0818  56.2387  56.2389
    64.5404  64.5407

          k = 0.2500-0.5000-0.5000 (  1036 PWs)   bands (ev):

    31.0750  31.0750  31.0750  31.0752  35.9577  35.9577  35.9578  35.9578
    38.1357  38.1358  38.1358  38.1359  43.0341  43.0341  43.0341  43.0341
    47.6943  47.6943  47.6944  47.6945  54.7270  54.7272  54.7272  54.7273
    65.0249  65.0251

          k = 0.3333 0.3333 0.3333 (  1045 PWs)   bands (ev):

    30.3517  31.2255  31.2255  31.2256  35.1389  35.1390  35.1390  37.6824
    37.6824  39.3486  39.3486  39.3487  41.3406  41.3407  41.3407  42.6692
    47.0632  47.0632  50.7695  50.7695  50.7696  56.0656  56.0658  56.0658
    62.9057  65.4130

          k = 0.3333 0.3333 0.4167 (  1036 PWs)   bands (ev):

    30.2368  30.8025  31.1466  31.1467  35.1464  35.1465  35.7535  37.2126
    37.6689  38.5218  38.7737  38.7738  42.0509  42.5777  42.5778  43.2978
    48.0264  48.6297  50.2809  50.2810  50.6524  53.1678  56.2666  56.2668
    62.9137  64.8567

          k = 0.3333 0.3333-0.5000 (  1042 PWs)   bands (ev):

    30.4165  30.4166  31.1342  31.1343  35.1186  35.1186  36.5238  36.5239
    37.9532  37.9533  38.5937  38.5939  42.7887  42.7888  43.1225  43.1225
    49.8917  49.8919  49.9324  49.9325  50.3647  50.3648  56.3898  56.3900
    63.6541  65.5453

          k = 0.3333 0.4167 0.4167 (  1040 PWs)   bands (ev):

    30.0114  30.5354  30.5355  30.7045  35.5547  35.8286  35.8287  37.1333
    37.2910  38.0014  38.0014  38.0882  43.6418  43.6418  43.9062  44.7480
    48.0576  50.0993  50.1196  50.1861  50.1862  53.9113  53.9114  55.4140
    62.7830  64.6928

          k = 0.3333 0.4167-0.5000 (  1042 PWs)   bands (ev):

    30.1258  30.1259  30.5030  30.5031  35.7894  35.7894  36.5561  36.5561
    37.4920  37.4920  37.8267  37.8268  44.4283  44.4283  44.5511  44.5512
    49.1823  49.1824  49.7915  49.7915  51.8593  51.8594  54.7272  54.7274
    63.4428  63.4430

          k = 0.3333-0.5000-0.5000 (  1048 PWs)   bands (ev):

    30.1584  30.1584  30.1584  30.1586  36.3515  36.3515  36.3516  36.3516
    37.4001  37.4002  37.4002  37.4003  45.1834  45.1834  45.1834  45.1834
    49.1308  49.1308  49.1309  49.1310  53.3026  53.3028  53.3028  53.3028
    64.0047  64.0048

          k = 0.4167 0.4167 0.4167 (  1052 PWs)   bands (ev):

    29.6510  30.0389  30.0389  30.0391  36.1540  36.1541  36.1541  37.0377
    37.0377  37.4477  37.4477  37.4478  45.3062  45.3062  45.3062  46.6577
    49.4470  49.4470  50.5792  50.5792  50.5793  53.1256  53.1258  53.1258
    62.5235  64.4508

          k = 0.4167 0.4167-0.5000 (  1046 PWs)   bands (ev):

    29.6686  29.6687  29.8722  29.8723  36.2956  36.2956  36.6951  36.6952
    37.0919  37.0920  37.2381  37.2382  46.0871  46.0872  46.4993  46.4993
    50.3485  50.3487  50.3618  50.3619  50.8062  50.8062  52.9964  52.9965
    63.1080  63.1083

          k = 0.4167-0.5000-0.5000 (  1064 PWs)   bands (ev):

    29.5858  29.5858  29.5858  29.5860  36.6696  36.6696  36.6697  36.6697
    36.9456  36.9457  36.9457  36.9458  47.1895  47.1895  47.1895  47.1895
    50.1433  50.1433  50.1435  50.1435  51.6546  51.6548  51.6548  51.6549
    63.5061  63.5062

          k =-0.5000-0.5000-0.5000 (  1064 PWs)   bands (ev):

    29.3914  29.3914  29.3914  29.3917  36.7923  36.7923  36.7923  36.7923
    36.7923  36.7924  36.7924  36.7924  48.4371  48.4371  48.4371  48.4371
    50.5121  50.5121  50.5121  50.5124  50.5124  50.5124  50.5124  50.5124
    63.3642  63.3645

     the Fermi energy is    55.7065 ev

!    total energy              =   -3091.79099799 Ry

     total all-electron energy =   -152087.175362 Ry
     estimated scf accuracy    <       0.00000023 Ry
     smearing contrib. (-TS)   =      -0.13822147 Ry
     internal energy E=F+TS    =   -3091.65277652 Ry

     The total energy is F=E-TS. E is the sum of the following terms:
     one-electron contribution =     207.19407608 Ry
     hartree contribution      =       8.50476087 Ry
     xc contribution           =    -137.63180451 Ry
     ewald contribution        =    -396.32050913 Ry
     one-center paw contrib.   =   -2773.39929983 Ry

     convergence has been achieved in   6 iterations

     Forces acting on atoms (cartesian axes, Ry/au):

     atom    1 type  1   force =     0.00000000    0.00000000    0.00000000
     atom    2 type  1   force =     0.00000000    0.00000000    0.00000000
     atom    3 type  1   force =     0.00000000    0.00000000   -0.00000000
     atom    4 type  1   force =     0.00000000    0.00000000   -0.00000000

     Total force =     0.000000     Total SCF correction =     0.000000

     Writing all to output data dir ./pwscf.save/
 
     init_run     :      0.42s CPU      0.45s WALL (       1 calls)
     electrons    :     11.25s CPU     11.57s WALL (       1 calls)
     forces       :      0.07s CPU      0.07s WALL (       1 calls)

     Called by init_run:
     wfcinit      :      0.33s CPU      0.34s WALL (       1 calls)
     potinit      :      0.06s CPU      0.07s WALL (       1 calls)
     hinit0       :      0.02s CPU      0.03s WALL (       1 calls)

     Called by electrons:
     c_bands      :     10.38s CPU     10.63s WALL (       6 calls)
     sum_band     :      0.53s CPU      0.54s WALL (       6 calls)
     v_of_rho     :      0.00s CPU      0.00s WALL (       7 calls)
     newd         :      0.01s CPU      0.01s WALL (       7 calls)
     PAW_pot      :      0.38s CPU      0.40s WALL (       7 calls)
     mix_rho      :      0.00s CPU      0.00s WALL (       6 calls)

     Called by c_bands:
     init_us_2    :      0.03s CPU      0.03s WALL (    1176 calls)
     init_us_2:cp :      0.03s CPU      0.03s WALL (    1176 calls)
     cegterg      :     10.22s CPU     10.47s WALL (     504 calls)

     Called by *egterg:
     cdiaghg      :      5.17s CPU      5.26s WALL (    4036 calls)
     h_psi        :      3.49s CPU      3.62s WALL (    4120 calls)
     s_psi        :      0.12s CPU      0.12s WALL (    4120 calls)
     g_psi        :      0.01s CPU      0.01s WALL (    3532 calls)

     Called by h_psi:
     h_psi:calbec :      0.37s CPU      0.38s WALL (    4120 calls)
     vloc_psi     :      2.98s CPU      3.08s WALL (    4120 calls)
     add_vuspsi   :      0.13s CPU      0.14s WALL (    4120 calls)

     General routines
     calbec       :      0.47s CPU      0.49s WALL (    4960 calls)
     fft          :      0.00s CPU      0.00s WALL (      88 calls)
     ffts         :      0.00s CPU      0.00s WALL (       6 calls)
     fftw         :      3.18s CPU      3.29s WALL (  122294 calls)
 
     Parallel routines
 
     PWSCF        :     12.12s CPU     13.91s WALL

 
   This run was terminated on:  12:36: 5   5Apr2024            

=------------------------------------------------------------------------------=
   JOB DONE.
=------------------------------------------------------------------------------=
