MPI startup(): Warning: I_MPI_PMI_LIBRARY will be ignored since the hydra process manager was found
MPI startup(): Warning: I_MPI_PMI_LIBRARY will be ignored since the hydra process manager was found
MPI startup(): Warning: I_MPI_PMI_LIBRARY will be ignored since the hydra process manager was found
MPI startup(): Warning: I_MPI_PMI_LIBRARY will be ignored since the hydra process manager was found
MPI startup(): Warning: I_MPI_PMI_LIBRARY will be ignored since the hydra process manager was found
MPI startup(): Warning: I_MPI_PMI_LIBRARY will be ignored since the hydra process manager was found
MPI startup(): Warning: I_MPI_PMI_LIBRARY will be ignored since the hydra process manager was found
MPI startup(): Warning: I_MPI_PMI_LIBRARY will be ignored since the hydra process manager was found
MPI startup(): Warning: I_MPI_PMI_LIBRARY will be ignored since the hydra process manager was found
MPI startup(): Warning: I_MPI_PMI_LIBRARY will be ignored since the hydra process manager was found

     Program PWSCF v.7.0 starts on  5Apr2024 at 12:35:51 

     This program is part of the open-source Quantum ESPRESSO suite
     for quantum simulation of materials; please cite
         "P. Giannozzi et al., J. Phys.:Condens. Matter 21 395502 (2009);
         "P. Giannozzi et al., J. Phys.:Condens. Matter 29 465901 (2017);
         "P. Giannozzi et al., J. Chem. Phys. 152 154105 (2020);
          URL http://www.quantum-espresso.org", 
     in publications or presentations arising from this work. More details at
     http://www.quantum-espresso.org/quote

     Parallel version (MPI), running on    10 processors

     MPI processes distributed on     1 nodes
     R & G space division:  proc/nbgrp/npool/nimage =      10
     232119 MiB available memory on the printing compute node when the environment starts
 
     Reading input from VolumeFCC_10.in
Warning: card &CELL ignored
Warning: card / ignored

     Current dimensions of program PWSCF are:
     Max number of different atomic species (ntypx) = 10
     Max number of k-points (npk) =  40000
     Max angular momentum in pseudopotentials (lmaxx) =  4
     file Au.pbe-n-kjpaw_psl.1.0.0.UPF: wavefunction(s)  6S 5D renormalized
     Found identity + (  0.5000  0.5000  0.0000) symmetry
     This is a supercell, fractional translations are disabled
     Message from routine setup:
     using ibrav=0 with symmetry is DISCOURAGED, use correct ibrav instead

     Subspace diagonalization in iterative solution of the eigenvalue problem:
     one sub-group per band group will be used
     scalapack distributed-memory algorithm (size of sub-group:  3*  3 procs)

 
     Parallelization info
     --------------------
     sticks:   dense  smooth     PW     G-vecs:    dense   smooth      PW
     Min         159     159     46                 4781     4781     744
     Max         160     160     48                 4784     4784     745
     Sum        1597    1597    465                47833    47833    7441
 
     Using Slab Decomposition
 


     bravais-lattice index     =            0
     lattice parameter (alat)  =       9.9986  a.u.
     unit-cell volume          =     999.5653 (a.u.)^3
     number of atoms/cell      =            4
     number of atomic types    =            1
     number of electrons       =        44.00
     number of Kohn-Sham states=           26
     kinetic-energy cutoff     =      50.0000  Ry
     charge density cutoff     =     200.0000  Ry
     scf convergence threshold =      1.0E-06
     mixing beta               =       0.7000
     number of iterations used =            8  plain     mixing
     Exchange-correlation= SLA  PW   PBX  PBC
                           (   1   4   3   4   0   0   0)

     celldm(1)=   9.998551  celldm(2)=   0.000000  celldm(3)=   0.000000
     celldm(4)=   0.000000  celldm(5)=   0.000000  celldm(6)=   0.000000

     crystal axes: (cart. coord. in units of alat)
               a(1) = (   1.000000   0.000000   0.000000 )  
               a(2) = (   0.000000   1.000000   0.000000 )  
               a(3) = (   0.000000   0.000000   1.000000 )  

     reciprocal axes: (cart. coord. in units 2 pi/alat)
               b(1) = (  1.000000  0.000000  0.000000 )  
               b(2) = (  0.000000  1.000000  0.000000 )  
               b(3) = (  0.000000  0.000000  1.000000 )  


     PseudoPot. # 1 for Au read from file:
     ./Au.pbe-n-kjpaw_psl.1.0.0.UPF
     MD5 check sum: 4db85c736373c707a97ce4c36c2a9d23
     Pseudo is Projector augmented-wave + core cor, Zval = 11.0
     Generated using &quot;atomic&quot; code by A. Dal Corso  v.6.3
     Shape of augmentation charge: PSQ
     Using radial grid of 1279 points,  6 beta functions with: 
                l(1) =   0
                l(2) =   0
                l(3) =   1
                l(4) =   1
                l(5) =   2
                l(6) =   2
     Q(r) pseudized with 0 coefficients 


     atomic species   valence    mass     pseudopotential
        Au            11.00   196.96657     Au( 1.00)

     48 Sym. Ops., with inversion, found



   Cartesian axes

     site n.     atom                  positions (alat units)
         1           Au  tau(   1) = (   0.0000000   0.0000000   0.0000000  )
         2           Au  tau(   2) = (   0.5000000   0.5000000   0.0000000  )
         3           Au  tau(   3) = (   0.5000000   0.0000000   0.5000000  )
         4           Au  tau(   4) = (   0.0000000   0.5000000   0.5000000  )

     number of k points=    84  Gaussian smearing, width (Ry)=  0.2000
                       cart. coord. in units 2pi/alat
        k(    1) = (   0.0000000   0.0000000   0.0000000), wk =   0.0011574
        k(    2) = (   0.0000000   0.0000000   0.0833333), wk =   0.0069444
        k(    3) = (   0.0000000   0.0000000   0.1666667), wk =   0.0069444
        k(    4) = (   0.0000000   0.0000000   0.2500000), wk =   0.0069444
        k(    5) = (   0.0000000   0.0000000   0.3333333), wk =   0.0069444
        k(    6) = (   0.0000000   0.0000000   0.4166667), wk =   0.0069444
        k(    7) = (   0.0000000   0.0000000  -0.5000000), wk =   0.0034722
        k(    8) = (   0.0000000   0.0833333   0.0833333), wk =   0.0138889
        k(    9) = (   0.0000000   0.0833333   0.1666667), wk =   0.0277778
        k(   10) = (   0.0000000   0.0833333   0.2500000), wk =   0.0277778
        k(   11) = (   0.0000000   0.0833333   0.3333333), wk =   0.0277778
        k(   12) = (   0.0000000   0.0833333   0.4166667), wk =   0.0277778
        k(   13) = (   0.0000000   0.0833333  -0.5000000), wk =   0.0138889
        k(   14) = (   0.0000000   0.1666667   0.1666667), wk =   0.0138889
        k(   15) = (   0.0000000   0.1666667   0.2500000), wk =   0.0277778
        k(   16) = (   0.0000000   0.1666667   0.3333333), wk =   0.0277778
        k(   17) = (   0.0000000   0.1666667   0.4166667), wk =   0.0277778
        k(   18) = (   0.0000000   0.1666667  -0.5000000), wk =   0.0138889
        k(   19) = (   0.0000000   0.2500000   0.2500000), wk =   0.0138889
        k(   20) = (   0.0000000   0.2500000   0.3333333), wk =   0.0277778
        k(   21) = (   0.0000000   0.2500000   0.4166667), wk =   0.0277778
        k(   22) = (   0.0000000   0.2500000  -0.5000000), wk =   0.0138889
        k(   23) = (   0.0000000   0.3333333   0.3333333), wk =   0.0138889
        k(   24) = (   0.0000000   0.3333333   0.4166667), wk =   0.0277778
        k(   25) = (   0.0000000   0.3333333  -0.5000000), wk =   0.0138889
        k(   26) = (   0.0000000   0.4166667   0.4166667), wk =   0.0138889
        k(   27) = (   0.0000000   0.4166667  -0.5000000), wk =   0.0138889
        k(   28) = (   0.0000000  -0.5000000  -0.5000000), wk =   0.0034722
        k(   29) = (   0.0833333   0.0833333   0.0833333), wk =   0.0092593
        k(   30) = (   0.0833333   0.0833333   0.1666667), wk =   0.0277778
        k(   31) = (   0.0833333   0.0833333   0.2500000), wk =   0.0277778
        k(   32) = (   0.0833333   0.0833333   0.3333333), wk =   0.0277778
        k(   33) = (   0.0833333   0.0833333   0.4166667), wk =   0.0277778
        k(   34) = (   0.0833333   0.0833333  -0.5000000), wk =   0.0138889
        k(   35) = (   0.0833333   0.1666667   0.1666667), wk =   0.0277778
        k(   36) = (   0.0833333   0.1666667   0.2500000), wk =   0.0555556
        k(   37) = (   0.0833333   0.1666667   0.3333333), wk =   0.0555556
        k(   38) = (   0.0833333   0.1666667   0.4166667), wk =   0.0555556
        k(   39) = (   0.0833333   0.1666667  -0.5000000), wk =   0.0277778
        k(   40) = (   0.0833333   0.2500000   0.2500000), wk =   0.0277778
        k(   41) = (   0.0833333   0.2500000   0.3333333), wk =   0.0555556
        k(   42) = (   0.0833333   0.2500000   0.4166667), wk =   0.0555556
        k(   43) = (   0.0833333   0.2500000  -0.5000000), wk =   0.0277778
        k(   44) = (   0.0833333   0.3333333   0.3333333), wk =   0.0277778
        k(   45) = (   0.0833333   0.3333333   0.4166667), wk =   0.0555556
        k(   46) = (   0.0833333   0.3333333  -0.5000000), wk =   0.0277778
        k(   47) = (   0.0833333   0.4166667   0.4166667), wk =   0.0277778
        k(   48) = (   0.0833333   0.4166667  -0.5000000), wk =   0.0277778
        k(   49) = (   0.0833333  -0.5000000  -0.5000000), wk =   0.0069444
        k(   50) = (   0.1666667   0.1666667   0.1666667), wk =   0.0092593
        k(   51) = (   0.1666667   0.1666667   0.2500000), wk =   0.0277778
        k(   52) = (   0.1666667   0.1666667   0.3333333), wk =   0.0277778
        k(   53) = (   0.1666667   0.1666667   0.4166667), wk =   0.0277778
        k(   54) = (   0.1666667   0.1666667  -0.5000000), wk =   0.0138889
        k(   55) = (   0.1666667   0.2500000   0.2500000), wk =   0.0277778
        k(   56) = (   0.1666667   0.2500000   0.3333333), wk =   0.0555556
        k(   57) = (   0.1666667   0.2500000   0.4166667), wk =   0.0555556
        k(   58) = (   0.1666667   0.2500000  -0.5000000), wk =   0.0277778
        k(   59) = (   0.1666667   0.3333333   0.3333333), wk =   0.0277778
        k(   60) = (   0.1666667   0.3333333   0.4166667), wk =   0.0555556
        k(   61) = (   0.1666667   0.3333333  -0.5000000), wk =   0.0277778
        k(   62) = (   0.1666667   0.4166667   0.4166667), wk =   0.0277778
        k(   63) = (   0.1666667   0.4166667  -0.5000000), wk =   0.0277778
        k(   64) = (   0.1666667  -0.5000000  -0.5000000), wk =   0.0069444
        k(   65) = (   0.2500000   0.2500000   0.2500000), wk =   0.0092593
        k(   66) = (   0.2500000   0.2500000   0.3333333), wk =   0.0277778
        k(   67) = (   0.2500000   0.2500000   0.4166667), wk =   0.0277778
        k(   68) = (   0.2500000   0.2500000  -0.5000000), wk =   0.0138889
        k(   69) = (   0.2500000   0.3333333   0.3333333), wk =   0.0277778
        k(   70) = (   0.2500000   0.3333333   0.4166667), wk =   0.0555556
        k(   71) = (   0.2500000   0.3333333  -0.5000000), wk =   0.0277778
        k(   72) = (   0.2500000   0.4166667   0.4166667), wk =   0.0277778
        k(   73) = (   0.2500000   0.4166667  -0.5000000), wk =   0.0277778
        k(   74) = (   0.2500000  -0.5000000  -0.5000000), wk =   0.0069444
        k(   75) = (   0.3333333   0.3333333   0.3333333), wk =   0.0092593
        k(   76) = (   0.3333333   0.3333333   0.4166667), wk =   0.0277778
        k(   77) = (   0.3333333   0.3333333  -0.5000000), wk =   0.0138889
        k(   78) = (   0.3333333   0.4166667   0.4166667), wk =   0.0277778
        k(   79) = (   0.3333333   0.4166667  -0.5000000), wk =   0.0277778
        k(   80) = (   0.3333333  -0.5000000  -0.5000000), wk =   0.0069444
        k(   81) = (   0.4166667   0.4166667   0.4166667), wk =   0.0092593
        k(   82) = (   0.4166667   0.4166667  -0.5000000), wk =   0.0138889
        k(   83) = (   0.4166667  -0.5000000  -0.5000000), wk =   0.0069444
        k(   84) = (  -0.5000000  -0.5000000  -0.5000000), wk =   0.0011574

     Dense  grid:    47833 G-vectors     FFT dimensions: (  45,  45,  45)

     Estimated max dynamical RAM per process >      38.93 MB

     Estimated total dynamical RAM >     389.30 MB

     Initial potential from superposition of free atoms

     starting charge      43.9996, renormalised to      44.0000
     Starting wfcs are   36 randomized atomic wfcs
     Checking if some PAW data can be deallocated... 

     total cpu time spent up to now is        1.9 secs

     Self-consistent Calculation

     iteration #  1     ecut=    50.00 Ry     beta= 0.70
     Davidson diagonalization with overlap
     ethr =  1.00E-02,  avg # of iterations =  2.0

     Threshold (ethr) on eigenvalues was too large:
     Diagonalizing with lowered threshold

     Davidson diagonalization with overlap
     ethr =  7.21E-04,  avg # of iterations =  2.5

     total cpu time spent up to now is        6.3 secs

     total energy              =   -3100.37739376 Ry
     estimated scf accuracy    <       0.33154019 Ry

     iteration #  2     ecut=    50.00 Ry     beta= 0.70
     Davidson diagonalization with overlap
     ethr =  7.54E-04,  avg # of iterations =  2.1

     total cpu time spent up to now is        9.1 secs

     total energy              =   -3100.50258260 Ry
     estimated scf accuracy    <       0.18596971 Ry

     iteration #  3     ecut=    50.00 Ry     beta= 0.70
     Davidson diagonalization with overlap
     ethr =  4.23E-04,  avg # of iterations =  1.5

     total cpu time spent up to now is       11.2 secs

     total energy              =   -3100.52906934 Ry
     estimated scf accuracy    <       0.00869398 Ry

     iteration #  4     ecut=    50.00 Ry     beta= 0.70
     Davidson diagonalization with overlap
     ethr =  1.98E-05,  avg # of iterations =  4.5

     total cpu time spent up to now is       14.7 secs

     total energy              =   -3100.53302152 Ry
     estimated scf accuracy    <       0.00242902 Ry

     iteration #  5     ecut=    50.00 Ry     beta= 0.70
     Davidson diagonalization with overlap
     ethr =  5.52E-06,  avg # of iterations =  6.4

     total cpu time spent up to now is       19.7 secs

     total energy              =   -3100.52717866 Ry
     estimated scf accuracy    <       0.03427410 Ry

     iteration #  6     ecut=    50.00 Ry     beta= 0.70
     Davidson diagonalization with overlap
     ethr =  5.52E-06,  avg # of iterations =  4.2

     total cpu time spent up to now is       23.7 secs

     total energy              =   -3100.53298905 Ry
     estimated scf accuracy    <       0.00038090 Ry

     iteration #  7     ecut=    50.00 Ry     beta= 0.70
     Davidson diagonalization with overlap
     ethr =  8.66E-07,  avg # of iterations =  5.4

     total cpu time spent up to now is       27.6 secs

     total energy              =   -3100.53314113 Ry
     estimated scf accuracy    <       0.00010625 Ry

     iteration #  8     ecut=    50.00 Ry     beta= 0.70
     Davidson diagonalization with overlap
     ethr =  2.41E-07,  avg # of iterations =  6.0

     total cpu time spent up to now is       31.9 secs

     total energy              =   -3100.53322777 Ry
     estimated scf accuracy    <       0.00002478 Ry

     iteration #  9     ecut=    50.00 Ry     beta= 0.70
     Davidson diagonalization with overlap
     c_bands:  1 eigenvalues not converged
     ethr =  5.63E-08,  avg # of iterations =  4.9

     total cpu time spent up to now is       35.9 secs

     total energy              =   -3100.53327042 Ry
     estimated scf accuracy    <       0.00014441 Ry

     iteration # 10     ecut=    50.00 Ry     beta= 0.70
     Davidson diagonalization with overlap
     ethr =  5.63E-08,  avg # of iterations =  1.2

     total cpu time spent up to now is       37.8 secs

     total energy              =   -3100.53325301 Ry
     estimated scf accuracy    <       0.00010864 Ry

     iteration # 11     ecut=    50.00 Ry     beta= 0.70
     Davidson diagonalization with overlap
     ethr =  5.63E-08,  avg # of iterations =  1.0

     total cpu time spent up to now is       39.7 secs

     total energy              =   -3100.53325147 Ry
     estimated scf accuracy    <       0.00006555 Ry

     iteration # 12     ecut=    50.00 Ry     beta= 0.70
     Davidson diagonalization with overlap
     ethr =  5.63E-08,  avg # of iterations =  1.0

     total cpu time spent up to now is       41.6 secs

     total energy              =   -3100.53323923 Ry
     estimated scf accuracy    <       0.00005710 Ry

     iteration # 13     ecut=    50.00 Ry     beta= 0.70
     Davidson diagonalization with overlap
     ethr =  5.63E-08,  avg # of iterations =  1.1

     total cpu time spent up to now is       43.5 secs

     total energy              =   -3100.53323733 Ry
     estimated scf accuracy    <       0.00002530 Ry

     iteration # 14     ecut=    50.00 Ry     beta= 0.70
     Davidson diagonalization with overlap
     ethr =  5.63E-08,  avg # of iterations =  1.0

     total cpu time spent up to now is       45.4 secs

     total energy              =   -3100.53323301 Ry
     estimated scf accuracy    <       0.00001589 Ry

     iteration # 15     ecut=    50.00 Ry     beta= 0.70
     Davidson diagonalization with overlap
     ethr =  3.61E-08,  avg # of iterations =  1.9

     total cpu time spent up to now is       47.4 secs

     total energy              =   -3100.53323207 Ry
     estimated scf accuracy    <       0.00000408 Ry

     iteration # 16     ecut=    50.00 Ry     beta= 0.70
     Davidson diagonalization with overlap
     ethr =  9.26E-09,  avg # of iterations =  5.8

     total cpu time spent up to now is       51.6 secs

     End of self-consistent calculation

          k = 0.0000 0.0000 0.0000 (  6031 PWs)   bands (ev):

    -0.3220   0.6691   0.6695   0.6695   0.6788   0.6788   0.6788   1.1250
     1.1250   1.1250   1.4479   1.4479   1.7035   1.7039   1.7039   1.7928
     1.7928   1.7928   1.7932   1.7932   1.7932   5.3271   5.3271   5.3275
     6.5209   6.5209

          k = 0.0000 0.0000 0.0833 (  5975 PWs)   bands (ev):

    -0.2808   0.6790   0.6844   0.6847   0.6861   0.6920   0.6920   1.1170
     1.1345   1.1345   1.4399   1.4522   1.6930   1.6933   1.6993   1.7637
     1.7637   1.7792   1.7792   1.7928   1.7932   4.8205   5.3229   5.3231
     6.5900   6.5900

          k = 0.0000 0.0000 0.1667 (  5963 PWs)   bands (ev):

    -0.1584   0.7064   0.7075   0.7279   0.7282   0.7315   0.7315   1.0938
     1.1626   1.1626   1.4176   1.4646   1.6620   1.6623   1.6817   1.6817
     1.6862   1.7394   1.7394   1.7929   1.7933   4.0369   5.3111   5.3114
     6.7911   6.7911

          k = 0.0000 0.0000 0.2500 (  5995 PWs)   bands (ev):

     0.0408   0.7417   0.7474   0.7936   0.7939   0.7965   0.7965   1.0571
     1.2083   1.2083   1.3868   1.4845   1.5612   1.5612   1.6134   1.6137
     1.6654   1.6779   1.6779   1.7929   1.7933   3.2816   5.2946   5.2949
     7.1082   7.1082

          k = 0.0000 0.0000 0.3333 (  5942 PWs)   bands (ev):

     0.3036   0.7867   0.7926   0.8699   0.8702   0.8859   0.8859   1.0096
     1.2698   1.2698   1.3630   1.4192   1.4192   1.5106   1.5542   1.5546
     1.6008   1.6008   1.6385   1.7930   1.7934   2.5994   5.2776   5.2779
     7.5218   7.5218

          k = 0.0000 0.0000 0.4167 (  5962 PWs)   bands (ev):

     0.5876   0.8216   0.8395   0.9367   0.9371   0.9549   0.9974   0.9974
     1.2708   1.2708   1.3441   1.3441   1.3915   1.4999   1.5003   1.5151
     1.5151   1.5411   1.6073   1.7930   1.7934   2.0170   5.2649   5.2652
     8.0125   8.0125

          k = 0.0000 0.0000-0.5000 (  5942 PWs)   bands (ev):

     0.7801   0.7807   0.8967   0.8971   0.9650   0.9654   1.1274   1.1274
     1.1276   1.1276   1.4274   1.4274   1.4276   1.4276   1.4763   1.4767
     1.5739   1.5744   1.5880   1.5882   1.7930   1.7934   5.2601   5.2605
     8.5628   8.5629

          k = 0.0000 0.0833 0.0833 (  5954 PWs)   bands (ev):

    -0.2401   0.6868   0.6941   0.6944   0.6992   0.6992   0.7174   1.1160
     1.1373   1.1435   1.4382   1.4510   1.6830   1.6849   1.6852   1.7456
     1.7532   1.7536   1.7792   1.7792   1.7827   4.8417   4.8420   5.3172
     6.6584   7.1313

          k = 0.0000 0.0833 0.1667 (  5965 PWs)   bands (ev):

    -0.1191   0.7137   0.7201   0.7219   0.7380   0.7381   0.7714   1.0964
     1.1623   1.1698   1.4192   1.4629   1.6320   1.6531   1.6582   1.6705
     1.6932   1.7264   1.7392   1.7780   1.7791   4.0760   4.8978   5.3003
     6.8574   7.2492

          k = 0.0000 0.0833 0.2500 (  5971 PWs)   bands (ev):

     0.0773   0.7535   0.7634   0.7661   0.8024   0.8040   0.8462   1.0612
     1.2075   1.2109   1.3923   1.4854   1.5255   1.5538   1.6062   1.6081
     1.6315   1.6775   1.6920   1.7773   1.7789   3.3322   4.9700   5.2738
     7.1718   7.4475

          k = 0.0000 0.0833 0.3333 (  5959 PWs)   bands (ev):

     0.3353   0.7975   0.8096   0.8397   0.8806   0.8905   0.9333   1.0151
     1.2550   1.2688   1.3846   1.3907   1.4151   1.5160   1.5356   1.5492
     1.5676   1.6002   1.6555   1.7773   1.7787   2.6608   5.0412   5.2399
     7.5825   7.7221

          k = 0.0000 0.0833 0.4167 (  5952 PWs)   bands (ev):

     0.6128   0.8404   0.8491   0.9209   0.9468   0.9618   1.0005   1.0239
     1.2517   1.2695   1.2852   1.3431   1.4465   1.4519   1.4978   1.5087
     1.5143   1.5562   1.6162   1.7776   1.7784   2.0932   5.1032   5.2003
     8.0607   8.0708

          k = 0.0000 0.0833-0.5000 (  5972 PWs)   bands (ev):

     0.8011   0.8017   0.9050   0.9054   0.9683   0.9687   1.1254   1.1256
     1.1285   1.1287   1.3496   1.3498   1.4265   1.4267   1.4788   1.4793
     1.5678   1.5682   1.6900   1.6901   1.7778   1.7782   5.1552   5.1555
     8.4456   8.4460

          k = 0.0000 0.1667 0.1667 (  5956 PWs)   bands (ev):

    -0.0029   0.7243   0.7576   0.7577   0.7663   0.7665   0.8354   1.0929
     1.1731   1.1907   1.4125   1.4712   1.5765   1.5769   1.6225   1.6264
     1.6938   1.6940   1.7387   1.7387   1.7522   4.1837   4.1839   5.2667
     7.0510   8.0897

          k = 0.0000 0.1667 0.2500 (  5968 PWs)   bands (ev):

     0.1843   0.7610   0.7888   0.8094   0.8195   0.8336   0.9156   1.0687
     1.2099   1.2204   1.3946   1.4590   1.5023   1.5052   1.5261   1.5842
     1.6458   1.6764   1.6784   1.7379   1.7394   3.4712   4.3384   5.2084
     7.3581   8.1115

          k = 0.0000 0.1667 0.3333 (  5979 PWs)   bands (ev):

     0.4269   0.8217   0.8297   0.8586   0.9042   0.9113   1.0017   1.0293
     1.2388   1.2681   1.3279   1.4005   1.4013   1.4202   1.5330   1.5553
     1.5854   1.5986   1.6483   1.7352   1.7369   2.8236   4.5157   5.1224
     7.7612   8.1417

          k = 0.0000 0.1667 0.4167 (  5956 PWs)   bands (ev):

     0.6830   0.8776   0.8941   0.9004   0.9751   0.9812   1.0094   1.0764
     1.2064   1.2309   1.2647   1.3265   1.3413   1.4654   1.4894   1.5123
     1.5231   1.6046   1.6518   1.7344   1.7358   2.2756   4.6956   5.0069
     8.1958   8.2425

          k = 0.0000 0.1667-0.5000 (  5974 PWs)   bands (ev):

     0.8593   0.8599   0.9291   0.9295   0.9732   0.9735   1.1278   1.1280
     1.1314   1.1316   1.2482   1.2484   1.4243   1.4245   1.4823   1.4827
     1.5449   1.5453   1.7346   1.7350   1.8724   1.8725   4.8626   4.8629
     8.3028   8.3031

          k = 0.0000 0.2500 0.2500 (  5942 PWs)   bands (ev):

     0.3536   0.7805   0.8467   0.8467   0.8789   0.8791   0.9970   1.0660
     1.2296   1.2371   1.3793   1.3797   1.3801   1.4648   1.5488   1.5560
     1.6412   1.6414   1.6748   1.6749   1.7029   3.6728   3.6730   5.0919
     7.6552   8.7437

          k = 0.0000 0.2500 0.3333 (  5970 PWs)   bands (ev):

     0.5652   0.8241   0.8822   0.9256   0.9329   0.9594   1.0445   1.0791
     1.2416   1.2522   1.2755   1.2923   1.3685   1.3810   1.5053   1.5876
     1.5964   1.6167   1.6516   1.6730   1.6823   3.0532   3.9139   4.9202
     8.0476   8.4388

          k = 0.0000 0.2500 0.4167 (  5983 PWs)   bands (ev):

     0.7796   0.8899   0.9233   0.9752   1.0091   1.0159   1.0229   1.1400
     1.1557   1.2082   1.2095   1.2530   1.3426   1.4334   1.4709   1.5100
     1.5265   1.5718   1.6715   1.6737   1.8146   2.5166   4.1763   4.6988
     8.2941   8.4087

          k = 0.0000 0.2500-0.5000 (  5984 PWs)   bands (ev):

     0.9369   0.9373   0.9668   0.9672   0.9702   0.9705   1.1341   1.1343
     1.1504   1.1507   1.1757   1.1760   1.4229   1.4231   1.4771   1.4776
     1.5075   1.5079   1.6710   1.6714   2.0956   2.0958   4.4439   4.4442
     8.2941   8.2943

          k = 0.0000 0.3333 0.3333 (  5992 PWs)   bands (ev):

     0.7246   0.8479   0.9529   0.9530   1.0201   1.0202   1.0493   1.1556
     1.1720   1.1725   1.2589   1.3024   1.3109   1.3530   1.4684   1.5678
     1.5679   1.5943   1.5944   1.6374   1.8038   3.3283   3.3286   4.6419
     8.2711   8.4284

          k = 0.0000 0.3333 0.4167 (  5978 PWs)   bands (ev):

     0.8707   0.8938   0.9835   1.0376   1.0386   1.0428   1.0654   1.1124
     1.1328   1.2084   1.2285   1.2334   1.3544   1.3847   1.4391   1.5089
     1.5093   1.5239   1.5941   1.6104   2.0325   2.8026   3.6378   4.3149
     8.2770   8.6991

          k = 0.0000 0.3333-0.5000 (  5988 PWs)   bands (ev):

     0.9610   0.9612   0.9855   0.9858   1.0133   1.0137   1.1334   1.1336
     1.1699   1.1704   1.1962   1.1966   1.4262   1.4265   1.4545   1.4550
     1.4578   1.4582   1.5978   1.5982   2.3644   2.3646   3.9716   3.9719
     8.4293   8.4295

          k = 0.0000 0.4167 0.4167 (  5980 PWs)   bands (ev):

     0.9150   0.9336   1.0167   1.0172   1.0531   1.0532   1.0569   1.1766
     1.1767   1.1855   1.2661   1.2831   1.3431   1.3858   1.4014   1.4659
     1.4660   1.5135   1.5137   1.5594   2.3197   3.1315   3.1319   3.9033
     8.4177   9.0688

          k = 0.0000 0.4167-0.5000 (  5984 PWs)   bands (ev):

     0.9556   0.9558   0.9774   0.9775   1.0610   1.0614   1.1239   1.1242
     1.2412   1.2417   1.2556   1.2560   1.3995   1.3999   1.4097   1.4102
     1.4406   1.4408   1.5279   1.5282   2.6869   2.6871   3.5015   3.5018
     8.6886   8.6887

          k = 0.0000-0.5000-0.5000 (  6024 PWs)   bands (ev):

     0.9609   0.9609   0.9612   0.9616   1.1001   1.1002   1.1002   1.1006
     1.3035   1.3037   1.3037   1.3045   1.3580   1.3581   1.3581   1.3590
     1.4734   1.4735   1.4735   1.4740   3.0675   3.0675   3.0676   3.0680
     9.0553   9.0555

          k = 0.0833 0.0833 0.0833 (  5959 PWs)   bands (ev):

    -0.1999   0.6949   0.6951   0.6951   0.7258   0.7260   0.7260   1.1166
     1.1453   1.1453   1.4435   1.4435   1.6734   1.6738   1.6738   1.7304
     1.7304   1.7307   1.7744   1.7747   1.7747   4.8612   4.8612   4.8615
     7.1684   7.1684

          k = 0.0833 0.0833 0.1667 (  5960 PWs)   bands (ev):

    -0.0807   0.7179   0.7211   0.7212   0.7513   0.7802   0.7803   1.1011
     1.1681   1.1691   1.4234   1.4592   1.6265   1.6266   1.6456   1.6723
     1.6725   1.6866   1.7522   1.7700   1.7704   4.1137   4.9113   4.9116
     7.2797   7.2797

          k = 0.0833 0.0833 0.2500 (  5964 PWs)   bands (ev):

     0.1122   0.7520   0.7729   0.7730   0.7917   0.8548   0.8550   1.0683
     1.2079   1.2103   1.4004   1.4843   1.5211   1.5211   1.5993   1.6171
     1.6174   1.6176   1.7199   1.7673   1.7677   3.3810   4.9731   4.9734
     7.4632   7.4633

          k = 0.0833 0.0833 0.3333 (  5956 PWs)   bands (ev):

     0.3640   0.7927   0.8409   0.8463   0.8465   0.9406   0.9408   1.0248
     1.2486   1.2600   1.3889   1.3889   1.4087   1.5170   1.5283   1.5380
     1.5581   1.5584   1.6817   1.7658   1.7662   2.7182   5.0277   5.0280
     7.7052   7.7053

          k = 0.0833 0.0833 0.4167 (  5969 PWs)   bands (ev):

     0.6314   0.8294   0.8868   0.9286   0.9289   0.9755   1.0254   1.0255
     1.2549   1.2549   1.2644   1.3232   1.4232   1.4673   1.5030   1.5034
     1.5089   1.5555   1.6401   1.7650   1.7654   2.1571   5.0634   5.0637
     7.9617   7.9620

          k = 0.0833 0.0833-0.5000 (  5976 PWs)   bands (ev):

     0.8070   0.8075   0.9270   0.9274   0.9729   0.9734   1.0901   1.0903
     1.1626   1.1627   1.3180   1.3182   1.3937   1.3939   1.4784   1.4788
     1.5971   1.5975   1.7438   1.7439   1.7648   1.7652   5.0756   5.0759
     8.0981   8.0985

          k = 0.0833 0.1667 0.1667 (  5965 PWs)   bands (ev):

     0.0327   0.7307   0.7421   0.7422   0.8064   0.8065   0.8444   1.1035
     1.1760   1.1876   1.4219   1.4646   1.5734   1.5738   1.6058   1.6096
     1.6501   1.6502   1.7508   1.7509   1.7541   4.2178   4.2180   4.9435
     7.3681   8.0615

          k = 0.0833 0.1667 0.2500 (  5966 PWs)   bands (ev):

     0.2140   0.7663   0.7730   0.7919   0.8486   0.8810   0.9241   1.0848
     1.2075   1.2175   1.4089   1.4572   1.4965   1.5029   1.5034   1.5758
     1.5988   1.6146   1.7246   1.7412   1.7429   3.5162   4.3667   4.9726
     7.5006   8.0303

          k = 0.0833 0.1667 0.3333 (  5970 PWs)   bands (ev):

     0.4452   0.8088   0.8260   0.8641   0.9014   0.9635   1.0076   1.0519
     1.2360   1.2537   1.3305   1.3815   1.4168   1.4330   1.5286   1.5299
     1.5484   1.5647   1.6904   1.7334   1.7357   2.8737   4.5348   4.9741
     7.6439   7.9725

          k = 0.0833 0.1667 0.4167 (  5974 PWs)   bands (ev):

     0.6804   0.8391   0.9044   0.9495   0.9538   1.0162   1.0289   1.0699
     1.2233   1.2245   1.2640   1.3104   1.3196   1.4517   1.4856   1.5093
     1.5196   1.6473   1.6505   1.7299   1.7313   2.3238   4.6983   4.9303
     7.7546   7.8992

          k = 0.0833 0.1667-0.5000 (  5964 PWs)   bands (ev):

     0.8243   0.8248   0.9798   0.9801   0.9882   0.9887   1.0616   1.0618
     1.1961   1.1963   1.2389   1.2391   1.3771   1.3773   1.4735   1.4740
     1.5937   1.5941   1.7292   1.7296   1.9029   1.9030   4.8356   4.8359
     7.8288   7.8291

          k = 0.0833 0.2500 0.2500 (  5963 PWs)   bands (ev):

     0.3723   0.7839   0.8189   0.8189   0.9238   0.9239   1.0037   1.0944
     1.2203   1.2358   1.3795   1.3799   1.3999   1.4517   1.5265   1.5487
     1.5795   1.5796   1.7123   1.7124   1.7139   3.7136   3.7138   4.9408
     7.5347   8.6075

          k = 0.0833 0.2500 0.3333 (  5965 PWs)   bands (ev):

     0.5634   0.8254   0.8480   0.8867   0.9800   1.0026   1.0794   1.0857
     1.2435   1.2544   1.2614   1.2948   1.3623   1.4159   1.4866   1.5174
     1.5460   1.6454   1.6766   1.6932   1.6958   3.0981   3.9503   4.8482
     7.5603   8.2967

          k = 0.0833 0.2500 0.4167 (  5977 PWs)   bands (ev):

     0.7428   0.8686   0.8889   0.9716   1.0334   1.0402   1.0729   1.1145
     1.1990   1.2102   1.2116   1.2784   1.3042   1.4428   1.4542   1.4878
     1.4992   1.6296   1.6817   1.6838   1.8194   2.5573   4.2058   4.6827
     7.6232   8.0020

          k = 0.0833 0.2500-0.5000 (  5974 PWs)   bands (ev):

     0.8501   0.8505   0.9682   0.9685   1.0617   1.0619   1.0731   1.0735
     1.1726   1.1729   1.2301   1.2303   1.3686   1.3689   1.4570   1.4575
     1.5668   1.5671   1.6788   1.6792   2.1217   2.1218   4.4588   4.4591
     7.7689   7.7691

          k = 0.0833 0.3333 0.3333 (  5977 PWs)   bands (ev):

     0.6918   0.8455   0.9060   0.9060   1.0562   1.0562   1.1045   1.1391
     1.1942   1.1945   1.2636   1.2780   1.3271   1.3999   1.4423   1.4975
     1.4975   1.6522   1.6522   1.6564   1.8032   3.3703   3.3706   4.6300
     7.5447   8.6748

          k = 0.0833 0.3333 0.4167 (  5976 PWs)   bands (ev):

     0.8020   0.8863   0.9090   0.9674   1.0506   1.1053   1.1119   1.1421
     1.1491   1.2021   1.2518   1.3017   1.3079   1.4124   1.4314   1.4505
     1.4650   1.5994   1.6304   1.6310   2.0449   2.8417   3.6779   4.3363
     7.6572   8.2456

          k = 0.0833 0.3333-0.5000 (  5976 PWs)   bands (ev):

     0.8768   0.8771   0.9434   0.9436   1.0815   1.0818   1.1069   1.1072
     1.1944   1.1949   1.2674   1.2677   1.3635   1.3638   1.4251   1.4256
     1.5307   1.5310   1.6218   1.6222   2.3926   2.3928   4.0070   4.0073
     7.8979   7.8982

          k = 0.0833 0.4167 0.4167 (  5983 PWs)   bands (ev):

     0.8522   0.8984   0.9360   0.9362   1.0768   1.0771   1.1082   1.1338
     1.2333   1.2334   1.2918   1.3340   1.3344   1.3713   1.4140   1.4141
     1.4420   1.5706   1.5707   1.5866   2.3427   3.1716   3.1720   3.9405
     7.8506   8.6018

          k = 0.0833 0.4167-0.5000 (  5978 PWs)   bands (ev):

     0.8959   0.8961   0.9221   0.9223   1.0976   1.0976   1.0976   1.0981
     1.2753   1.2758   1.3064   1.3068   1.3642   1.3646   1.3854   1.3859
     1.5009   1.5012   1.5625   1.5629   2.7204   2.7206   3.5425   3.5427
     8.1735   8.1738

          k = 0.0833-0.5000-0.5000 (  5964 PWs)   bands (ev):

     0.9079   0.9079   0.9081   0.9085   1.1003   1.1004   1.1004   1.1010
     1.3215   1.3216   1.3216   1.3224   1.3628   1.3630   1.3630   1.3637
     1.5111   1.5112   1.5112   1.5118   3.1063   3.1063   3.1064   3.1068
     8.5649   8.5650

          k = 0.1667 0.1667 0.1667 (  5953 PWs)   bands (ev):

     0.1365   0.7485   0.7486   0.7486   0.8712   0.8714   0.8714   1.1276
     1.1857   1.1857   1.4484   1.4484   1.5573   1.5573   1.5576   1.5667
     1.5671   1.5671   1.7530   1.7533   1.7533   4.3114   4.3114   4.3118
     7.9666   7.9668

          k = 0.1667 0.1667 0.2500 (  5957 PWs)   bands (ev):

     0.2985   0.7740   0.7805   0.7806   0.9149   0.9494   0.9496   1.1306
     1.2044   1.2135   1.4402   1.4492   1.4492   1.4825   1.4881   1.5100
     1.5438   1.5441   1.7419   1.7429   1.7432   3.6422   4.4421   4.4423
     7.7964   7.7966

          k = 0.1667 0.1667 0.3333 (  5982 PWs)   bands (ev):

     0.4952   0.8004   0.8363   0.8364   0.9719   1.0248   1.0250   1.1148
     1.2337   1.2338   1.3377   1.3377   1.3885   1.4470   1.5001   1.5109
     1.5113   1.5360   1.7179   1.7288   1.7292   3.0149   4.5788   4.5791
     7.5863   7.5866

          k = 0.1667 0.1667 0.4167 (  5980 PWs)   bands (ev):

     0.6797   0.8155   0.9119   0.9120   1.0355   1.0540   1.0542   1.1046
     1.2095   1.2665   1.2666   1.2743   1.2872   1.3838   1.4701   1.4705
     1.5873   1.6822   1.6898   1.7183   1.7186   2.4635   4.6851   4.6855
     7.4125   7.4128

          k = 0.1667 0.1667-0.5000 (  5964 PWs)   bands (ev):

     0.7899   0.7903   0.9950   0.9952   0.9987   0.9991   1.0894   1.0899
     1.2090   1.2092   1.2589   1.2592   1.3249   1.3252   1.4473   1.4477
     1.6373   1.6376   1.7145   1.7149   2.0141   2.0143   4.7260   4.7263
     7.3452   7.3455

          k = 0.1667 0.2500 0.2500 (  5960 PWs)   bands (ev):

     0.4238   0.7921   0.7988   0.7989   0.9910   0.9911   1.0234   1.1705
     1.2043   1.2445   1.3793   1.3797   1.4162   1.4467   1.4755   1.4903
     1.4904   1.5279   1.7316   1.7372   1.7373   3.8288   3.8290   4.5372
     7.4777   8.1443

          k = 0.1667 0.2500 0.3333 (  5968 PWs)   bands (ev):

     0.5644   0.8133   0.8262   0.8456   1.0463   1.0522   1.0805   1.1666
     1.2208   1.2843   1.2902   1.3046   1.3489   1.4256   1.4432   1.4704
     1.4893   1.6289   1.7135   1.7186   1.7202   3.2275   4.0518   4.6068
     7.1936   7.7147

          k = 0.1667 0.2500 0.4167 (  5972 PWs)   bands (ev):

     0.6894   0.8112   0.8794   0.9069   1.0455   1.0764   1.1098   1.1621
     1.2367   1.2385   1.2665   1.2774   1.3228   1.3605   1.4145   1.4402
     1.5736   1.6853   1.6977   1.7020   1.8516   2.6804   4.2822   4.5972
     7.0531   7.3497

          k = 0.1667 0.2500-0.5000 (  5974 PWs)   bands (ev):

     0.7740   0.7744   0.9342   0.9344   1.0258   1.0262   1.1628   1.1632
     1.2027   1.2032   1.3032   1.3035   1.3154   1.3156   1.4078   1.4083
     1.6374   1.6377   1.6927   1.6931   2.2134   2.2136   4.4802   4.4806
     7.1108   7.1111

          k = 0.1667 0.3333 0.3333 (  5967 PWs)   bands (ev):

     0.6395   0.8339   0.8433   0.8433   1.0843   1.0845   1.1087   1.1678
     1.2182   1.2576   1.2578   1.3630   1.3833   1.3867   1.4167   1.4167
     1.4687   1.6907   1.7010   1.7011   1.8096   3.4926   3.4929   4.5542
     6.9505   7.9928

          k = 0.1667 0.3333 0.4167 (  5964 PWs)   bands (ev):

     0.7115   0.8199   0.8568   0.8764   1.0598   1.0915   1.1125   1.1532
     1.2330   1.2524   1.2902   1.3561   1.3658   1.3758   1.3814   1.4077
     1.5377   1.6662   1.6688   1.6771   2.0961   2.9602   3.7930   4.3770
     6.9388   7.5135

          k = 0.1667 0.3333-0.5000 (  5960 PWs)   bands (ev):

     0.7738   0.7741   0.8814   0.8816   1.0568   1.0571   1.1339   1.1342
     1.2530   1.2534   1.3322   1.3326   1.3472   1.3476   1.3964   1.3967
     1.6123   1.6126   1.6621   1.6625   2.4867   2.4868   4.1025   4.1029
     7.1456   7.1458

          k = 0.1667 0.4167 0.4167 (  5964 PWs)   bands (ev):

     0.7443   0.8316   0.8318   0.8447   1.0879   1.0882   1.0933   1.1395
     1.2330   1.2812   1.2814   1.3130   1.4045   1.4046   1.4289   1.4610
     1.5150   1.6361   1.6375   1.6376   2.4226   3.2920   3.2923   4.0423
     7.0714   7.8379

          k = 0.1667 0.4167-0.5000 (  5966 PWs)   bands (ev):

     0.7854   0.7857   0.8389   0.8391   1.0851   1.0855   1.1170   1.1174
     1.2525   1.2529   1.2921   1.2926   1.4354   1.4359   1.4410   1.4413
     1.5788   1.5791   1.6197   1.6201   2.8264   2.8266   3.6623   3.6626
     7.3888   7.3890

          k = 0.1667-0.5000-0.5000 (  5996 PWs)   bands (ev):

     0.8071   0.8071   0.8071   0.8076   1.1049   1.1049   1.1049   1.1056
     1.2615   1.2616   1.2616   1.2624   1.4747   1.4748   1.4748   1.4755
     1.5743   1.5744   1.5744   1.5751   3.2244   3.2244   3.2244   3.2249
     7.7793   7.7796

          k = 0.2500 0.2500 0.2500 (  5950 PWs)   bands (ev):

     0.4965   0.7989   0.7990   0.7990   1.0544   1.0546   1.0546   1.1954
     1.1954   1.3626   1.3691   1.3691   1.3692   1.4140   1.4144   1.4144
     1.5050   1.5050   1.7399   1.7403   1.7403   3.9989   3.9989   3.9993
     7.6129   7.6131

          k = 0.2500 0.2500 0.3333 (  5963 PWs)   bands (ev):

     0.5772   0.7952   0.8178   0.8178   1.0838   1.0839   1.0919   1.1830
     1.1994   1.3280   1.3351   1.3351   1.3528   1.3968   1.3970   1.4224
     1.5659   1.6473   1.7272   1.7275   1.7336   3.4287   4.1930   4.1933
     7.1301   7.1302

          k = 0.2500 0.2500 0.4167 (  5952 PWs)   bands (ev):

     0.6557   0.7713   0.8478   0.8479   1.0611   1.0614   1.1257   1.1664
     1.2180   1.2969   1.3134   1.3363   1.3366   1.3790   1.3966   1.3966
     1.6235   1.7090   1.7093   1.7108   1.9767   2.8837   4.3613   4.3616
     6.7796   6.7798

          k = 0.2500 0.2500-0.5000 (  5964 PWs)   bands (ev):

     0.7231   0.7234   0.8659   0.8660   1.0389   1.0393   1.1486   1.1490
     1.2509   1.2512   1.3348   1.3353   1.3454   1.3459   1.3971   1.3974
     1.6730   1.6733   1.7000   1.7004   2.3939   2.3940   4.4316   4.4320
     6.6471   6.6473

          k = 0.2500 0.3333 0.3333 (  5950 PWs)   bands (ev):

     0.6052   0.7918   0.7919   0.8040   1.0903   1.0937   1.0937   1.1777
     1.1856   1.3048   1.3049   1.3250   1.3830   1.3830   1.4059   1.5385
     1.5445   1.7182   1.7266   1.7268   1.8761   3.6833   3.6835   4.3230
     6.6648   7.3097

          k = 0.2500 0.3333 0.4167 (  5947 PWs)   bands (ev):

     0.6466   0.7486   0.7966   0.8007   1.0726   1.0767   1.1118   1.1583
     1.1947   1.2596   1.2889   1.2950   1.4072   1.4392   1.4545   1.4958
     1.6181   1.7011   1.7077   1.7086   2.2318   3.1586   3.9639   4.3532
     6.4286   6.8208

          k = 0.2500 0.3333-0.5000 (  5956 PWs)   bands (ev):

     0.6967   0.6970   0.8004   0.8006   1.0642   1.0646   1.1346   1.1350
     1.2204   1.2207   1.2855   1.2860   1.4482   1.4487   1.4703   1.4705
     1.6723   1.6726   1.6936   1.6940   2.6661   2.6662   4.2167   4.2170
     6.4964   6.4966

          k = 0.2500 0.4167 0.4167 (  5968 PWs)   bands (ev):

     0.6603   0.7411   0.7413   0.7673   1.0869   1.0972   1.0974   1.1476
     1.1860   1.2401   1.2402   1.2535   1.4898   1.4898   1.5151   1.5840
     1.5858   1.6809   1.6883   1.6883   2.5879   3.4894   3.4897   4.1688
     6.3974   7.0929

          k = 0.2500 0.4167-0.5000 (  5956 PWs)   bands (ev):

     0.6933   0.6935   0.7475   0.7477   1.0909   1.0913   1.1247   1.1251
     1.2033   1.2036   1.2361   1.2365   1.5349   1.5352   1.5397   1.5401
     1.6479   1.6482   1.6696   1.6701   3.0162   3.0164   3.8470   3.8473
     6.6521   6.6523

          k = 0.2500-0.5000-0.5000 (  5972 PWs)   bands (ev):

     0.7109   0.7109   0.7109   0.7114   1.1124   1.1124   1.1124   1.1131
     1.2066   1.2066   1.2066   1.2074   1.5802   1.5802   1.5802   1.5809
     1.6338   1.6339   1.6339   1.6345   3.4224   3.4224   3.4224   3.4229
     7.0166   7.0167

          k = 0.3333 0.3333 0.3333 (  5956 PWs)   bands (ev):

     0.5963   0.7551   0.7551   0.7553   1.0926   1.0927   1.0927   1.1689
     1.1689   1.2674   1.2678   1.2678   1.4522   1.4524   1.4524   1.6033
     1.6033   1.7302   1.7305   1.7305   2.1169   3.9177   3.9177   3.9181
     6.7090   6.7091

          k = 0.3333 0.3333 0.4167 (  5945 PWs)   bands (ev):

     0.6120   0.6991   0.7336   0.7338   1.0861   1.0864   1.1093   1.1522
     1.1693   1.2204   1.2392   1.2396   1.5003   1.5198   1.5200   1.5863
     1.6584   1.7184   1.7187   1.7243   2.4917   3.4292   4.1415   4.1418
     6.2614   6.2615

          k = 0.3333 0.3333-0.5000 (  5964 PWs)   bands (ev):

     0.6482   0.6484   0.7266   0.7268   1.0824   1.0827   1.1309   1.1313
     1.1867   1.1870   1.2304   1.2309   1.5467   1.5472   1.5489   1.5492
     1.6996   1.6999   1.7086   1.7090   2.9392   2.9394   4.2442   4.2445
     6.0836   6.0838

          k = 0.3333 0.4167 0.4167 (  5952 PWs)   bands (ev):

     0.6069   0.6728   0.6730   0.6910   1.0972   1.1060   1.1061   1.1467
     1.1543   1.1951   1.1951   1.2025   1.5766   1.5766   1.5872   1.6434
     1.6624   1.7116   1.7174   1.7175   2.8580   3.7476   3.7479   4.2104
     5.9625   6.4332

          k = 0.3333 0.4167-0.5000 (  5962 PWs)   bands (ev):

     0.6284   0.6287   0.6702   0.6704   1.1029   1.1032   1.1277   1.1281
     1.1656   1.1659   1.1878   1.1882   1.6144   1.6147   1.6220   1.6224
     1.6960   1.6963   1.7038   1.7042   3.2919   3.2921   4.0519   4.0522
     6.0461   6.0463

          k = 0.3333-0.5000-0.5000 (  5980 PWs)   bands (ev):

     0.6364   0.6364   0.6364   0.6369   1.1201   1.1201   1.1202   1.1209
     1.1639   1.1640   1.1640   1.1647   1.6590   1.6590   1.6590   1.6597
     1.6809   1.6810   1.6810   1.6817   3.6882   3.6882   3.6882   3.6887
     6.3381   6.3382

          k = 0.4167 0.4167 0.4167 (  5962 PWs)   bands (ev):

     0.5852   0.6305   0.6305   0.6309   1.1127   1.1129   1.1129   1.1398
     1.1398   1.1646   1.1650   1.1650   1.6425   1.6426   1.6426   1.6886
     1.6886   1.7237   1.7241   1.7241   3.2197   4.0140   4.0140   4.0145
     5.9237   5.9238

          k = 0.4167 0.4167-0.5000 (  5964 PWs)   bands (ev):

     0.5938   0.5940   0.6162   0.6165   1.1156   1.1159   1.1279   1.1283
     1.1433   1.1436   1.1538   1.1542   1.6727   1.6730   1.6781   1.6785
     1.7160   1.7163   1.7180   1.7184   3.6322   3.6324   4.1469   4.1472
     5.7097   5.7098

          k = 0.4167-0.5000-0.5000 (  5956 PWs)   bands (ev):

     0.5900   0.5900   0.5900   0.5905   1.1259   1.1259   1.1259   1.1266
     1.1371   1.1372   1.1372   1.1379   1.7060   1.7060   1.7061   1.7067
     1.7111   1.7111   1.7111   1.7118   3.9710   3.9711   3.9711   3.9717
     5.8064   5.8065

          k =-0.5000-0.5000-0.5000 (  5904 PWs)   bands (ev):

     0.5743   0.5743   0.5743   0.5748   1.1279   1.1279   1.1279   1.1280
     1.1280   1.1280   1.1288   1.1288   1.7214   1.7214   1.7214   1.7215
     1.7215   1.7215   1.7222   1.7222   4.1173   4.1173   4.1173   4.1180
     5.5771   5.5772

     the Fermi energy is     4.5594 ev

!    total energy              =   -3100.53323473 Ry

     total all-electron energy =   -152095.917599 Ry
     estimated scf accuracy    <       0.00000041 Ry
     smearing contrib. (-TS)   =      -0.94268898 Ry
     internal energy E=F+TS    =   -3099.59054575 Ry

     The total energy is F=E-TS. E is the sum of the following terms:
     one-electron contribution =     -42.43952284 Ry
     hartree contribution      =      61.71297346 Ry
     xc contribution           =    -127.00189919 Ry
     ewald contribution        =    -221.93948512 Ry
     one-center paw contrib.   =   -2769.92261207 Ry

     convergence has been achieved in  16 iterations

     Forces acting on atoms (cartesian axes, Ry/au):

     atom    1 type  1   force =     0.00000000    0.00000000    0.00000000
     atom    2 type  1   force =     0.00000000    0.00000000    0.00000000
     atom    3 type  1   force =     0.00000000    0.00000000    0.00000000
     atom    4 type  1   force =     0.00000000    0.00000000    0.00000000

     Total force =     0.000000     Total SCF correction =     0.000000

     Writing all to output data dir ./pwscf.save/

===================================================================================
=   BAD TERMINATION OF ONE OF YOUR APPLICATION PROCESSES
=   RANK 1 PID 463652 RUNNING AT c3cpu-a2-u30-3
=   KILLED BY SIGNAL: 9 (Killed)
===================================================================================

===================================================================================
=   BAD TERMINATION OF ONE OF YOUR APPLICATION PROCESSES
=   RANK 2 PID 463654 RUNNING AT c3cpu-a2-u30-3
=   KILLED BY SIGNAL: 9 (Killed)
===================================================================================

===================================================================================
=   BAD TERMINATION OF ONE OF YOUR APPLICATION PROCESSES
=   RANK 3 PID 463655 RUNNING AT c3cpu-a2-u30-3
=   KILLED BY SIGNAL: 9 (Killed)
===================================================================================

===================================================================================
=   BAD TERMINATION OF ONE OF YOUR APPLICATION PROCESSES
=   RANK 4 PID 463656 RUNNING AT c3cpu-a2-u30-3
=   KILLED BY SIGNAL: 9 (Killed)
===================================================================================

===================================================================================
=   BAD TERMINATION OF ONE OF YOUR APPLICATION PROCESSES
=   RANK 5 PID 463657 RUNNING AT c3cpu-a2-u30-3
=   KILLED BY SIGNAL: 9 (Killed)
===================================================================================

===================================================================================
=   BAD TERMINATION OF ONE OF YOUR APPLICATION PROCESSES
=   RANK 6 PID 463658 RUNNING AT c3cpu-a2-u30-3
=   KILLED BY SIGNAL: 9 (Killed)
===================================================================================

===================================================================================
=   BAD TERMINATION OF ONE OF YOUR APPLICATION PROCESSES
=   RANK 7 PID 463659 RUNNING AT c3cpu-a2-u30-3
=   KILLED BY SIGNAL: 9 (Killed)
===================================================================================

===================================================================================
=   BAD TERMINATION OF ONE OF YOUR APPLICATION PROCESSES
=   RANK 8 PID 463660 RUNNING AT c3cpu-a2-u30-3
=   KILLED BY SIGNAL: 9 (Killed)
===================================================================================

===================================================================================
=   BAD TERMINATION OF ONE OF YOUR APPLICATION PROCESSES
=   RANK 9 PID 463661 RUNNING AT c3cpu-a2-u30-3
=   KILLED BY SIGNAL: 9 (Killed)
===================================================================================
