MPI startup(): Warning: I_MPI_PMI_LIBRARY will be ignored since the hydra process manager was found
MPI startup(): Warning: I_MPI_PMI_LIBRARY will be ignored since the hydra process manager was found
MPI startup(): Warning: I_MPI_PMI_LIBRARY will be ignored since the hydra process manager was found
MPI startup(): Warning: I_MPI_PMI_LIBRARY will be ignored since the hydra process manager was found
MPI startup(): Warning: I_MPI_PMI_LIBRARY will be ignored since the hydra process manager was found
MPI startup(): Warning: I_MPI_PMI_LIBRARY will be ignored since the hydra process manager was found
MPI startup(): Warning: I_MPI_PMI_LIBRARY will be ignored since the hydra process manager was found
MPI startup(): Warning: I_MPI_PMI_LIBRARY will be ignored since the hydra process manager was found
MPI startup(): Warning: I_MPI_PMI_LIBRARY will be ignored since the hydra process manager was found
MPI startup(): Warning: I_MPI_PMI_LIBRARY will be ignored since the hydra process manager was found

     Program PWSCF v.7.0 starts on  5Apr2024 at 12:35:50 

     This program is part of the open-source Quantum ESPRESSO suite
     for quantum simulation of materials; please cite
         "P. Giannozzi et al., J. Phys.:Condens. Matter 21 395502 (2009);
         "P. Giannozzi et al., J. Phys.:Condens. Matter 29 465901 (2017);
         "P. Giannozzi et al., J. Chem. Phys. 152 154105 (2020);
          URL http://www.quantum-espresso.org", 
     in publications or presentations arising from this work. More details at
     http://www.quantum-espresso.org/quote

     Parallel version (MPI), running on    10 processors

     MPI processes distributed on     1 nodes
     R & G space division:  proc/nbgrp/npool/nimage =      10
     234598 MiB available memory on the printing compute node when the environment starts
 
     Reading input from VolumeFCC_9.2.in
Warning: card &CELL ignored
Warning: card / ignored

     Current dimensions of program PWSCF are:
     Max number of different atomic species (ntypx) = 10
     Max number of k-points (npk) =  40000
     Max angular momentum in pseudopotentials (lmaxx) =  4
     file Au.pbe-n-kjpaw_psl.1.0.0.UPF: wavefunction(s)  6S 5D renormalized
     Found identity + ( -0.5000 -0.5000  0.0000) symmetry
     This is a supercell, fractional translations are disabled
     Message from routine setup:
     using ibrav=0 with symmetry is DISCOURAGED, use correct ibrav instead

     Subspace diagonalization in iterative solution of the eigenvalue problem:
     one sub-group per band group will be used
     scalapack distributed-memory algorithm (size of sub-group:  3*  3 procs)

 
     Parallelization info
     --------------------
     sticks:   dense  smooth     PW     G-vecs:    dense   smooth      PW
     Min         135     135     39                 3719     3719     588
     Max         136     136     41                 3720     3720     589
     Sum        1353    1353    401                37193    37193    5887
 
     Using Slab Decomposition
 


     bravais-lattice index     =            0
     lattice parameter (alat)  =       9.1987  a.u.
     unit-cell volume          =     778.3495 (a.u.)^3
     number of atoms/cell      =            4
     number of atomic types    =            1
     number of electrons       =        44.00
     number of Kohn-Sham states=           26
     kinetic-energy cutoff     =      50.0000  Ry
     charge density cutoff     =     200.0000  Ry
     scf convergence threshold =      1.0E-06
     mixing beta               =       0.7000
     number of iterations used =            8  plain     mixing
     Exchange-correlation= SLA  PW   PBX  PBC
                           (   1   4   3   4   0   0   0)

     celldm(1)=   9.198667  celldm(2)=   0.000000  celldm(3)=   0.000000
     celldm(4)=   0.000000  celldm(5)=   0.000000  celldm(6)=   0.000000

     crystal axes: (cart. coord. in units of alat)
               a(1) = (   1.000000   0.000000   0.000000 )  
               a(2) = (   0.000000   1.000000   0.000000 )  
               a(3) = (   0.000000   0.000000   1.000000 )  

     reciprocal axes: (cart. coord. in units 2 pi/alat)
               b(1) = (  1.000000  0.000000  0.000000 )  
               b(2) = (  0.000000  1.000000  0.000000 )  
               b(3) = (  0.000000  0.000000  1.000000 )  


     PseudoPot. # 1 for Au read from file:
     ./Au.pbe-n-kjpaw_psl.1.0.0.UPF
     MD5 check sum: 4db85c736373c707a97ce4c36c2a9d23
     Pseudo is Projector augmented-wave + core cor, Zval = 11.0
     Generated using &quot;atomic&quot; code by A. Dal Corso  v.6.3
     Shape of augmentation charge: PSQ
     Using radial grid of 1279 points,  6 beta functions with: 
                l(1) =   0
                l(2) =   0
                l(3) =   1
                l(4) =   1
                l(5) =   2
                l(6) =   2
     Q(r) pseudized with 0 coefficients 


     atomic species   valence    mass     pseudopotential
        Au            11.00   196.96657     Au( 1.00)

     48 Sym. Ops., with inversion, found



   Cartesian axes

     site n.     atom                  positions (alat units)
         1           Au  tau(   1) = (   0.0000000   0.0000000   0.0000000  )
         2           Au  tau(   2) = (   0.5000000   0.5000000   0.0000000  )
         3           Au  tau(   3) = (   0.5000000   0.0000000   0.5000000  )
         4           Au  tau(   4) = (   0.0000000   0.5000000   0.5000000  )

     number of k points=    84  Gaussian smearing, width (Ry)=  0.2000
                       cart. coord. in units 2pi/alat
        k(    1) = (   0.0000000   0.0000000   0.0000000), wk =   0.0011574
        k(    2) = (   0.0000000   0.0000000   0.0833333), wk =   0.0069444
        k(    3) = (   0.0000000   0.0000000   0.1666667), wk =   0.0069444
        k(    4) = (   0.0000000   0.0000000   0.2500000), wk =   0.0069444
        k(    5) = (   0.0000000   0.0000000   0.3333333), wk =   0.0069444
        k(    6) = (   0.0000000   0.0000000   0.4166667), wk =   0.0069444
        k(    7) = (   0.0000000   0.0000000  -0.5000000), wk =   0.0034722
        k(    8) = (   0.0000000   0.0833333   0.0833333), wk =   0.0138889
        k(    9) = (   0.0000000   0.0833333   0.1666667), wk =   0.0277778
        k(   10) = (   0.0000000   0.0833333   0.2500000), wk =   0.0277778
        k(   11) = (   0.0000000   0.0833333   0.3333333), wk =   0.0277778
        k(   12) = (   0.0000000   0.0833333   0.4166667), wk =   0.0277778
        k(   13) = (   0.0000000   0.0833333  -0.5000000), wk =   0.0138889
        k(   14) = (   0.0000000   0.1666667   0.1666667), wk =   0.0138889
        k(   15) = (   0.0000000   0.1666667   0.2500000), wk =   0.0277778
        k(   16) = (   0.0000000   0.1666667   0.3333333), wk =   0.0277778
        k(   17) = (   0.0000000   0.1666667   0.4166667), wk =   0.0277778
        k(   18) = (   0.0000000   0.1666667  -0.5000000), wk =   0.0138889
        k(   19) = (   0.0000000   0.2500000   0.2500000), wk =   0.0138889
        k(   20) = (   0.0000000   0.2500000   0.3333333), wk =   0.0277778
        k(   21) = (   0.0000000   0.2500000   0.4166667), wk =   0.0277778
        k(   22) = (   0.0000000   0.2500000  -0.5000000), wk =   0.0138889
        k(   23) = (   0.0000000   0.3333333   0.3333333), wk =   0.0138889
        k(   24) = (   0.0000000   0.3333333   0.4166667), wk =   0.0277778
        k(   25) = (   0.0000000   0.3333333  -0.5000000), wk =   0.0138889
        k(   26) = (   0.0000000   0.4166667   0.4166667), wk =   0.0138889
        k(   27) = (   0.0000000   0.4166667  -0.5000000), wk =   0.0138889
        k(   28) = (   0.0000000  -0.5000000  -0.5000000), wk =   0.0034722
        k(   29) = (   0.0833333   0.0833333   0.0833333), wk =   0.0092593
        k(   30) = (   0.0833333   0.0833333   0.1666667), wk =   0.0277778
        k(   31) = (   0.0833333   0.0833333   0.2500000), wk =   0.0277778
        k(   32) = (   0.0833333   0.0833333   0.3333333), wk =   0.0277778
        k(   33) = (   0.0833333   0.0833333   0.4166667), wk =   0.0277778
        k(   34) = (   0.0833333   0.0833333  -0.5000000), wk =   0.0138889
        k(   35) = (   0.0833333   0.1666667   0.1666667), wk =   0.0277778
        k(   36) = (   0.0833333   0.1666667   0.2500000), wk =   0.0555556
        k(   37) = (   0.0833333   0.1666667   0.3333333), wk =   0.0555556
        k(   38) = (   0.0833333   0.1666667   0.4166667), wk =   0.0555556
        k(   39) = (   0.0833333   0.1666667  -0.5000000), wk =   0.0277778
        k(   40) = (   0.0833333   0.2500000   0.2500000), wk =   0.0277778
        k(   41) = (   0.0833333   0.2500000   0.3333333), wk =   0.0555556
        k(   42) = (   0.0833333   0.2500000   0.4166667), wk =   0.0555556
        k(   43) = (   0.0833333   0.2500000  -0.5000000), wk =   0.0277778
        k(   44) = (   0.0833333   0.3333333   0.3333333), wk =   0.0277778
        k(   45) = (   0.0833333   0.3333333   0.4166667), wk =   0.0555556
        k(   46) = (   0.0833333   0.3333333  -0.5000000), wk =   0.0277778
        k(   47) = (   0.0833333   0.4166667   0.4166667), wk =   0.0277778
        k(   48) = (   0.0833333   0.4166667  -0.5000000), wk =   0.0277778
        k(   49) = (   0.0833333  -0.5000000  -0.5000000), wk =   0.0069444
        k(   50) = (   0.1666667   0.1666667   0.1666667), wk =   0.0092593
        k(   51) = (   0.1666667   0.1666667   0.2500000), wk =   0.0277778
        k(   52) = (   0.1666667   0.1666667   0.3333333), wk =   0.0277778
        k(   53) = (   0.1666667   0.1666667   0.4166667), wk =   0.0277778
        k(   54) = (   0.1666667   0.1666667  -0.5000000), wk =   0.0138889
        k(   55) = (   0.1666667   0.2500000   0.2500000), wk =   0.0277778
        k(   56) = (   0.1666667   0.2500000   0.3333333), wk =   0.0555556
        k(   57) = (   0.1666667   0.2500000   0.4166667), wk =   0.0555556
        k(   58) = (   0.1666667   0.2500000  -0.5000000), wk =   0.0277778
        k(   59) = (   0.1666667   0.3333333   0.3333333), wk =   0.0277778
        k(   60) = (   0.1666667   0.3333333   0.4166667), wk =   0.0555556
        k(   61) = (   0.1666667   0.3333333  -0.5000000), wk =   0.0277778
        k(   62) = (   0.1666667   0.4166667   0.4166667), wk =   0.0277778
        k(   63) = (   0.1666667   0.4166667  -0.5000000), wk =   0.0277778
        k(   64) = (   0.1666667  -0.5000000  -0.5000000), wk =   0.0069444
        k(   65) = (   0.2500000   0.2500000   0.2500000), wk =   0.0092593
        k(   66) = (   0.2500000   0.2500000   0.3333333), wk =   0.0277778
        k(   67) = (   0.2500000   0.2500000   0.4166667), wk =   0.0277778
        k(   68) = (   0.2500000   0.2500000  -0.5000000), wk =   0.0138889
        k(   69) = (   0.2500000   0.3333333   0.3333333), wk =   0.0277778
        k(   70) = (   0.2500000   0.3333333   0.4166667), wk =   0.0555556
        k(   71) = (   0.2500000   0.3333333  -0.5000000), wk =   0.0277778
        k(   72) = (   0.2500000   0.4166667   0.4166667), wk =   0.0277778
        k(   73) = (   0.2500000   0.4166667  -0.5000000), wk =   0.0277778
        k(   74) = (   0.2500000  -0.5000000  -0.5000000), wk =   0.0069444
        k(   75) = (   0.3333333   0.3333333   0.3333333), wk =   0.0092593
        k(   76) = (   0.3333333   0.3333333   0.4166667), wk =   0.0277778
        k(   77) = (   0.3333333   0.3333333  -0.5000000), wk =   0.0138889
        k(   78) = (   0.3333333   0.4166667   0.4166667), wk =   0.0277778
        k(   79) = (   0.3333333   0.4166667  -0.5000000), wk =   0.0277778
        k(   80) = (   0.3333333  -0.5000000  -0.5000000), wk =   0.0069444
        k(   81) = (   0.4166667   0.4166667   0.4166667), wk =   0.0092593
        k(   82) = (   0.4166667   0.4166667  -0.5000000), wk =   0.0138889
        k(   83) = (   0.4166667  -0.5000000  -0.5000000), wk =   0.0069444
        k(   84) = (  -0.5000000  -0.5000000  -0.5000000), wk =   0.0011574

     Dense  grid:    37193 G-vectors     FFT dimensions: (  45,  45,  45)

     Estimated max dynamical RAM per process >      30.70 MB

     Estimated total dynamical RAM >     307.01 MB

     Initial potential from superposition of free atoms

     starting charge      43.9996, renormalised to      44.0000
     Starting wfcs are   36 randomized atomic wfcs
     Checking if some PAW data can be deallocated... 

     total cpu time spent up to now is        2.0 secs

     Self-consistent Calculation

     iteration #  1     ecut=    50.00 Ry     beta= 0.70
     Davidson diagonalization with overlap
     ethr =  1.00E-02,  avg # of iterations =  2.3

     Threshold (ethr) on eigenvalues was too large:
     Diagonalizing with lowered threshold

     Davidson diagonalization with overlap
     ethr =  7.02E-04,  avg # of iterations =  3.3

     total cpu time spent up to now is        6.0 secs

     total energy              =   -3100.49051249 Ry
     estimated scf accuracy    <       0.33759856 Ry

     iteration #  2     ecut=    50.00 Ry     beta= 0.70
     Davidson diagonalization with overlap
     ethr =  7.67E-04,  avg # of iterations =  2.2

     total cpu time spent up to now is        8.6 secs

     total energy              =   -3100.61509353 Ry
     estimated scf accuracy    <       0.13451384 Ry

     iteration #  3     ecut=    50.00 Ry     beta= 0.70
     Davidson diagonalization with overlap
     ethr =  3.06E-04,  avg # of iterations =  1.9

     total cpu time spent up to now is       10.4 secs

     total energy              =   -3100.63509140 Ry
     estimated scf accuracy    <       0.00581836 Ry

     iteration #  4     ecut=    50.00 Ry     beta= 0.70
     Davidson diagonalization with overlap
     c_bands:  4 eigenvalues not converged
     ethr =  1.32E-05,  avg # of iterations =  6.1

     total cpu time spent up to now is       13.8 secs

     total energy              =   -3100.63960151 Ry
     estimated scf accuracy    <       0.00237558 Ry

     iteration #  5     ecut=    50.00 Ry     beta= 0.70
     Davidson diagonalization with overlap
     c_bands:  1 eigenvalues not converged
     ethr =  5.40E-06,  avg # of iterations =  6.1

     total cpu time spent up to now is       17.7 secs

     total energy              =   -3100.63477018 Ry
     estimated scf accuracy    <       0.02241958 Ry

     iteration #  6     ecut=    50.00 Ry     beta= 0.70
     Davidson diagonalization with overlap
     ethr =  5.40E-06,  avg # of iterations =  4.9

     total cpu time spent up to now is       20.9 secs

     total energy              =   -3100.63884383 Ry
     estimated scf accuracy    <       0.00012018 Ry

     iteration #  7     ecut=    50.00 Ry     beta= 0.70
     Davidson diagonalization with overlap
     c_bands:  1 eigenvalues not converged
     ethr =  2.73E-07,  avg # of iterations =  8.0

     total cpu time spent up to now is       25.8 secs

     total energy              =   -3100.63906273 Ry
     estimated scf accuracy    <       0.00001272 Ry

     iteration #  8     ecut=    50.00 Ry     beta= 0.70
     Davidson diagonalization with overlap
     c_bands:  2 eigenvalues not converged
     ethr =  2.89E-08,  avg # of iterations =  6.6

     total cpu time spent up to now is       29.5 secs

     total energy              =   -3100.63903434 Ry
     estimated scf accuracy    <       0.00006586 Ry

     iteration #  9     ecut=    50.00 Ry     beta= 0.70
     Davidson diagonalization with overlap
     c_bands:  1 eigenvalues not converged
     ethr =  2.89E-08,  avg # of iterations =  4.7

     total cpu time spent up to now is       32.9 secs

     total energy              =   -3100.63906105 Ry
     estimated scf accuracy    <       0.00001296 Ry

     iteration # 10     ecut=    50.00 Ry     beta= 0.70
     Davidson diagonalization with overlap
     ethr =  2.89E-08,  avg # of iterations =  1.0

     total cpu time spent up to now is       34.5 secs

     total energy              =   -3100.63905804 Ry
     estimated scf accuracy    <       0.00000812 Ry

     iteration # 11     ecut=    50.00 Ry     beta= 0.70
     Davidson diagonalization with overlap
     ethr =  1.85E-08,  avg # of iterations =  1.1

     total cpu time spent up to now is       36.1 secs

     total energy              =   -3100.63905767 Ry
     estimated scf accuracy    <       0.00000196 Ry

     iteration # 12     ecut=    50.00 Ry     beta= 0.70
     Davidson diagonalization with overlap
     ethr =  4.47E-09,  avg # of iterations =  2.8

     total cpu time spent up to now is       38.1 secs

     End of self-consistent calculation

          k = 0.0000 0.0000 0.0000 (  4697 PWs)   bands (ev):

     1.1322   2.7556   2.7557   2.7557   2.8244   2.8244   2.8244   3.5866
     3.5866   3.5866   4.1329   4.1329   4.5571   4.5571   4.5574   4.7011
     4.7011   4.7011   4.7012   4.7012   4.7012   8.9274   8.9274   8.9274
     9.1113   9.1113

          k = 0.0000 0.0000 0.0833 (  4657 PWs)   bands (ev):

     1.1834   2.7690   2.7800   2.7801   2.8365   2.8445   2.8445   3.5726
     3.6017   3.6017   4.1186   4.1399   4.5379   4.5381   4.5497   4.6417
     4.6417   4.6767   4.6767   4.7012   4.7012   7.8562   9.0330   9.0330
     9.0987   9.0987

          k = 0.0000 0.0000 0.1667 (  4661 PWs)   bands (ev):

     1.3358   2.8058   2.8502   2.8502   2.8720   2.9044   2.9044   3.5317
     3.6465   3.6465   4.0782   4.1603   4.4807   4.4807   4.4817   4.4819
     4.5277   4.6066   4.6066   4.7012   4.7013   6.7948   9.0639   9.0639
     9.3318   9.3318

          k = 0.0000 0.0000 0.2500 (  4661 PWs)   bands (ev):

     1.5843   2.8553   2.9291   2.9568   2.9568   3.0037   3.0037   3.4674
     3.7197   3.7197   4.0191   4.1929   4.2567   4.2567   4.3938   4.3941
     4.4929   4.4994   4.4994   4.7013   4.7014   5.8417   9.0153   9.0153
     9.7830   9.7830

          k = 0.0000 0.0000 0.3333 (  4677 PWs)   bands (ev):

     1.9168   2.8922   3.0043   3.0814   3.0815   3.1414   3.1414   3.3848
     3.8186   3.8186   3.9580   4.0063   4.0063   4.2358   4.2874   4.2876
     4.3670   4.3670   4.4479   4.7014   4.7015   5.0213   8.9655   8.9655
    10.3458  10.3458

          k = 0.0000 0.0000 0.4167 (  4656 PWs)   bands (ev):

     2.3022   2.8581   3.0935   3.1914   3.1914   3.2903   3.3154   3.3154
     3.7559   3.7559   3.9321   3.9393   3.9393   4.1904   4.1907   4.2222
     4.2222   4.2862   4.3881   4.3960   4.7015   4.7016   8.9283   8.9284
    10.9880  10.9880

          k = 0.0000 0.0000-0.5000 (  4636 PWs)   bands (ev):

     2.6588   2.6588   3.1909   3.1910   3.2380   3.2380   3.5223   3.5223
     3.5223   3.5223   4.0299   4.0302   4.0763   4.0763   4.0764   4.0764
     4.1486   4.1489   4.3408   4.3408   4.7016   4.7016   8.9146   8.9146
    11.6841  11.6841

          k = 0.0000 0.0833 0.0833 (  4657 PWs)   bands (ev):

     1.2342   2.7935   2.7936   2.7968   2.8563   2.8563   2.8710   3.5691
     3.6067   3.6157   4.1153   4.1373   4.5197   4.5225   4.5227   4.6023
     4.6238   4.6239   4.6767   4.6767   4.6837   7.9225   7.9225   9.0837
     9.1363  10.2918

          k = 0.0000 0.0833 0.1667 (  4658 PWs)   bands (ev):

     1.3850   2.8311   2.8486   2.8644   2.8911   2.9155   2.9461   3.5340
     3.6467   3.6569   4.0806   4.1565   4.4099   4.4561   4.4658   4.4704
     4.5180   4.5793   4.6063   4.6752   4.6765   6.8756   8.0927   9.0410
     9.4291  10.3675

          k = 0.0000 0.0833 0.2500 (  4657 PWs)   bands (ev):

     1.6308   2.8819   2.9358   2.9469   2.9721   3.0135   3.0595   3.4723
     3.7188   3.7215   4.0276   4.1932   4.1998   4.2411   4.3717   4.3814
     4.4174   4.4988   4.5247   4.6737   4.6762   5.9415   8.3014   8.9768
     9.8734  10.5233

          k = 0.0000 0.0833 0.3333 (  4660 PWs)   bands (ev):

     1.9593   2.9209   3.0206   3.0530   3.0981   3.1492   3.1968   3.3921
     3.7936   3.8173   3.9581   3.9891   3.9979   4.2283   4.2426   4.2791
     4.3069   4.3662   4.4634   4.6737   4.6758   5.1539   8.4880   8.8999
    10.4301  10.7856

          k = 0.0000 0.0833 0.4167 (  4639 PWs)   bands (ev):

     2.3394   2.8891   3.1078   3.1790   3.2088   3.3000   3.3207   3.3437
     3.7210   3.7532   3.8292   3.9380   4.0413   4.0458   4.1876   4.2046
     4.2211   4.3027   4.3818   4.5919   4.6741   4.6753   8.6277   8.8177
    11.0673  11.1552

          k = 0.0000 0.0833-0.5000 (  4648 PWs)   bands (ev):

     2.6917   2.6917   3.2030   3.2030   3.2488   3.2488   3.5115   3.5115
     3.5240   3.5241   3.8841   3.8843   4.0751   4.0751   4.1537   4.1540
     4.2004   4.2006   4.3787   4.3787   4.6747   4.6748   8.7308   8.7309
    11.6032  11.6032

          k = 0.0000 0.1667 0.1667 (  4653 PWs)   bands (ev):

     1.5311   2.8729   2.9039   2.9040   2.9480   2.9480   3.0390   3.5233
     3.6653   3.6867   4.0688   4.1671   4.3044   4.3045   4.3605   4.4185
     4.5209   4.5210   4.6055   4.6055   4.6319   7.0870   7.0870   8.9722
     9.7073  11.5571

          k = 0.0000 0.1667 0.2500 (  4656 PWs)   bands (ev):

     1.7684   2.9349   2.9588   3.0002   3.0152   3.0421   3.1617   3.4792
     3.7245   3.7298   4.0327   4.0813   4.1672   4.1857   4.2136   4.3436
     4.4370   4.4925   4.4971   4.6042   4.6094   6.1900   7.3704   8.8573
    10.1342  11.5159

          k = 0.0000 0.1667 0.3333 (  4653 PWs)   bands (ev):

     2.0839   3.0040   3.0330   3.0689   3.1462   3.1722   3.2955   3.4101
     3.7608   3.8178   3.8470   3.9692   4.0024   4.0183   4.2528   4.2874
     4.3325   4.3638   4.4342   4.6014   4.6026   5.4381   7.6774   8.6971
    10.6746  11.4773

          k = 0.0000 0.1667 0.4167 (  4647 PWs)   bands (ev):

     2.4470   2.9782   3.1499   3.1590   3.2595   3.3270   3.3357   3.4113
     3.6352   3.7436   3.7483   3.8353   3.9362   4.0840   4.1753   4.2182
     4.2269   4.3428   4.3907   4.5992   4.6009   4.8834   7.9774   8.4943
    11.2986  11.4743

          k = 0.0000 0.1667-0.5000 (  4646 PWs)   bands (ev):

     2.7853   2.7853   3.2379   3.2380   3.2724   3.2724   3.4941   3.4941
     3.5285   3.5285   3.7445   3.7446   4.0724   4.0724   4.1605   4.1608
     4.2138   4.2139   4.5575   4.5576   4.5995   4.5996   8.2527   8.2527
    11.5466  11.5466

          k = 0.0000 0.2500 0.2500 (  4665 PWs)   bands (ev):

     1.9902   2.9699   3.0768   3.0769   3.0879   3.0879   3.2855   3.4678
     3.7453   3.7582   3.9345   3.9346   4.0100   4.0739   4.2823   4.2833
     4.4234   4.4236   4.4947   4.4947   4.5485   6.5138   6.5139   8.6500
    10.5393  11.9890

          k = 0.0000 0.2500 0.3333 (  4641 PWs)   bands (ev):

     2.2812   3.0415   3.1325   3.1478   3.2084   3.2182   3.4112   3.4271
     3.7097   3.7479   3.7769   3.8324   3.9104   3.9966   4.2064   4.3296
     4.3607   4.3711   4.3990   4.4921   4.5126   5.7792   6.8730   8.3596
    11.0587  11.6879

          k = 0.0000 0.2500 0.4167 (  4642 PWs)   bands (ev):

     2.6114   3.1121   3.1480   3.2178   3.3384   3.3585   3.3649   3.5016
     3.5275   3.6566   3.7050   3.7218   3.9406   4.0500   4.1455   4.2155
     4.2272   4.2796   4.4902   4.4964   4.5634   5.2051   7.2494   8.0103
    11.5793  11.6650

          k = 0.0000 0.2500-0.5000 (  4654 PWs)   bands (ev):

     2.9214   2.9215   3.2804   3.2804   3.2923   3.2923   3.5092   3.5092
     3.5327   3.5327   3.6477   3.6479   4.0717   4.0718   4.1501   4.1504
     4.1603   4.1604   4.4907   4.4907   4.8114   4.8115   7.6327   7.6327
    11.6360  11.6360

          k = 0.0000 0.3333 0.3333 (  4618 PWs)   bands (ev):

     2.5327   3.0811   3.2549   3.2549   3.2903   3.2904   3.4269   3.5259
     3.5734   3.5735   3.7459   3.8124   3.8782   3.9600   4.1440   4.2847
     4.2848   4.3584   4.3584   4.4379   4.5665   6.1536   6.1537   7.9263
    11.5568  11.5652

          k = 0.0000 0.3333 0.4167 (  4641 PWs)   bands (ev):

     2.8066   3.1534   3.2540   3.3071   3.3854   3.4000   3.4022   3.4519
     3.5340   3.6009   3.6799   3.7045   3.9629   3.9838   4.0924   4.1874
     4.1966   4.2162   4.3594   4.3911   4.7932   5.5594   6.5580   7.4562
    11.6352  12.2241

          k = 0.0000 0.3333-0.5000 (  4650 PWs)   bands (ev):

     3.0620   3.0620   3.2596   3.2596   3.3590   3.3590   3.5314   3.5314
     3.5753   3.5753   3.6155   3.6156   4.0798   4.0798   4.0815   4.0816
     4.1068   4.1071   4.3680   4.3681   5.1106   5.1107   6.9935   6.9935
    11.8631  11.8631

          k = 0.0000 0.4167 0.4167 (  4632 PWs)   bands (ev):

     2.9971   3.1804   3.2881   3.2881   3.4108   3.4108   3.4253   3.5570
     3.5572   3.6110   3.6789   3.7191   3.9390   4.0165   4.0313   4.1037
     4.1038   4.2258   4.2258   4.3065   5.0853   5.9551   5.9551   6.9071
    11.8545  12.6949

          k = 0.0000 0.4167-0.5000 (  4644 PWs)   bands (ev):

     3.1567   3.1568   3.2302   3.2302   3.4269   3.4269   3.5171   3.5171
     3.6630   3.6631   3.6635   3.6635   3.9968   3.9970   4.0288   4.0290
     4.1065   4.1065   4.2527   4.2527   5.4648   5.4648   6.4028   6.4028
    12.2121  12.2121

          k = 0.0000-0.5000-0.5000 (  4636 PWs)   bands (ev):

     3.2012   3.2012   3.2012   3.2012   3.4826   3.4826   3.4826   3.4826
     3.7156   3.7157   3.7160   3.7160   3.9608   3.9611   3.9611   3.9613
     4.1627   4.1627   4.1627   4.1628   5.8914   5.8915   5.8915   5.8915
    12.6757  12.6757

          k = 0.0833 0.0833 0.0833 (  4659 PWs)   bands (ev):

     1.2844   2.8098   2.8099   2.8099   2.8832   2.8832   2.8832   3.5673
     3.6194   3.6194   4.1241   4.1241   4.5031   4.5031   4.5033   4.5738
     4.5739   4.5739   4.6699   4.6699   4.6700   7.9843   7.9843   7.9843
    10.3109  10.3109

          k = 0.0833 0.0833 0.1667 (  4656 PWs)   bands (ev):

     1.4334   2.8461   2.8608   2.8608   2.9191   2.9588   2.9589   3.5381
     3.6545   3.6574   4.0875   4.1498   4.3980   4.3981   4.4533   4.4773
     4.4775   4.4909   4.6326   4.6622   4.6623   6.9518   8.1420   8.1420
    10.3768  10.3769

          k = 0.0833 0.0833 0.2500 (  4666 PWs)   bands (ev):

     1.6760   2.8954   2.9470   2.9471   2.9762   3.0724   3.0724   3.4800
     3.7193   3.7194   4.0401   4.1893   4.1894   4.1910   4.3589   4.3717
     4.3923   4.3925   4.5792   4.6569   4.6570   6.0320   8.3313   8.3313
    10.5105  10.5105

          k = 0.0833 0.0833 0.3333 (  4657 PWs)   bands (ev):

     1.9994   2.9354   3.0491   3.0641   3.0641   3.2083   3.2083   3.4031
     3.7823   3.8034   3.9538   3.9538   4.0226   4.1832   4.2449   4.2654
     4.2910   4.2913   4.5163   4.6539   4.6540   5.2576   8.4890   8.4890
    10.7248  10.7248

          k = 0.0833 0.0833 0.4167 (  4642 PWs)   bands (ev):

     2.3723   2.9083   3.1320   3.1927   3.1927   3.3148   3.3466   3.3466
     3.7262   3.7262   3.7977   3.9061   3.9803   4.1128   4.1453   4.1959
     4.1962   4.3082   4.4478   4.6524   4.6525   4.6814   8.5833   8.5833
    10.9800  10.9800

          k = 0.0833 0.0833-0.5000 (  4646 PWs)   bands (ev):

     2.7169   2.7170   3.2221   3.2222   3.2605   3.2605   3.4552   3.4552
     3.5726   3.5726   3.8329   3.8330   4.0224   4.0224   4.1536   4.1539
     4.3216   4.3217   4.3772   4.3772   4.6520   4.6521   8.6132   8.6133
    11.1183  11.1183

          k = 0.0833 0.1667 0.1667 (  4658 PWs)   bands (ev):

     1.5768   2.8829   2.8942   2.8943   2.9967   2.9967   3.0530   3.5332
     3.6698   3.6834   4.0843   4.1561   4.2958   4.2959   4.3279   4.3892
     4.4389   4.4390   4.6300   4.6300   4.6359   7.1536   7.1536   8.2637
    10.4083  11.4929

          k = 0.0833 0.1667 0.2500 (  4658 PWs)   bands (ev):

     1.8092   2.9399   2.9428   2.9775   3.0568   3.1115   3.1756   3.4955
     3.7200   3.7252   4.0550   4.0758   4.1481   4.1572   4.2052   4.3242
     4.3510   4.3812   4.5851   4.6133   4.6149   6.2647   7.4266   8.3922
    10.4699  11.3669

          k = 0.0833 0.1667 0.3333 (  4659 PWs)   bands (ev):

     2.1163   2.9789   3.0390   3.0929   3.1308   3.2445   3.3062   3.4328
     3.7550   3.7942   3.8509   3.9374   3.9870   4.0625   4.2346   4.2442
     4.2795   4.2966   4.5249   4.5987   4.6016   5.5100   7.7227   8.4532
    10.5654  11.1938

          k = 0.0833 0.1667 0.4167 (  4647 PWs)   bands (ev):

     2.4662   2.9598   3.1645   3.2060   3.2281   3.3551   3.3579   3.4042
     3.6649   3.7381   3.7396   3.8162   3.8847   4.1101   4.1680   4.1685
     4.2036   4.3798   4.4446   4.5916   4.5936   4.9296   8.0053   8.4023
    10.6878  11.0053

          k = 0.0833 0.1667-0.5000 (  4648 PWs)   bands (ev):

     2.7857   2.7857   3.2805   3.2805   3.2847   3.2847   3.3983   3.3983
     3.6201   3.6201   3.7288   3.7290   3.9911   3.9911   4.1461   4.1464
     4.3281   4.3281   4.5581   4.5582   4.5902   4.5903   8.2428   8.2428
    10.8332  10.8332

          k = 0.0833 0.2500 0.2500 (  4649 PWs)   bands (ev):

     2.0225   2.9741   3.0176   3.0176   3.1751   3.1752   3.2977   3.4964
     3.7402   3.7427   3.9326   3.9327   4.0428   4.0489   4.2446   4.2726
     4.3171   4.3172   4.5615   4.5615   4.5675   6.5772   6.5772   8.4058
    10.4213  12.1183

          k = 0.0833 0.2500 0.3333 (  4641 PWs)   bands (ev):

     2.2990   3.0413   3.0497   3.1260   3.2549   3.3083   3.4149   3.4685
     3.7254   3.7447   3.7780   3.7955   3.8991   4.0518   4.1738   4.2110
     4.2589   4.3874   4.4951   4.5316   4.5324   5.8360   6.9303   8.2869
    10.4407  11.6557

          k = 0.0833 0.2500 0.4167 (  4652 PWs)   bands (ev):

     2.6053   3.0299   3.1423   3.2571   3.3282   3.3758   3.4229   3.4711
     3.6100   3.6561   3.7018   3.7577   3.8720   4.0886   4.1171   4.1423
     4.1812   4.4036   4.5105   4.5120   4.5538   5.2402   7.3027   8.0238
    10.5892  11.2226

          k = 0.0833 0.2500-0.5000 (  4654 PWs)   bands (ev):

     2.8786   2.8786   3.2680   3.2680   3.3766   3.3766   3.3989   3.3989
     3.6432   3.6434   3.6664   3.6664   3.9713   3.9713   4.1167   4.1169
     4.2797   4.2798   4.5044   4.5045   4.8174   4.8175   7.6770   7.6771
    10.8586  10.8587

          k = 0.0833 0.3333 0.3333 (  4637 PWs)   bands (ev):

     2.5262   3.0731   3.1417   3.1417   3.3971   3.3972   3.4890   3.5073
     3.6032   3.6032   3.7510   3.8131   3.8362   4.0389   4.1008   4.1732
     4.1733   4.4527   4.4527   4.4699   4.5555   6.2054   6.2054   7.9479
    10.4961  12.1510

          k = 0.0833 0.3333 0.4167 (  4642 PWs)   bands (ev):

     2.7641   3.1021   3.1335   3.2294   3.4250   3.4829   3.4857   3.5216
     3.5366   3.6007   3.7156   3.7828   3.8624   4.0485   4.0617   4.1011
     4.1165   4.3520   4.4188   4.4257   4.7880   5.5934   6.6106   7.5078
    10.7333  11.5824

          k = 0.0833 0.3333-0.5000 (  4638 PWs)   bands (ev):

     2.9703   2.9704   3.2118   3.2118   3.4475   3.4475   3.4775   3.4775
     3.6251   3.6253   3.7183   3.7183   3.9510   3.9510   4.0573   4.0575
     4.2259   4.2259   4.4080   4.4081   5.1216   5.1217   7.0487   7.0487
    11.1046  11.1046

          k = 0.0833 0.4167 0.4167 (  4628 PWs)   bands (ev):

     2.9154   3.1404   3.1510   3.1510   3.4750   3.4751   3.5124   3.5242
     3.6489   3.6490   3.7648   3.8147   3.8561   3.9822   4.0223   4.0224
     4.1083   4.3120   4.3120   4.3517   5.0894   5.9940   5.9940   6.9622
    11.0524  12.0550

          k = 0.0833 0.4167-0.5000 (  4636 PWs)   bands (ev):

     3.0448   3.0448   3.1555   3.1555   3.4887   3.4888   3.5051   3.5052
     3.7261   3.7263   3.7791   3.7791   3.9226   3.9227   3.9761   3.9763
     4.1952   4.1952   4.3086   4.3087   5.4849   5.4849   6.4502   6.4502
    11.4996  11.4997

          k = 0.0833-0.5000-0.5000 (  4636 PWs)   bands (ev):

     3.1028   3.1028   3.1028   3.1028   3.5056   3.5057   3.5057   3.5057
     3.8191   3.8191   3.8193   3.8193   3.9018   3.9020   3.9020   3.9022
     4.2247   4.2248   4.2248   4.2248   5.9248   5.9249   5.9249   5.9249
    12.0113  12.0114

          k = 0.1667 0.1667 0.1667 (  4638 PWs)   bands (ev):

     1.7118   2.9098   2.9099   2.9099   3.0945   3.0945   3.0945   3.5499
     3.6851   3.6851   4.1281   4.1281   4.2339   4.2339   4.2339   4.3154
     4.3154   4.3157   4.6357   4.6357   4.6358   7.3328   7.3328   7.3328
    11.2904  11.2905

          k = 0.1667 0.1667 0.2500 (  4653 PWs)   bands (ev):

     1.9283   2.9444   2.9628   2.9628   3.1613   3.2174   3.2174   3.5391
     3.7146   3.7157   4.0520   4.0520   4.0895   4.1042   4.1937   4.2184
     4.2634   4.2636   4.6175   4.6176   4.6177   6.4670   7.5789   7.5789
    10.9634  10.9634

          k = 0.1667 0.1667 0.3333 (  4670 PWs)   bands (ev):

     2.2092   2.9685   3.0514   3.0514   3.2460   3.3390   3.3390   3.4986
     3.7400   3.7616   3.8612   3.8613   3.9141   4.1121   4.1440   4.2059
     4.2061   4.2731   4.5774   4.5921   4.5922   5.7099   7.8395   7.8395
    10.5931  10.5932

          k = 0.1667 0.1667 0.4167 (  4643 PWs)   bands (ev):

     2.5195   2.9406   3.1697   3.1697   3.3322   3.3910   3.3910   3.4485
     3.7115   3.7375   3.7376   3.7523   3.8270   4.0068   4.1386   4.1388
     4.3150   4.3585   4.5174   4.5727   4.5728   5.0910   8.0528   8.0528
    10.2931  10.2932

          k = 0.1667 0.1667-0.5000 (  4656 PWs)   bands (ev):

     2.7916   2.7916   3.2853   3.2853   3.3224   3.3224   3.3979   3.3979
     3.6842   3.6844   3.7196   3.7196   3.9099   3.9099   4.1028   4.1030
     4.4423   4.4423   4.5658   4.5659   4.6275   4.6276   8.1396   8.1396
    10.1742  10.1743

          k = 0.1667 0.2500 0.2500 (  4658 PWs)   bands (ev):

     2.1152   2.9822   2.9843   2.9843   3.2864   3.2864   3.3344   3.5825
     3.7159   3.7254   3.9229   3.9230   3.9811   4.1207   4.1585   4.1701
     4.1702   4.2443   4.5988   4.6082   4.6083   6.7552   6.7552   7.7822
    10.4493  11.4466

          k = 0.1667 0.2500 0.3333 (  4643 PWs)   bands (ev):

     2.3495   2.9880   3.0343   3.0553   3.3784   3.3945   3.4276   3.5865
     3.7379   3.7463   3.7748   3.7838   3.8749   4.0625   4.0970   4.1316
     4.1600   4.3546   4.5672   4.5757   4.5773   6.0026   7.0933   7.9596
    10.0015  10.8445

          k = 0.1667 0.2500 0.4167 (  4650 PWs)   bands (ev):

     2.5967   2.9413   3.1120   3.1431   3.4002   3.4316   3.4833   3.5730
     3.6670   3.7015   3.7513   3.7929   3.8280   3.9570   4.0479   4.0810
     4.2923   4.5160   4.5287   4.5388   4.5451   5.3598   7.4515   7.9844
     9.7981  10.3189

          k = 0.1667 0.2500-0.5000 (  4646 PWs)   bands (ev):

     2.8091   2.8091   3.1814   3.1814   3.3735   3.3735   3.5642   3.5643
     3.6299   3.6301   3.8106   3.8106   3.8650   3.8650   4.0353   4.0356
     4.4252   4.4253   4.5295   4.5296   4.8574   4.8575   7.7825   7.7825
     9.9345   9.9345

          k = 0.1667 0.3333 0.3333 (  4638 PWs)   bands (ev):

     2.5167   3.0297   3.0297   3.0409   3.4672   3.4673   3.4782   3.6246
     3.7100   3.7100   3.7375   3.8062   3.8922   4.0086   4.0355   4.0356
     4.1543   4.5231   4.5288   4.5423   4.5423   6.3598   6.3598   7.9331
     9.6646  11.2509

          k = 0.1667 0.3333 0.4167 (  4642 PWs)   bands (ev):

     2.6871   2.9581   3.0652   3.0736   3.4439   3.4665   3.5377   3.6112
     3.6959   3.7542   3.7814   3.8367   3.9183   3.9383   3.9561   4.0080
     4.2393   4.4763   4.4907   4.5007   4.7775   5.7047   6.7671   7.6417
     9.7324  10.6158

          k = 0.1667 0.3333-0.5000 (  4636 PWs)   bands (ev):

     2.8398   2.8399   3.0868   3.0868   3.4330   3.4331   3.5825   3.5826
     3.7359   3.7360   3.8605   3.8605   3.8774   3.8775   3.9731   3.9732
     4.3722   4.3722   4.4775   4.4776   5.1677   5.1678   7.2097   7.2097
    10.0922  10.0923

          k = 0.1667 0.4167 0.4167 (  4633 PWs)   bands (ev):

     2.7837   2.9817   2.9817   3.0310   3.4845   3.5016   3.5017   3.5932
     3.7592   3.8051   3.8052   3.8866   3.9565   3.9567   3.9598   3.9892
     4.2308   4.4276   4.4276   4.4355   5.1100   6.1169   6.1170   7.1251
    10.0114  11.0758

          k = 0.1667 0.4167-0.5000 (  4634 PWs)   bands (ev):

     2.8829   2.8829   3.0054   3.0054   3.4884   3.4884   3.5551   3.5551
     3.7852   3.7853   3.8487   3.8489   3.9670   3.9670   4.0026   4.0026
     4.3228   4.3229   4.4049   4.4050   5.5558   5.5559   6.5955   6.5956
    10.4806  10.4806

          k = 0.1667-0.5000-0.5000 (  4624 PWs)   bands (ev):

     2.9378   2.9378   2.9378   2.9378   3.5290   3.5290   3.5292   3.5292
     3.8037   3.8038   3.8038   3.8040   4.0355   4.0355   4.0357   4.0357
     4.3310   4.3311   4.3311   4.3312   6.0330   6.0331   6.0331   6.0331
    11.0119  11.0120

          k = 0.2500 0.2500 0.2500 (  4632 PWs)   bands (ev):

     2.2562   2.9815   2.9815   2.9815   3.3947   3.3947   3.3947   3.7003
     3.7003   3.7210   3.8912   3.8913   3.8913   4.0560   4.0560   4.0562
     4.2181   4.2181   4.6143   4.6143   4.6144   7.0200   7.0200   7.0200
    10.7120  10.7121

          k = 0.2500 0.2500 0.3333 (  4642 PWs)   bands (ev):

     2.4260   2.9534   3.0046   3.0046   3.4530   3.4531   3.4730   3.6740
     3.7056   3.8091   3.8426   3.8578   3.8579   3.9541   4.0059   4.0061
     4.2765   4.3203   4.5915   4.5916   4.6037   6.2670   7.3376   7.3376
    10.0340  10.0341

          k = 0.2500 0.2500 0.4167 (  4644 PWs)   bands (ev):

     2.6013   2.8808   3.0404   3.0404   3.4330   3.4330   3.5533   3.6442
     3.7347   3.7679   3.8447   3.8624   3.8875   3.8876   3.9794   3.9795
     4.4175   4.5506   4.5593   4.5594   4.5652   5.5846   7.6507   7.6507
     9.4971   9.4972

          k = 0.2500 0.2500-0.5000 (  4630 PWs)   bands (ev):

     2.7595   2.7595   3.0601   3.0601   3.4083   3.4083   3.6099   3.6100
     3.7878   3.7878   3.7902   3.7903   3.9354   3.9357   3.9482   3.9483
     4.5014   4.5015   4.5436   4.5437   5.0038   5.0038   7.8074   7.8074
     9.2647   9.2647

          k = 0.2500 0.3333 0.3333 (  4634 PWs)   bands (ev):

     2.5208   2.9410   2.9410   2.9733   3.4743   3.4928   3.4929   3.6675
     3.6832   3.8486   3.8487   3.9068   3.9348   3.9349   3.9630   4.0589
     4.2718   4.4716   4.5764   4.5905   4.5906   6.6130   6.6131   7.6090
     9.3428  10.3599

          k = 0.2500 0.3333 0.4167 (  4636 PWs)   bands (ev):

     2.6275   2.8482   2.9423   2.9572   3.4670   3.4701   3.5412   3.6338
     3.6962   3.7969   3.8415   3.8558   3.9491   4.0199   4.0488   4.0824
     4.3834   4.5466   4.5564   4.5581   4.7930   5.9144   7.0229   7.7267
     8.9699   9.6851

          k = 0.2500 0.3333-0.5000 (  4638 PWs)   bands (ev):

     2.7396   2.7396   2.9486   2.9486   3.4581   3.4581   3.5899   3.5900
     3.7366   3.7367   3.8387   3.8389   4.0130   4.0131   4.0754   4.0754
     4.4911   4.4911   4.5332   4.5333   5.2948   5.2948   7.4537   7.4537
     9.1609   9.1610

          k = 0.2500 0.4167 0.4167 (  4642 PWs)   bands (ev):

     2.6776   2.8409   2.8409   2.8958   3.4934   3.5217   3.5218   3.6144
     3.6817   3.7660   3.7660   3.7891   4.1048   4.1049   4.1541   4.2413
     4.3477   4.5124   4.5198   4.5199   5.1855   6.3394   6.3395   7.3813
     9.0466  10.1222

          k = 0.2500 0.4167-0.5000 (  4638 PWs)   bands (ev):

     2.7501   2.7501   2.8570   2.8570   3.5087   3.5087   3.5735   3.5736
     3.7084   3.7085   3.7603   3.7605   4.1873   4.1873   4.1924   4.1925
     4.4430   4.4431   4.4914   4.4915   5.7114   5.7115   6.8455   6.8455
     9.5029   9.5030

          k = 0.2500-0.5000-0.5000 (  4640 PWs)   bands (ev):

     2.7899   2.7899   2.7899   2.7899   3.5495   3.5496   3.5497   3.5497
     3.7137   3.7138   3.7138   3.7140   4.2587   4.2588   4.2589   4.2589
     4.4322   4.4323   4.4323   4.4324   6.2377   6.2377   6.2377   6.2377
    10.0408  10.0409

          k = 0.3333 0.3333 0.3333 (  4626 PWs)   bands (ev):

     2.5482   2.8779   2.8779   2.8779   3.5002   3.5003   3.5003   3.6548
     3.6548   3.8128   3.8128   3.8130   4.0433   4.0433   4.0433   4.3816
     4.3816   4.4812   4.5979   4.5979   4.5981   6.9554   6.9555   6.9555
     9.5455   9.5456

          k = 0.3333 0.3333 0.4167 (  4643 PWs)   bands (ev):

     2.6016   2.7744   2.8404   2.8404   3.4984   3.4984   3.5421   3.6258
     3.6544   3.7360   3.7652   3.7654   4.1310   4.1701   4.1701   4.3123
     4.4754   4.5770   4.5771   4.5880   4.9720   6.2382   7.3575   7.3575
     8.8547   8.8548

          k = 0.3333 0.3333-0.5000 (  4658 PWs)   bands (ev):

     2.6788   2.6788   2.8280   2.8280   3.4960   3.4960   3.5865   3.5867
     3.6820   3.6820   3.7502   3.7504   4.2225   4.2226   4.2240   4.2240
     4.5461   4.5461   4.5601   4.5603   5.5662   5.5662   7.6260   7.6261
     8.4890   8.4891

          k = 0.3333 0.4167 0.4167 (  4648 PWs)   bands (ev):

     2.6124   2.7370   2.7370   2.7710   3.5220   3.5404   3.5405   3.6158
     3.6294   3.6939   3.6940   3.7060   4.2810   4.2811   4.2982   4.4490
     4.4566   4.5655   4.5743   4.5744   5.4100   6.6759   6.6759   7.5958
     8.3144   9.2432

          k = 0.3333 0.4167-0.5000 (  4648 PWs)   bands (ev):

     2.6588   2.6588   2.7361   2.7361   3.5355   3.5355   3.5821   3.5822
     3.6471   3.6471   3.6820   3.6822   4.3511   4.3511   4.3782   4.3784
     4.5344   4.5344   4.5515   4.5517   5.9997   5.9997   7.2010   7.2010
     8.6095   8.6095

          k = 0.3333-0.5000-0.5000 (  4648 PWs)   bands (ev):

     2.6786   2.6786   2.6786   2.6786   3.5678   3.5679   3.5680   3.5680
     3.6440   3.6442   3.6442   3.6443   4.4371   4.4372   4.4373   4.4373
     4.5131   4.5132   4.5132   4.5133   6.5640   6.5640   6.5640   6.5640
     9.1434   9.1435

          k = 0.4167 0.4167 0.4167 (  4653 PWs)   bands (ev):

     2.5907   2.6736   2.6736   2.6736   3.5551   3.5551   3.5551   3.6053
     3.6053   3.6449   3.6449   3.6451   4.4150   4.4150   4.4150   4.5264
     4.5264   4.5869   4.5869   4.5871   5.8477   7.1259   7.1260   7.1260
     8.4628   8.4629

          k = 0.4167 0.4167-0.5000 (  4680 PWs)   bands (ev):

     2.6119   2.6119   2.6523   2.6523   3.5614   3.5614   3.5843   3.5845
     3.6107   3.6107   3.6271   3.6273   4.4748   4.4748   4.4971   4.4972
     4.5737   4.5737   4.5769   4.5770   6.4439   6.4439   7.5431   7.5431
     7.9351   7.9352

          k = 0.4167-0.5000-0.5000 (  4656 PWs)   bands (ev):

     2.6101   2.6101   2.6101   2.6101   3.5807   3.5808   3.5810   3.5810
     3.6003   3.6005   3.6005   3.6006   4.5468   4.5468   4.5470   4.5470
     4.5651   4.5652   4.5652   4.5653   7.0226   7.0226   7.0226   7.0226
     8.3380   8.3381

          k =-0.5000-0.5000-0.5000 (  4680 PWs)   bands (ev):

     2.5870   2.5870   2.5870   2.5870   3.5854   3.5854   3.5855   3.5855
     3.5855   3.5857   3.5857   3.5857   4.5830   4.5830   4.5831   4.5831
     4.5831   4.5832   4.5832   4.5832   7.5197   7.5198   7.5198   7.5198
     7.7255   7.7255

     the Fermi energy is     7.3408 ev

!    total energy              =   -3100.63905783 Ry

     total all-electron energy =   -152096.023422 Ry
     estimated scf accuracy    <       0.00000018 Ry
     smearing contrib. (-TS)   =      -0.82622074 Ry
     internal energy E=F+TS    =   -3099.81283708 Ry

     The total energy is F=E-TS. E is the sum of the following terms:
     one-electron contribution =     -12.26503907 Ry
     hartree contribution      =      50.80604545 Ry
     xc contribution           =    -127.18291715 Ry
     ewald contribution        =    -241.23857078 Ry
     one-center paw contrib.   =   -2769.93235554 Ry

     convergence has been achieved in  12 iterations

     Forces acting on atoms (cartesian axes, Ry/au):

     atom    1 type  1   force =     0.00000000    0.00000000    0.00000000
     atom    2 type  1   force =     0.00000000    0.00000000    0.00000000
     atom    3 type  1   force =     0.00000000    0.00000000    0.00000000
     atom    4 type  1   force =     0.00000000    0.00000000    0.00000000

     Total force =     0.000000     Total SCF correction =     0.000000

     Writing all to output data dir ./pwscf.save/
 
     init_run     :      1.01s CPU      1.38s WALL (       1 calls)
     electrons    :     34.47s CPU     36.19s WALL (       1 calls)
     forces       :      0.17s CPU      0.27s WALL (       1 calls)

     Called by init_run:
     wfcinit      :      0.76s CPU      0.77s WALL (       1 calls)
     potinit      :      0.06s CPU      0.25s WALL (       1 calls)
     hinit0       :      0.17s CPU      0.24s WALL (       1 calls)

     Called by electrons:
     c_bands      :     30.36s CPU     30.81s WALL (      13 calls)
     sum_band     :      3.16s CPU      3.28s WALL (      13 calls)
     v_of_rho     :      0.20s CPU      1.45s WALL (      13 calls)
     newd         :      0.11s CPU      0.22s WALL (      13 calls)
     PAW_pot      :      0.66s CPU      0.67s WALL (      13 calls)
     mix_rho      :      0.01s CPU      0.01s WALL (      13 calls)

     Called by c_bands:
     init_us_2    :      0.20s CPU      0.21s WALL (    2352 calls)
     init_us_2:cp :      0.20s CPU      0.21s WALL (    2352 calls)
     cegterg      :     28.91s CPU     29.33s WALL (    1092 calls)

     Called by *egterg:
     cdiaghg      :      5.62s CPU      5.68s WALL (    5306 calls)
     h_psi        :     18.53s CPU     18.84s WALL (    5474 calls)
     s_psi        :      0.81s CPU      0.82s WALL (    5474 calls)
     g_psi        :      0.08s CPU      0.08s WALL (    4298 calls)

     Called by h_psi:
     h_psi:calbec :      1.13s CPU      1.15s WALL (    5474 calls)
     vloc_psi     :     16.55s CPU     16.83s WALL (    5474 calls)
     add_vuspsi   :      0.80s CPU      0.81s WALL (    5474 calls)

     General routines
     calbec       :      1.48s CPU      1.51s WALL (    6902 calls)
     fft          :      0.26s CPU      1.79s WALL (     155 calls)
     ffts         :      0.01s CPU      0.03s WALL (      13 calls)
     fftw         :     17.88s CPU     18.19s WALL (  227162 calls)
 
     Parallel routines
 
     PWSCF        :     36.26s CPU     40.26s WALL

 
   This run was terminated on:  12:36:30   5Apr2024            

=------------------------------------------------------------------------------=
   JOB DONE.
=------------------------------------------------------------------------------=
