MPI startup(): Warning: I_MPI_PMI_LIBRARY will be ignored since the hydra process manager was found
MPI startup(): Warning: I_MPI_PMI_LIBRARY will be ignored since the hydra process manager was found
MPI startup(): Warning: I_MPI_PMI_LIBRARY will be ignored since the hydra process manager was found
MPI startup(): Warning: I_MPI_PMI_LIBRARY will be ignored since the hydra process manager was found
MPI startup(): Warning: I_MPI_PMI_LIBRARY will be ignored since the hydra process manager was found
MPI startup(): Warning: I_MPI_PMI_LIBRARY will be ignored since the hydra process manager was found
MPI startup(): Warning: I_MPI_PMI_LIBRARY will be ignored since the hydra process manager was found
MPI startup(): Warning: I_MPI_PMI_LIBRARY will be ignored since the hydra process manager was found
MPI startup(): Warning: I_MPI_PMI_LIBRARY will be ignored since the hydra process manager was found
MPI startup(): Warning: I_MPI_PMI_LIBRARY will be ignored since the hydra process manager was found

     Program PWSCF v.7.0 starts on 16Feb2024 at 13:47:23 

     This program is part of the open-source Quantum ESPRESSO suite
     for quantum simulation of materials; please cite
         "P. Giannozzi et al., J. Phys.:Condens. Matter 21 395502 (2009);
         "P. Giannozzi et al., J. Phys.:Condens. Matter 29 465901 (2017);
         "P. Giannozzi et al., J. Chem. Phys. 152 154105 (2020);
          URL http://www.quantum-espresso.org", 
     in publications or presentations arising from this work. More details at
     http://www.quantum-espresso.org/quote

     Parallel version (MPI), running on    10 processors

     MPI processes distributed on     1 nodes
     R & G space division:  proc/nbgrp/npool/nimage =      10
     113097 MiB available memory on the printing compute node when the environment starts
 
     Reading input from GSF111R_0.45.in
Warning: card &CELL ignored
Warning: card / ignored

     Current dimensions of program PWSCF are:
     Max number of different atomic species (ntypx) = 10
     Max number of k-points (npk) =  40000
     Max angular momentum in pseudopotentials (lmaxx) =  4
     file Au.pbe-n-kjpaw_psl.1.0.0.UPF: wavefunction(s)  6S 5D renormalized
     Found identity + ( -0.5000  0.5000  0.0000) symmetry
     This is a supercell, fractional translations are disabled

     Subspace diagonalization in iterative solution of the eigenvalue problem:
     one sub-group per band group will be used
     scalapack distributed-memory algorithm (size of sub-group:  3*  3 procs)

 
     Parallelization info
     --------------------
     sticks:   dense  smooth     PW     G-vecs:    dense   smooth      PW
     Min          85      85     25                18799    18799    3045
     Max          87      87     26                18816    18816    3065
     Sum         859     859    251               188065   188065   30575
 
     Using Slab Decomposition
 


     bravais-lattice index     =            0
     lattice parameter (alat)  =       9.6360  a.u.
     unit-cell volume          =    3935.2145 (a.u.)^3
     number of atoms/cell      =           26
     number of atomic types    =            1
     number of electrons       =       286.00
     number of Kohn-Sham states=          172
     kinetic-energy cutoff     =      50.0000  Ry
     charge density cutoff     =     200.0000  Ry
     scf convergence threshold =      1.0E-06
     mixing beta               =       0.0100
     number of iterations used =            8  plain     mixing
     energy convergence thresh.=      1.0E-04
     force convergence thresh. =      1.0E-03
     Exchange-correlation= SLA  PW   PBX  PBC
                           (   1   4   3   4   0   0   0)
     nstep                     =           50


     celldm(1)=   9.635999  celldm(2)=   0.000000  celldm(3)=   0.000000
     celldm(4)=   0.000000  celldm(5)=   0.000000  celldm(6)=   0.000000

     crystal axes: (cart. coord. in units of alat)
               a(1) = (   1.000000   0.000000   0.000000 )  
               a(2) = (   0.000000   0.577350   0.000000 )  
               a(3) = (  -0.000005   0.000000   7.617966 )  

     reciprocal axes: (cart. coord. in units 2 pi/alat)
               b(1) = (  1.000000  0.000000  0.000001 )  
               b(2) = (  0.000000  1.732052  0.000000 )  
               b(3) = (  0.000000  0.000000  0.131269 )  


     PseudoPot. # 1 for Au read from file:
     ./Au.pbe-n-kjpaw_psl.1.0.0.UPF
     MD5 check sum: 4db85c736373c707a97ce4c36c2a9d23
     Pseudo is Projector augmented-wave + core cor, Zval = 11.0
     Generated using &quot;atomic&quot; code by A. Dal Corso  v.6.3
     Shape of augmentation charge: PSQ
     Using radial grid of 1279 points,  6 beta functions with: 
                l(1) =   0
                l(2) =   0
                l(3) =   1
                l(4) =   1
                l(5) =   2
                l(6) =   2
     Q(r) pseudized with 0 coefficients 


     atomic species   valence    mass     pseudopotential
        Au            11.00   196.96657     Au( 1.00)

     No symmetry found



   Cartesian axes

     site n.     atom                  positions (alat units)
         1           Au  tau(   1) = (   0.0000000   0.0000000   0.0000000  )
         2           Au  tau(   2) = (   0.9999954   0.2598079   5.6568550  )
         3           Au  tau(   3) = (   0.9999966   0.2598079   4.2426411  )
         4           Au  tau(   4) = (   0.9999976   0.0000000   2.8284275  )
         5           Au  tau(   5) = (   0.9999988   0.0000000   1.4142138  )
         6           Au  tau(   6) = (   0.3333329   0.0000000   0.4714045  )
         7           Au  tau(   7) = (   0.3333296   0.2598079   4.7140455  )
         8           Au  tau(   8) = (   0.3333308   0.2598079   3.2998319  )
         9           Au  tau(   9) = (   0.3333318   0.0000000   1.8856185  )
        10           Au  tau(  10) = (   0.6666659   0.0000000   0.9428093  )
        11           Au  tau(  11) = (   0.6666625   0.2598079   5.1854506  )
        12           Au  tau(  12) = (   0.6666637   0.2598079   3.7712367  )
        13           Au  tau(  13) = (   0.6666649   0.0000000   2.3570234  )
        14           Au  tau(  14) = (   0.8333330   0.2886749   0.4714045  )
        15           Au  tau(  15) = (   0.8333294   0.5484829   4.7140455  )
        16           Au  tau(  16) = (   0.8333306   0.5484829   3.2998319  )
        17           Au  tau(  17) = (   0.8333318   0.2886749   1.8856185  )
        18           Au  tau(  18) = (   0.1666658   0.2886749   0.9428093  )
        19           Au  tau(  19) = (   0.1666624   0.5484829   5.1854506  )
        20           Au  tau(  20) = (   0.1666636   0.5484829   3.7712367  )
        21           Au  tau(  21) = (   0.1666648   0.2886749   2.3570234  )
        22           Au  tau(  22) = (   0.5000001   0.2886749   0.0000000  )
        23           Au  tau(  23) = (   0.4999955   0.5484829   5.6568550  )
        24           Au  tau(  24) = (   0.4999965   0.5484829   4.2426411  )
        25           Au  tau(  25) = (   0.4999977   0.2886749   2.8284275  )
        26           Au  tau(  26) = (   0.4999989   0.2886749   1.4142138  )

     number of k points=    50  Gaussian smearing, width (Ry)=  0.0020
                       cart. coord. in units 2pi/alat
        k(    1) = (   0.0000000   0.0000000   0.0000000), wk =   0.0208333
        k(    2) = (   0.0000000   0.1443376   0.0000000), wk =   0.0416667
        k(    3) = (   0.0000000   0.2886753   0.0000000), wk =   0.0416667
        k(    4) = (   0.0000000   0.4330129   0.0000000), wk =   0.0416667
        k(    5) = (   0.0000000   0.5773506   0.0000000), wk =   0.0416667
        k(    6) = (   0.0000000   0.7216882   0.0000000), wk =   0.0416667
        k(    7) = (   0.0000000  -0.8660259   0.0000000), wk =   0.0208333
        k(    8) = (   0.1250000   0.0000000   0.0000001), wk =   0.0416667
        k(    9) = (   0.1250000   0.1443376   0.0000001), wk =   0.0416667
        k(   10) = (   0.1250000   0.2886753   0.0000001), wk =   0.0416667
        k(   11) = (   0.1250000   0.4330129   0.0000001), wk =   0.0416667
        k(   12) = (   0.1250000   0.5773506   0.0000001), wk =   0.0416667
        k(   13) = (   0.1250000   0.7216882   0.0000001), wk =   0.0416667
        k(   14) = (   0.1250000  -0.8660259   0.0000001), wk =   0.0416667
        k(   15) = (   0.1250000  -0.7216882   0.0000001), wk =   0.0416667
        k(   16) = (   0.1250000  -0.5773506   0.0000001), wk =   0.0416667
        k(   17) = (   0.1250000  -0.4330129   0.0000001), wk =   0.0416667
        k(   18) = (   0.1250000  -0.2886753   0.0000001), wk =   0.0416667
        k(   19) = (   0.1250000  -0.1443376   0.0000001), wk =   0.0416667
        k(   20) = (   0.2500000   0.0000000   0.0000002), wk =   0.0416667
        k(   21) = (   0.2500000   0.1443376   0.0000002), wk =   0.0416667
        k(   22) = (   0.2500000   0.2886753   0.0000002), wk =   0.0416667
        k(   23) = (   0.2500000   0.4330129   0.0000002), wk =   0.0416667
        k(   24) = (   0.2500000   0.5773506   0.0000002), wk =   0.0416667
        k(   25) = (   0.2500000   0.7216882   0.0000002), wk =   0.0416667
        k(   26) = (   0.2500000  -0.8660259   0.0000002), wk =   0.0416667
        k(   27) = (   0.2500000  -0.7216882   0.0000002), wk =   0.0416667
        k(   28) = (   0.2500000  -0.5773506   0.0000002), wk =   0.0416667
        k(   29) = (   0.2500000  -0.4330129   0.0000002), wk =   0.0416667
        k(   30) = (   0.2500000  -0.2886753   0.0000002), wk =   0.0416667
        k(   31) = (   0.2500000  -0.1443376   0.0000002), wk =   0.0416667
        k(   32) = (   0.3750000   0.0000000   0.0000002), wk =   0.0416667
        k(   33) = (   0.3750000   0.1443376   0.0000002), wk =   0.0416667
        k(   34) = (   0.3750000   0.2886753   0.0000002), wk =   0.0416667
        k(   35) = (   0.3750000   0.4330129   0.0000002), wk =   0.0416667
        k(   36) = (   0.3750000   0.5773506   0.0000002), wk =   0.0416667
        k(   37) = (   0.3750000   0.7216882   0.0000002), wk =   0.0416667
        k(   38) = (   0.3750000  -0.8660259   0.0000002), wk =   0.0416667
        k(   39) = (   0.3750000  -0.7216882   0.0000002), wk =   0.0416667
        k(   40) = (   0.3750000  -0.5773506   0.0000002), wk =   0.0416667
        k(   41) = (   0.3750000  -0.4330129   0.0000002), wk =   0.0416667
        k(   42) = (   0.3750000  -0.2886753   0.0000002), wk =   0.0416667
        k(   43) = (   0.3750000  -0.1443376   0.0000002), wk =   0.0416667
        k(   44) = (  -0.5000000   0.0000000  -0.0000003), wk =   0.0208333
        k(   45) = (  -0.5000000   0.1443376  -0.0000003), wk =   0.0416667
        k(   46) = (  -0.5000000   0.2886753  -0.0000003), wk =   0.0416667
        k(   47) = (  -0.5000000   0.4330129  -0.0000003), wk =   0.0416667
        k(   48) = (  -0.5000000   0.5773506  -0.0000003), wk =   0.0416667
        k(   49) = (  -0.5000000   0.7216882  -0.0000003), wk =   0.0416667
        k(   50) = (  -0.5000000  -0.8660259  -0.0000003), wk =   0.0208333

     Dense  grid:   188065 G-vectors     FFT dimensions: (  45,  25, 360)

     Estimated max dynamical RAM per process >     418.32 MB

     Estimated total dynamical RAM >       4.09 GB

     Initial potential from superposition of free atoms

     starting charge     285.9971, renormalised to     286.0000

     negative rho (up, down):  2.402E-03 0.000E+00
     Starting wfcs are  234 randomized atomic wfcs
     Checking if some PAW data can be deallocated... 

     total cpu time spent up to now is       28.8 secs

     Self-consistent Calculation

     iteration #  1     ecut=    50.00 Ry     beta= 0.01
     Davidson diagonalization with overlap
     ethr =  1.00E-02,  avg # of iterations =  5.1

     Threshold (ethr) on eigenvalues was too large:
     Diagonalizing with lowered threshold

     Davidson diagonalization with overlap
     ethr =  3.84E-04,  avg # of iterations =  3.8

     negative rho (up, down):  2.389E-03 0.000E+00

     total cpu time spent up to now is      184.7 secs

     total energy              =  -20153.82623911 Ry
     estimated scf accuracy    <       1.41693964 Ry

     iteration #  2     ecut=    50.00 Ry     beta= 0.01
     Davidson diagonalization with overlap
     ethr =  4.95E-04,  avg # of iterations =  1.0

     negative rho (up, down):  2.377E-03 0.000E+00

     total cpu time spent up to now is      234.6 secs

     total energy              =  -20153.83729683 Ry
     estimated scf accuracy    <       1.24099767 Ry

     iteration #  3     ecut=    50.00 Ry     beta= 0.01
     Davidson diagonalization with overlap
     ethr =  4.34E-04,  avg # of iterations =  1.0

     negative rho (up, down):  2.316E-03 0.000E+00

     total cpu time spent up to now is      284.3 secs

     total energy              =  -20153.74379527 Ry
     estimated scf accuracy    <       1.20228869 Ry

     iteration #  4     ecut=    50.00 Ry     beta= 0.01
     Davidson diagonalization with overlap
     ethr =  4.20E-04,  avg # of iterations =  1.0

     negative rho (up, down):  2.237E-03 0.000E+00

     total cpu time spent up to now is      334.2 secs

     total energy              =  -20153.60943776 Ry
     estimated scf accuracy    <       0.94926594 Ry

     iteration #  5     ecut=    50.00 Ry     beta= 0.01
     Davidson diagonalization with overlap
     ethr =  3.32E-04,  avg # of iterations =  1.0

     negative rho (up, down):  2.111E-03 0.000E+00

     total cpu time spent up to now is      383.9 secs

     total energy              =  -20153.41758505 Ry
     estimated scf accuracy    <       0.67719456 Ry

     iteration #  6     ecut=    50.00 Ry     beta= 0.01
     Davidson diagonalization with overlap
     ethr =  2.37E-04,  avg # of iterations =  1.3

     negative rho (up, down):  2.082E-03 0.000E+00

     total cpu time spent up to now is      435.8 secs

     total energy              =  -20153.43997671 Ry
     estimated scf accuracy    <       0.21748724 Ry

     iteration #  7     ecut=    50.00 Ry     beta= 0.01
     Davidson diagonalization with overlap
     ethr =  7.60E-05,  avg # of iterations =  6.9

     negative rho (up, down):  2.081E-03 0.000E+00

     total cpu time spent up to now is      507.3 secs

     total energy              =  -20153.46563095 Ry
     estimated scf accuracy    <       0.10466502 Ry

     iteration #  8     ecut=    50.00 Ry     beta= 0.01
     Davidson diagonalization with overlap
     c_bands:  3 eigenvalues not converged
     ethr =  3.66E-05,  avg # of iterations =  7.4

     negative rho (up, down):  2.010E-03 0.000E+00

     total cpu time spent up to now is      578.3 secs

     total energy              =  -20153.46760228 Ry
     estimated scf accuracy    <       0.11673568 Ry

     iteration #  9     ecut=    50.00 Ry     beta= 0.01
     Davidson diagonalization with overlap
     ethr =  3.66E-05,  avg # of iterations =  5.0

     negative rho (up, down):  2.046E-03 0.000E+00

     total cpu time spent up to now is      688.0 secs

     total energy              =  -20153.53343264 Ry
     estimated scf accuracy    <       0.21308233 Ry

     iteration # 10     ecut=    50.00 Ry     beta= 0.01
     Davidson diagonalization with overlap
     ethr =  3.66E-05,  avg # of iterations =  1.4

     negative rho (up, down):  2.044E-03 0.000E+00

     total cpu time spent up to now is      740.9 secs

     total energy              =  -20153.51671330 Ry
     estimated scf accuracy    <       0.16131302 Ry

     iteration # 11     ecut=    50.00 Ry     beta= 0.01
     Davidson diagonalization with overlap
     ethr =  3.66E-05,  avg # of iterations =  1.0

     negative rho (up, down):  2.127E-03 0.000E+00

     total cpu time spent up to now is      790.9 secs

     total energy              =  -20153.49009619 Ry
     estimated scf accuracy    <       0.11937566 Ry

     iteration # 12     ecut=    50.00 Ry     beta= 0.01
     Davidson diagonalization with overlap
     ethr =  3.66E-05,  avg # of iterations =  1.5

     negative rho (up, down):  2.118E-03 0.000E+00

     total cpu time spent up to now is      842.7 secs

     total energy              =  -20153.50930377 Ry
     estimated scf accuracy    <       0.06429482 Ry

     iteration # 13     ecut=    50.00 Ry     beta= 0.01
     Davidson diagonalization with overlap
     ethr =  2.25E-05,  avg # of iterations =  1.1

     negative rho (up, down):  2.119E-03 0.000E+00

     total cpu time spent up to now is      893.1 secs

     total energy              =  -20153.51241660 Ry
     estimated scf accuracy    <       0.08757138 Ry

     iteration # 14     ecut=    50.00 Ry     beta= 0.01
     Davidson diagonalization with overlap
     ethr =  2.25E-05,  avg # of iterations =  1.0

     negative rho (up, down):  2.101E-03 0.000E+00

     total cpu time spent up to now is      943.0 secs

     total energy              =  -20153.51820521 Ry
     estimated scf accuracy    <       0.09252644 Ry

     iteration # 15     ecut=    50.00 Ry     beta= 0.01
     Davidson diagonalization with overlap
     ethr =  2.25E-05,  avg # of iterations =  1.0

     negative rho (up, down):  2.166E-03 0.000E+00

     total cpu time spent up to now is      992.8 secs

     total energy              =  -20153.48989804 Ry
     estimated scf accuracy    <       0.10773878 Ry

     iteration # 16     ecut=    50.00 Ry     beta= 0.01
     Davidson diagonalization with overlap
     ethr =  2.25E-05,  avg # of iterations =  2.3

     negative rho (up, down):  2.204E-03 0.000E+00

     total cpu time spent up to now is     1048.4 secs

     total energy              =  -20153.49192805 Ry
     estimated scf accuracy    <       0.05864581 Ry

     iteration # 17     ecut=    50.00 Ry     beta= 0.01
     Davidson diagonalization with overlap
     ethr =  2.05E-05,  avg # of iterations =  1.0

     negative rho (up, down):  2.335E-03 0.000E+00

     total cpu time spent up to now is     1098.1 secs

     total energy              =  -20153.48064345 Ry
     estimated scf accuracy    <       0.04815716 Ry

     iteration # 18     ecut=    50.00 Ry     beta= 0.01
     Davidson diagonalization with overlap
     ethr =  1.68E-05,  avg # of iterations =  1.1

     negative rho (up, down):  2.375E-03 0.000E+00

     total cpu time spent up to now is     1148.7 secs

     total energy              =  -20153.47870036 Ry
     estimated scf accuracy    <       0.02066006 Ry

     iteration # 19     ecut=    50.00 Ry     beta= 0.01
     Davidson diagonalization with overlap
     ethr =  7.22E-06,  avg # of iterations =  5.1

     negative rho (up, down):  2.341E-03 0.000E+00

     total cpu time spent up to now is     1210.0 secs

     total energy              =  -20153.47643435 Ry
     estimated scf accuracy    <       0.01102713 Ry

     iteration # 20     ecut=    50.00 Ry     beta= 0.01
     Davidson diagonalization with overlap
     c_bands:  1 eigenvalues not converged
     c_bands:  1 eigenvalues not converged
     ethr =  3.86E-06,  avg # of iterations =  4.5

     negative rho (up, down):  2.426E-03 0.000E+00

     total cpu time spent up to now is     1276.0 secs

     total energy              =  -20153.47655227 Ry
     estimated scf accuracy    <       0.00458702 Ry

     iteration # 21     ecut=    50.00 Ry     beta= 0.01
     Davidson diagonalization with overlap
     c_bands:  1 eigenvalues not converged
     ethr =  1.60E-06,  avg # of iterations =  7.1

     negative rho (up, down):  2.411E-03 0.000E+00

     total cpu time spent up to now is     1380.4 secs

     total energy              =  -20153.47830061 Ry
     estimated scf accuracy    <       0.00276372 Ry

     iteration # 22     ecut=    50.00 Ry     beta= 0.01
     Davidson diagonalization with overlap
     ethr =  9.66E-07,  avg # of iterations =  3.2

     negative rho (up, down):  2.339E-03 0.000E+00

     total cpu time spent up to now is     1445.3 secs

     total energy              =  -20153.47900149 Ry
     estimated scf accuracy    <       0.00119493 Ry

     iteration # 23     ecut=    50.00 Ry     beta= 0.01
     Davidson diagonalization with overlap
     ethr =  4.18E-07,  avg # of iterations =  2.4

     negative rho (up, down):  2.344E-03 0.000E+00

     total cpu time spent up to now is     1516.4 secs

     total energy              =  -20153.47863091 Ry
     estimated scf accuracy    <       0.00202006 Ry

     iteration # 24     ecut=    50.00 Ry     beta= 0.01
     Davidson diagonalization with overlap
     ethr =  4.18E-07,  avg # of iterations =  1.1

     negative rho (up, down):  2.358E-03 0.000E+00

     total cpu time spent up to now is     1567.4 secs

     total energy              =  -20153.47857485 Ry
     estimated scf accuracy    <       0.00074592 Ry

     iteration # 25     ecut=    50.00 Ry     beta= 0.01
     Davidson diagonalization with overlap
     ethr =  2.61E-07,  avg # of iterations =  1.1

     negative rho (up, down):  2.365E-03 0.000E+00

     total cpu time spent up to now is     1618.3 secs

     total energy              =  -20153.47856947 Ry
     estimated scf accuracy    <       0.00044495 Ry

     iteration # 26     ecut=    50.00 Ry     beta= 0.01
     Davidson diagonalization with overlap
     ethr =  1.56E-07,  avg # of iterations =  2.0

     negative rho (up, down):  2.342E-03 0.000E+00

     total cpu time spent up to now is     1677.2 secs

     total energy              =  -20153.47859480 Ry
     estimated scf accuracy    <       0.00033347 Ry

     iteration # 27     ecut=    50.00 Ry     beta= 0.01
     Davidson diagonalization with overlap
     ethr =  1.17E-07,  avg # of iterations =  1.3

     negative rho (up, down):  2.343E-03 0.000E+00

     total cpu time spent up to now is     1728.9 secs

     total energy              =  -20153.47858426 Ry
     estimated scf accuracy    <       0.00016932 Ry

     iteration # 28     ecut=    50.00 Ry     beta= 0.01
     Davidson diagonalization with overlap
     ethr =  5.92E-08,  avg # of iterations =  2.0

     negative rho (up, down):  2.344E-03 0.000E+00

     total cpu time spent up to now is     1790.1 secs

     total energy              =  -20153.47858973 Ry
     estimated scf accuracy    <       0.00011158 Ry

     iteration # 29     ecut=    50.00 Ry     beta= 0.01
     Davidson diagonalization with overlap
     ethr =  3.90E-08,  avg # of iterations =  2.1

     negative rho (up, down):  2.327E-03 0.000E+00

     total cpu time spent up to now is     1849.7 secs

     total energy              =  -20153.47865673 Ry
     estimated scf accuracy    <       0.00010267 Ry

     iteration # 30     ecut=    50.00 Ry     beta= 0.01
     Davidson diagonalization with overlap
     ethr =  3.59E-08,  avg # of iterations =  2.0

     negative rho (up, down):  2.325E-03 0.000E+00

     total cpu time spent up to now is     1921.8 secs

     total energy              =  -20153.47861853 Ry
     estimated scf accuracy    <       0.00018248 Ry

     iteration # 31     ecut=    50.00 Ry     beta= 0.01
     Davidson diagonalization with overlap
     ethr =  3.59E-08,  avg # of iterations =  1.0

     negative rho (up, down):  2.325E-03 0.000E+00

     total cpu time spent up to now is     1972.1 secs

     total energy              =  -20153.47857206 Ry
     estimated scf accuracy    <       0.00007765 Ry

     iteration # 32     ecut=    50.00 Ry     beta= 0.01
     Davidson diagonalization with overlap
     ethr =  2.71E-08,  avg # of iterations =  3.0

     negative rho (up, down):  2.313E-03 0.000E+00

     total cpu time spent up to now is     2059.7 secs

     total energy              =  -20153.47860628 Ry
     estimated scf accuracy    <       0.00007122 Ry

     iteration # 33     ecut=    50.00 Ry     beta= 0.01
     Davidson diagonalization with overlap
     ethr =  2.49E-08,  avg # of iterations =  2.0

     negative rho (up, down):  2.315E-03 0.000E+00

     total cpu time spent up to now is     2130.7 secs

     total energy              =  -20153.47860361 Ry
     estimated scf accuracy    <       0.00004781 Ry

     iteration # 34     ecut=    50.00 Ry     beta= 0.01
     Davidson diagonalization with overlap
     ethr =  1.67E-08,  avg # of iterations =  2.0

     negative rho (up, down):  2.313E-03 0.000E+00

     total cpu time spent up to now is     2189.2 secs

     total energy              =  -20153.47861215 Ry
     estimated scf accuracy    <       0.00002266 Ry

     iteration # 35     ecut=    50.00 Ry     beta= 0.01
     Davidson diagonalization with overlap
     ethr =  7.92E-09,  avg # of iterations =  2.8

     negative rho (up, down):  2.301E-03 0.000E+00

     total cpu time spent up to now is     2264.9 secs

     total energy              =  -20153.47861460 Ry
     estimated scf accuracy    <       0.00003999 Ry

     iteration # 36     ecut=    50.00 Ry     beta= 0.01
     Davidson diagonalization with overlap
     ethr =  7.92E-09,  avg # of iterations =  3.6

     negative rho (up, down):  2.307E-03 0.000E+00

     total cpu time spent up to now is     2360.0 secs

     total energy              =  -20153.47859416 Ry
     estimated scf accuracy    <       0.00006742 Ry

     iteration # 37     ecut=    50.00 Ry     beta= 0.01
     Davidson diagonalization with overlap
     ethr =  7.92E-09,  avg # of iterations =  3.3

     negative rho (up, down):  2.300E-03 0.000E+00

     total cpu time spent up to now is     2444.8 secs

     total energy              =  -20153.47861298 Ry
     estimated scf accuracy    <       0.00001382 Ry

     iteration # 38     ecut=    50.00 Ry     beta= 0.01
     Davidson diagonalization with overlap
     ethr =  4.83E-09,  avg # of iterations =  2.0

     negative rho (up, down):  2.298E-03 0.000E+00

     total cpu time spent up to now is     2507.7 secs

     total energy              =  -20153.47861126 Ry
     estimated scf accuracy    <       0.00000868 Ry

     iteration # 39     ecut=    50.00 Ry     beta= 0.01
     Davidson diagonalization with overlap
     ethr =  3.03E-09,  avg # of iterations =  2.0

     negative rho (up, down):  2.299E-03 0.000E+00

     total cpu time spent up to now is     2581.9 secs

     total energy              =  -20153.47861374 Ry
     estimated scf accuracy    <       0.00000574 Ry

     iteration # 40     ecut=    50.00 Ry     beta= 0.01
     Davidson diagonalization with overlap
     ethr =  2.01E-09,  avg # of iterations =  1.0

     negative rho (up, down):  2.300E-03 0.000E+00

     total cpu time spent up to now is     2632.0 secs

     total energy              =  -20153.47861334 Ry
     estimated scf accuracy    <       0.00000392 Ry

     iteration # 41     ecut=    50.00 Ry     beta= 0.01
     Davidson diagonalization with overlap
     ethr =  1.37E-09,  avg # of iterations =  1.0

     negative rho (up, down):  2.300E-03 0.000E+00

     total cpu time spent up to now is     2682.5 secs

     total energy              =  -20153.47861358 Ry
     estimated scf accuracy    <       0.00000177 Ry

     iteration # 42     ecut=    50.00 Ry     beta= 0.01
     Davidson diagonalization with overlap
     ethr =  6.19E-10,  avg # of iterations =  1.0

     negative rho (up, down):  2.301E-03 0.000E+00

     total cpu time spent up to now is     2733.2 secs

     total energy              =  -20153.47861369 Ry
     estimated scf accuracy    <       0.00000141 Ry

     iteration # 43     ecut=    50.00 Ry     beta= 0.01
     Davidson diagonalization with overlap
     ethr =  4.94E-10,  avg # of iterations =  2.0

     negative rho (up, down):  2.301E-03 0.000E+00

     total cpu time spent up to now is     2795.2 secs

     total energy              =  -20153.47861358 Ry
     estimated scf accuracy    <       0.00000120 Ry

     iteration # 44     ecut=    50.00 Ry     beta= 0.01
     Davidson diagonalization with overlap
     ethr =  4.21E-10,  avg # of iterations =  2.0

     negative rho (up, down):  2.304E-03 0.000E+00

     total cpu time spent up to now is     2853.1 secs

     End of self-consistent calculation

          k = 0.0000 0.0000 0.0000 ( 23605 PWs)   bands (ev):

     1.5123   1.6497   1.8933   2.1931   2.5592   2.9500   3.3264   3.6281
     3.8212   3.8861   3.9249   4.0026   4.0642   4.0736   4.0755   4.2063
     4.2201   4.2821   4.4024   4.4317   4.4688   4.5522   4.5612   4.6018
     4.6355   4.6815   4.8480   4.9369   4.9999   5.0449   5.2112   5.3101
     5.4112   5.4508   5.7489   5.9830   6.1433   6.1691   6.1853   6.2276
     6.2470   6.2685   6.3095   6.3204   6.3252   6.3297   6.3352   6.3433
     6.3521   6.3525   6.3707   6.3882   6.4046   6.4095   6.4206   6.4257
     6.4396   6.4706   6.4761   6.4780   6.5134   6.5217   6.5372   6.5503
     6.5599   6.5616   6.5698   6.5861   6.5942   6.6287   6.6362   6.6975
     6.7416   6.7660   6.8714   6.8715   6.8756   6.8757   6.9067   7.0011
     7.0546   7.1407   7.1691   7.2627   7.4899   7.5497   7.6256   7.6586
     7.6615   7.6789   7.6830   7.6927   7.6982   7.7137   7.7330   7.7557
     7.7712   7.8465   7.8480   7.8669   7.8979   7.9471   8.0008   8.0272
     8.0446   8.1268   8.1680   8.1881   8.3131   8.3516   8.3788   8.3902
     8.5096   8.5185   8.5605   8.5713   8.5825   8.6746   8.6969   8.6974
     8.7090   8.7452   8.7596   8.7627   8.7840   8.7957   8.7980   8.8031
     8.8269   8.8362   8.8463   8.8638   8.8866   8.9091   8.9423   8.9825
     9.0199   9.0682   9.1203   9.2209   9.2255   9.4231  10.2109  10.5132
    10.5714  10.6306  10.9387  11.2594  11.4742  11.6307  11.7310  11.7903
    11.8579  11.8788  11.9436  12.1216  12.1239  13.5121  13.7330  13.9760
    14.0275  14.2917  14.5429  14.8690  14.8906  15.0733  15.3474  15.9026
    16.2748  16.4156  16.4632  16.4714

          k = 0.0000 0.1443 0.0000 ( 23551 PWs)   bands (ev):

     1.6636   1.8012   2.0418   2.3407   2.7047   3.0948   3.4712   3.7714
     3.9585   4.0167   4.0377   4.1250   4.1868   4.2092   4.2111   4.2948
     4.3341   4.3886   4.5096   4.5593   4.5749   4.6452   4.6568   4.7372
     4.7583   4.7939   4.9134   5.0266   5.1261   5.1579   5.2758   5.3601
     5.4150   5.4828   5.7554   5.9490   6.0773   6.0881   6.1059   6.1313
     6.1466   6.1807   6.2220   6.2507   6.2569   6.2797   6.3115   6.3149
     6.3503   6.3600   6.3727   6.4111   6.4274   6.4428   6.4477   6.4517
     6.4587   6.4687   6.4808   6.5049   6.5192   6.5450   6.5569   6.5861
     6.5954   6.6147   6.6269   6.6400   6.6453   6.6578   6.6794   6.6923
     6.7201   6.7335   6.8191   6.8460   6.8490   6.8951   6.9166   6.9522
     6.9592   6.9946   7.1423   7.2611   7.2856   7.3466   7.4688   7.5110
     7.5292   7.5706   7.5841   7.6037   7.6383   7.6983   7.7038   7.7084
     7.7588   7.7808   7.7854   7.8186   7.8484   7.9070   7.9462   7.9875
     8.0256   8.0391   8.0887   8.1333   8.1690   8.2328   8.2413   8.3226
     8.3619   8.4146   8.4739   8.4791   8.4860   8.5358   8.5358   8.5751
     8.5877   8.6133   8.6381   8.6945   8.7232   8.7261   8.7297   8.7449
     8.7535   8.7655   8.7686   8.8073   8.8528   8.8698   8.8910   8.8980
     8.9402   9.0436   9.0571   9.1568   9.4439   9.9905  10.8612  10.9250
    11.0785  11.1011  11.3234  11.5386  11.6876  11.8079  11.9082  11.9960
    12.1100  12.2288  12.3670  12.5051  12.5308  13.5116  13.7724  14.0489
    14.0597  14.3839  14.6449  14.9311  15.0232  15.1837  15.5031  16.0577
    16.2095  16.5095  16.5401  16.6202

          k = 0.0000 0.2887 0.0000 ( 23495 PWs)   bands (ev):

     2.1015   2.2391   2.4679   2.7612   3.1140   3.4981   3.8714   4.1665
     4.3272   4.3347   4.3745   4.4584   4.4989   4.5221   4.5823   4.5845
     4.6056   4.6346   4.7474   4.8576   4.8896   4.9264   4.9435   5.0348
     5.0779   5.1081   5.2033   5.2085   5.3886   5.4057   5.4337   5.4879
     5.5660   5.6156   5.7566   5.8326   5.8494   5.8724   5.9081   5.9618
     5.9818   5.9852   6.0315   6.0392   6.0530   6.0828   6.1221   6.1232
     6.1756   6.1898   6.2093   6.2550   6.3564   6.3748   6.3929   6.4421
     6.4921   6.4953   6.5819   6.5901   6.6061   6.6162   6.6230   6.6368
     6.6580   6.6881   6.6893   6.7025   6.7499   6.7521   6.7825   6.7870
     6.7935   6.8375   6.8616   6.8644   6.8826   6.9072   6.9421   6.9750
     6.9987   7.0125   7.0782   7.1051   7.1274   7.1558   7.2127   7.2204
     7.2251   7.2940   7.3543   7.3643   7.4372   7.4497   7.4707   7.4827
     7.5834   7.5889   7.6548   7.6818   7.7109   7.7697   7.7997   7.8219
     7.8705   7.9107   7.9195   7.9492   7.9891   8.0038   8.0721   8.0721
     8.1227   8.1776   8.2115   8.2754   8.3183   8.3251   8.3590   8.4666
     8.4725   8.5112   8.5323   8.5562   8.5798   8.5909   8.6132   8.6549
     8.6883   8.7091   8.7210   8.7238   8.7780   8.7982   8.8574   8.9347
     8.9545   9.1004   9.1526   9.5046  10.2044  10.8211  11.7626  11.9742
    11.9902  12.0138  12.0612  12.1313  12.1381  12.2336  12.3553  12.5170
    12.6993  12.9329  13.1294  13.3774  13.5565  13.5983  14.0067  14.2015
    14.3643  14.7053  14.9570  15.1482  15.4223  15.5174  15.7925  16.0555
    16.1989  16.6762  16.7947  16.8662

          k = 0.0000 0.4330 0.0000 ( 23423 PWs)   bands (ev):

     2.7743   2.9103   3.1075   3.3809   3.6947   4.0495   4.4015   4.6282
     4.6881   4.7692   4.8384   4.8521   4.8606   4.9024   4.9266   4.9624
     4.9935   5.0731   5.0764   5.1139   5.1678   5.2217   5.3400   5.3439
     5.3630   5.3703   5.4127   5.4572   5.5041   5.5618   5.5730   5.6188
     5.6332   5.6733   5.6850   5.7341   5.7473   5.7796   5.7869   5.7934
     5.7963   5.8074   5.8259   5.8504   5.9011   5.9071   5.9097   5.9341
     5.9935   6.0523   6.0760   6.1200   6.1491   6.1876   6.2381   6.2538
     6.3255   6.3304   6.4190   6.4533   6.4823   6.5219   6.5486   6.5777
     6.5965   6.6240   6.6798   6.6820   6.7019   6.7282   6.7361   6.7461
     6.7659   6.8011   6.8306   6.8660   6.9247   6.9583   7.0153   7.0314
     7.1475   7.1605   7.1760   7.2001   7.2038   7.2773   7.2945   7.3331
     7.3655   7.3920   7.4005   7.4073   7.4097   7.4253   7.4550   7.4774
     7.5059   7.5156   7.5182   7.5530   7.6121   7.6353   7.6917   7.7341
     7.7714   7.8260   7.8283   7.8417   7.8836   7.9640   7.9893   8.0028
     8.0486   8.0602   8.0805   8.1163   8.2052   8.2520   8.2936   8.4239
     8.4280   8.4475   8.4896   8.5011   8.5274   8.5652   8.6080   8.6191
     8.6615   8.6616   8.6771   8.7379   8.7799   8.7879   8.8100   8.8211
     9.0059   9.1746   9.6809  10.1592  10.9393  11.6169  12.5135  12.5549
    12.6200  12.6356  12.6486  12.8212  12.9194  13.1019  13.2045  13.3897
    13.4471  13.5480  13.8225  13.9953  14.2447  14.3420  14.6041  14.6378
    14.8439  15.2239  15.3236  15.5955  15.6164  15.7289  15.9311  16.0820
    16.2265  16.4983  16.7688  16.8751

          k = 0.0000 0.5774 0.0000 ( 23470 PWs)   bands (ev):

     3.5790   3.7118   3.8350   4.0525   4.2613   4.5191   4.7343   4.7774
     5.0031   5.0214   5.0539   5.1026   5.1104   5.1138   5.1703   5.2213
     5.2328   5.2407   5.2849   5.2969   5.3525   5.3537   5.3738   5.3868
     5.4145   5.4183   5.4290   5.4722   5.4961   5.5011   5.5431   5.5470
     5.5759   5.5760   5.6406   5.6600   5.6729   5.6813   5.7006   5.7113
     5.7800   5.7930   5.7991   5.7999   5.8091   5.8892   5.9324   5.9400
     5.9659   5.9669   6.0382   6.0655   6.1229   6.1794   6.1982   6.2764
     6.3144   6.3427   6.3816   6.3949   6.3971   6.4069   6.4222   6.4350
     6.4715   6.4937   6.5122   6.5568   6.5792   6.5861   6.5912   6.5921
     6.6085   6.7107   6.7374   6.9701   7.0012   7.0510   7.0556   7.0556
     7.0585   7.0600   7.1882   7.2242   7.2357   7.2522   7.3766   7.4465
     7.4616   7.5167   7.5253   7.5325   7.5454   7.5495   7.5540   7.5635
     7.5892   7.6178   7.6473   7.6938   7.8225   7.8251   7.8597   7.8690
     7.9162   7.9662   8.0456   8.0868   8.1891   8.2090   8.2107   8.2658
     8.3600   8.4116   8.4449   8.4464   8.4550   8.4754   8.4982   8.4996
     8.5203   8.5276   8.5643   8.5724   8.5995   8.6041   8.6255   8.6394
     8.6456   8.6824   8.6865   8.6872   8.6981   8.7077   8.8527   8.9585
     9.2392   9.7184  10.3236  10.8984  11.7137  12.4113  12.7995  13.1660
    13.2142  13.2599  13.2754  13.2957  13.3593  13.3973  13.5495  13.6229
    13.7162  13.8412  13.8751  14.1573  14.7503  14.8862  14.9397  15.0617
    15.3053  15.3203  15.4128  15.5712  15.8645  15.8791  16.1494  16.3166
    16.4109  16.5862  16.8755  16.9321

          k = 0.0000 0.7217 0.0000 ( 23446 PWs)   bands (ev):

     4.2895   4.4595   4.4814   4.5550   4.6269   4.6851   4.7299   4.8503
     4.8664   4.9591   4.9606   4.9649   5.0378   5.0573   5.1368   5.1853
     5.1929   5.1954   5.2422   5.2705   5.2768   5.2804   5.3595   5.3619
     5.4352   5.4604   5.4730   5.4902   5.5035   5.5497   5.5814   5.5959
     5.6102   5.6245   5.6533   5.6685   5.6764   5.7157   5.7249   5.7459
     5.7732   5.7781   5.7812   5.7992   5.8088   5.8858   5.8985   5.9282
     5.9785   6.0454   6.1103   6.1278   6.1465   6.2007   6.2212   6.2567
     6.2807   6.3248   6.3327   6.3430   6.3523   6.3812   6.3828   6.3917
     6.4082   6.4845   6.5085   6.5791   6.6002   6.6292   6.6513   6.7108
     6.7162   6.7218   6.7541   6.9733   6.9768   7.0155   7.0170   7.1426
     7.1701   7.1778   7.1831   7.1885   7.2326   7.2623   7.3843   7.3859
     7.4082   7.4408   7.4604   7.5027   7.5528   7.5671   7.6311   7.6410
     7.6511   7.6552   7.7248   7.7876   7.8459   7.8566   7.9350   7.9622
     8.0130   8.0782   8.1202   8.1269   8.2512   8.2947   8.3270   8.4692
     8.5018   8.5728   8.6843   8.6850   8.7028   8.7075   8.7177   8.7235
     8.7337   8.7508   8.7572   8.7603   8.8819   8.8933   8.9027   8.9098
     8.9819   9.0944   9.2962   9.3488   9.3774   9.4599   9.5665   9.8120
    10.1912  10.6920  11.3171  11.6959  11.8070  11.9308  11.9921  12.2699
    12.5742  12.7198  12.9881  13.3928  13.3960  13.7559  14.0013  14.0973
    14.1641  14.1983  14.3361  14.3991  14.7004  14.8036  14.9490  15.1790
    15.5037  15.6714  15.9046  16.1021  16.1698  16.4590  16.5455  16.6099
    16.6862  16.8289  17.0355  17.1224

          k = 0.0000-0.8660 0.0000 ( 23420 PWs)   bands (ev):

     4.5792   4.5792   4.7250   4.7250   4.8199   4.8200   4.8256   4.8256
     4.8922   4.8923   4.9159   4.9159   5.0235   5.0236   5.0582   5.0582
     5.1320   5.1320   5.1723   5.1723   5.2493   5.2493   5.2500   5.2501
     5.4697   5.4697   5.4976   5.4976   5.5121   5.5121   5.5236   5.5236
     5.6136   5.6137   5.6840   5.6841   5.7101   5.7101   5.7497   5.7497
     5.8397   5.8397   5.8843   5.8843   5.9422   5.9422   5.9910   5.9910
     6.0169   6.0169   6.0704   6.0704   6.1043   6.1043   6.1244   6.1245
     6.2521   6.2521   6.3032   6.3032   6.3615   6.3615   6.4410   6.4410
     6.5405   6.5405   6.5901   6.5901   6.6220   6.6220   6.6843   6.6843
     6.9587   6.9587   6.9879   6.9880   6.9926   6.9926   7.0318   7.0319
     7.0371   7.0371   7.2717   7.2718   7.3046   7.3047   7.3307   7.3307
     7.3630   7.3631   7.4233   7.4233   7.5370   7.5372   7.6567   7.6568
     7.6751   7.6752   7.8202   7.8203   7.8569   7.8570   7.9320   7.9320
     7.9978   7.9978   8.0963   8.0963   8.1567   8.1567   8.4231   8.4232
     8.5478   8.5478   8.7589   8.7591   8.8195   8.8196   8.8424   8.8425
     8.8737   8.8738   8.9011   8.9012   9.0209   9.0210   9.0415   9.0416
     9.2033   9.2034  10.3995  10.3996  10.4629  10.4629  10.5572  10.5572
    10.7297  10.7297  10.9493  10.9494  11.2869  11.2869  11.7007  11.7007
    12.1958  12.1959  12.7889  12.7889  13.3617  13.3618  14.0503  14.0503
    14.5835  14.5836  15.0414  15.0414  15.7632  15.7632  15.8070  15.8070
    15.8491  15.8491  15.9633  15.9633  16.2048  16.2048  16.2660  16.2661
    16.4167  16.4168  16.6102  16.6103

          k = 0.1250 0.0000 0.0000 ( 23563 PWs)   bands (ev):

     1.6267   1.7636   2.0055   2.3040   2.6690   3.0593   3.4360   3.7364
     3.9216   3.9255   3.9841   4.0607   4.1021   4.1758   4.1777   4.2164
     4.2494   4.3200   4.4170   4.4448   4.4973   4.5681   4.6004   4.6175
     4.6788   4.7180   4.8876   4.9734   5.0259   5.0676   5.2464   5.3302
     5.4019   5.4781   5.7634   5.9912   6.0858   6.1435   6.1621   6.1713
     6.2066   6.2243   6.2653   6.2974   6.3183   6.3383   6.3432   6.3448
     6.3590   6.3764   6.3834   6.3959   6.4118   6.4217   6.4367   6.4493
     6.4508   6.4696   6.4860   6.5016   6.5318   6.5452   6.5560   6.5788
     6.5908   6.6039   6.6145   6.6169   6.6210   6.6433   6.6625   6.6672
     6.6991   6.7840   6.8272   6.8540   6.8703   6.9343   6.9383   6.9425
     7.0131   7.0160   7.1051   7.2711   7.3863   7.4006   7.5159   7.5466
     7.5486   7.5786   7.5946   7.6011   7.6731   7.6929   7.7481   7.7560
     7.7982   7.8227   7.8299   7.8401   7.8771   7.8982   7.9504   7.9851
     8.0199   8.1107   8.1172   8.1755   8.1969   8.2474   8.3490   8.3520
     8.3838   8.4751   8.4852   8.5247   8.5416   8.5853   8.6140   8.6559
     8.6796   8.6852   8.6947   8.7054   8.7242   8.7313   8.7543   8.7651
     8.7816   8.8032   8.8116   8.8305   8.8364   8.8552   8.8935   8.9470
     8.9706   9.0091   9.1236   9.1281   9.3058   9.3498   9.6721   9.9256
     9.9484  10.1341  10.2057  10.3319  10.6930  10.8320  10.9993  11.2765
    11.9630  12.6680  13.2865  13.4604  13.5313  13.6613  13.9228  14.0502
    14.2048  14.5214  14.8222  14.9151  15.1557  15.2153  15.6041  15.9305
    16.3889  16.4818  16.5397  16.9349

          k = 0.1250 0.1443 0.0000 ( 23537 PWs)   bands (ev):

     1.7763   1.9129   2.1518   2.4487   2.8111   3.2003   3.5767   3.8754
     4.0372   4.0581   4.1097   4.1855   4.2239   4.3071   4.3089   4.3304
     4.3421   4.4270   4.5342   4.5639   4.6102   4.6711   4.7036   4.7376
     4.7877   4.8272   4.9530   5.0608   5.1506   5.1728   5.3098   5.3835
     5.3940   5.5039   5.7534   5.9436   6.0105   6.0341   6.0814   6.1030
     6.1267   6.1798   6.2082   6.2171   6.2369   6.2580   6.2586   6.3072
     6.3098   6.3338   6.3721   6.4082   6.4253   6.4601   6.4647   6.4878
     6.4931   6.4964   6.5057   6.5177   6.5301   6.5651   6.5953   6.6127
     6.6187   6.6331   6.6450   6.6577   6.6661   6.6771   6.7003   6.7193
     6.7457   6.7558   6.7772   6.8099   6.8250   6.8870   6.8993   6.9158
     7.0161   7.0195   7.1147   7.1496   7.1956   7.2777   7.4185   7.4291
     7.4803   7.5054   7.5351   7.5402   7.5688   7.5705   7.6225   7.6700
     7.7136   7.7163   7.7516   7.7908   7.8481   7.8708   7.8727   7.9362
     7.9580   7.9838   8.0211   8.0760   8.1525   8.1632   8.2220   8.2366
     8.3222   8.3287   8.3509   8.3540   8.4175   8.4777   8.5067   8.5187
     8.5357   8.5546   8.5637   8.5829   8.6309   8.6413   8.6639   8.7092
     8.7297   8.7452   8.7580   8.7724   8.7871   8.8239   8.8592   8.9035
     9.0149   9.0422   9.0947   9.1186   9.6789   9.9913  10.1430  10.2931
    10.3149  10.4415  10.5650  10.7870  11.1681  11.1738  11.4029  11.7011
    12.3354  13.0015  13.4847  13.5565  13.6451  13.7297  14.0153  14.0861
    14.3104  14.6290  14.9245  14.9813  15.2657  15.3355  15.7253  15.9739
    16.4377  16.5726  16.6433  16.9845

          k = 0.1250 0.2887 0.0000 ( 23467 PWs)   bands (ev):

     2.2067   2.3423   2.5683   2.8575   3.2060   3.5857   3.9553   4.2447
     4.3315   4.4058   4.4439   4.5149   4.5443   4.5460   4.6271   4.6472
     4.6588   4.6611   4.7710   4.8611   4.9168   4.9424   4.9941   5.0482
     5.0798   5.1389   5.2016   5.2500   5.3630   5.3774   5.4079   5.4985
     5.5900   5.6397   5.7437   5.7599   5.8123   5.8801   5.8802   5.9801
     5.9847   6.0035   6.0264   6.0313   6.0552   6.0739   6.0953   6.0976
     6.1550   6.1918   6.2203   6.2244   6.3019   6.3140   6.4168   6.4421
     6.4760   6.5247   6.5829   6.5974   6.6062   6.6204   6.6284   6.6399
     6.6473   6.6794   6.7146   6.7391   6.7698   6.7779   6.7907   6.8076
     6.8365   6.8673   6.8726   6.8922   6.8987   6.9089   6.9315   6.9850
     7.0072   7.0149   7.0210   7.0385   7.0669   7.0917   7.1183   7.1970
     7.2148   7.2260   7.2862   7.3189   7.3738   7.3960   7.4387   7.4777
     7.5026   7.5844   7.6018   7.6346   7.6973   7.7038   7.7359   7.7829
     7.7946   7.8260   7.8597   7.8640   7.9294   7.9776   7.9983   8.0507
     8.0907   8.1396   8.1573   8.2063   8.2181   8.2377   8.2449   8.3067
     8.3359   8.4087   8.4392   8.5112   8.5519   8.6247   8.6280   8.7070
     8.7450   8.7505   8.7804   8.7889   8.8105   8.8319   8.8886   8.9942
     9.0257   9.1474   9.2126   9.6278  10.3337  10.7636  10.8163  10.9477
    10.9863  11.0944  11.3284  11.6526  11.9188  12.0782  12.3482  12.5970
    13.1949  13.5890  13.7093  13.8391  13.9221  14.1674  14.2436  14.4402
    14.6713  14.9632  15.2084  15.2571  15.6008  15.6432  15.9899  16.0988
    16.4731  16.8473  16.9677  16.9853

          k = 0.1250 0.4330 0.0000 ( 23435 PWs)   bands (ev):

     2.8588   2.9898   3.1819   3.4456   3.7468   4.0843   4.4133   4.6254
     4.6637   4.7871   4.7898   4.8552   4.8594   4.8858   4.9313   4.9407
     4.9815   5.0882   5.0917   5.0969   5.1327   5.1770   5.2567   5.2981
     5.3540   5.3575   5.4105   5.4363   5.4490   5.5323   5.5564   5.6246
     5.6573   5.6607   5.6945   5.7305   5.7407   5.7686   5.7851   5.8100
     5.8401   5.8413   5.8764   5.8810   5.9096   5.9336   5.9554   5.9620
     6.0160   6.0506   6.0602   6.1489   6.1607   6.2207   6.2922   6.3279
     6.3638   6.4085   6.4438   6.4775   6.4914   6.5242   6.5278   6.5659
     6.5871   6.6400   6.6413   6.6443   6.6723   6.7039   6.7264   6.7405
     6.7440   6.8710   6.8745   6.9109   6.9588   6.9620   6.9827   7.0550
     7.1337   7.1455   7.1809   7.2065   7.2095   7.2228   7.2750   7.2990
     7.3209   7.3320   7.3420   7.3750   7.4301   7.4393   7.4596   7.4832
     7.5099   7.5113   7.5474   7.5707   7.5795   7.6308   7.6430   7.6918
     7.7290   7.7358   7.8067   7.8547   7.8722   7.8957   7.9208   7.9481
     7.9897   8.0416   8.0795   8.1148   8.1434   8.2040   8.2281   8.2762
     8.3531   8.4306   8.5001   8.5179   8.5887   8.5927   8.6866   8.7192
     8.7221   8.7443   8.7511   8.7764   8.8221   8.8263   8.9084   8.9472
     9.0954   9.1890   9.7267  10.2392  11.0186  11.3951  11.4566  11.6475
    11.7137  11.8624  12.1739  12.5599  12.7019  13.0064  13.4671  13.5409
    13.7513  13.9109  14.2042  14.2819  14.5065  14.6694  14.6797  14.8002
    15.1498  15.3194  15.6114  15.6333  15.6635  15.9130  16.1703  16.2059
    16.4317  16.5563  16.8691  17.2640

          k = 0.1250 0.5774 0.0000 ( 23447 PWs)   bands (ev):

     3.6088   3.7275   3.8540   4.0562   4.2483   4.4727   4.6894   4.6936
     4.8573   4.8611   4.9512   4.9733   4.9753   5.0040   5.0436   5.0447
     5.1220   5.1374   5.1775   5.1847   5.2288   5.2386   5.2792   5.3262
     5.3651   5.3902   5.4178   5.4472   5.4613   5.4857   5.5299   5.5407
     5.5931   5.6036   5.6208   5.6651   5.7020   5.7365   5.7448   5.7528
     5.7654   5.7882   5.8087   5.8593   5.9010   5.9036   5.9274   5.9842
     6.0330   6.0443   6.0678   6.0988   6.1364   6.1948   6.2389   6.2467
     6.3543   6.3788   6.3894   6.4639   6.4992   6.5132   6.5642   6.5652
     6.5891   6.5946   6.6224   6.6362   6.6461   6.6673   6.7382   6.7407
     6.7504   6.8165   6.8650   6.9099   6.9544   6.9604   6.9641   7.0970
     7.1426   7.1674   7.2570   7.2602   7.3053   7.3161   7.3511   7.4261
     7.4502   7.4632   7.4846   7.5341   7.5430   7.5851   7.5864   7.6217
     7.6800   7.6957   7.7160   7.7428   7.8483   7.8749   7.9032   7.9152
     7.9312   8.0026   8.0633   8.1309   8.1838   8.1965   8.2069   8.2318
     8.3422   8.3590   8.3982   8.4038   8.4307   8.4710   8.4914   8.5156
     8.5218   8.5586   8.5830   8.5960   8.6115   8.6262   8.6330   8.6872
     8.7087   8.7295   8.7382   8.7414   8.8022   8.8321   8.8334   9.0342
     9.2273   9.7264  10.3537  10.9517  11.7647  12.0961  12.1877  12.4130
    12.4727  12.6788  12.9758  13.2440  13.3995  13.3998  13.4547  13.6568
    13.9099  13.9654  14.1766  14.2567  14.4283  14.7644  14.8281  15.0111
    15.2833  15.4347  15.4723  15.5647  15.9062  16.0201  16.2769  16.3741
    16.4807  16.7253  16.9001  16.9622

          k = 0.1250 0.7217 0.0000 ( 23455 PWs)   bands (ev):

     4.2015   4.3007   4.3973   4.5334   4.6010   4.6189   4.6683   4.7074
     4.7702   4.8110   4.8156   4.8585   4.9015   4.9220   4.9921   5.0236
     5.0768   5.0834   5.1074   5.1076   5.1867   5.2205   5.2409   5.2457
     5.2687   5.2790   5.3118   5.3469   5.3803   5.4205   5.4621   5.4621
     5.4856   5.5494   5.5700   5.6120   5.6654   5.6867   5.7084   5.7184
     5.7960   5.8006   5.8235   5.8826   5.9027   5.9447   5.9503   5.9826
     5.9966   6.0645   6.1307   6.1540   6.2107   6.2184   6.2751   6.3090
     6.3375   6.3674   6.4083   6.4254   6.4356   6.5021   6.5801   6.6051
     6.6400   6.6469   6.6995   6.7601   6.7846   6.8040   6.8254   6.8566
     6.8997   6.9304   6.9550   6.9950   7.0160   7.0547   7.0684   7.1004
     7.1454   7.1945   7.2236   7.2495   7.3811   7.3852   7.4841   7.4857
     7.4998   7.5384   7.5764   7.6434   7.6519   7.6794   7.7334   7.7379
     7.8032   7.8290   7.8470   7.8666   7.9956   8.0020   8.0364   8.0782
     8.0788   8.1813   8.2192   8.2414   8.3366   8.3505   8.3686   8.4844
     8.5289   8.5879   8.6365   8.6480   8.6563   8.6661   8.7098   8.7204
     8.7535   8.7785   8.7822   8.8067   8.8905   8.8932   8.9058   8.9099
     8.9654   9.1159   9.2657   9.3090   9.3554   9.4344   9.5356   9.7753
    10.1638  10.6832  11.3284  11.7754  11.8793  11.9641  12.0567  12.3165
    12.6121  12.7534  13.0010  13.1074  13.2208  13.3780  13.4395  13.5374
    13.7110  13.9176  14.1484  14.2269  14.4600  14.6003  14.8520  15.0491
    15.3251  15.5849  15.8239  15.9116  16.0102  16.3058  16.3424  16.5054
    16.5473  16.6462  16.8771  16.9673

          k = 0.1250-0.8660 0.0000 ( 23492 PWs)   bands (ev):

     4.4505   4.4629   4.5555   4.5679   4.6456   4.6572   4.6839   4.6914
     4.7746   4.7875   4.7973   4.8121   4.9535   4.9553   4.9803   4.9812
     5.0777   5.0864   5.0938   5.0964   5.1449   5.1461   5.1603   5.1630
     5.2288   5.2412   5.2910   5.2943   5.3241   5.3252   5.3578   5.3637
     5.4773   5.4830   5.5766   5.5779   5.6264   5.6350   5.7223   5.7259
     5.8088   5.8123   5.9020   5.9167   5.9324   5.9326   5.9911   5.9924
     6.0594   6.0603   6.1029   6.1045   6.1605   6.1805   6.2285   6.2498
     6.3973   6.3991   6.4442   6.4530   6.5725   6.5743   6.5987   6.6057
     6.7201   6.7202   6.7605   6.7638   6.8519   6.8522   6.8639   6.8668
     6.8881   6.8948   7.0098   7.0166   7.0606   7.0669   7.1449   7.1575
     7.1807   7.1966   7.3386   7.3406   7.4255   7.4334   7.4904   7.4923
     7.5347   7.5444   7.6172   7.6351   7.7100   7.7237   7.8111   7.8138
     7.8470   7.8525   7.9704   7.9723   8.0086   8.0111   8.0510   8.0603
     8.1090   8.1183   8.1684   8.1979   8.2312   8.2313   8.4324   8.4332
     8.5470   8.5554   8.7471   8.7506   8.7864   8.7873   8.8076   8.8129
     8.8690   8.8733   8.9146   8.9163   9.0253   9.0256   9.0400   9.0417
     9.1956   9.2028  10.3969  10.4027  10.4639  10.4663  10.5587  10.5596
    10.7227  10.7286  10.9354  10.9394  11.2655  11.2710  11.6802  11.6839
    12.1840  12.1842  12.7904  12.7917  13.3710  13.3873  14.0255  14.0325
    14.4588  14.4638  14.6863  14.6906  14.7823  14.8077  14.9794  14.9986
    15.3047  15.3175  15.4129  15.4302  15.8077  15.8184  15.9617  15.9798
    16.2580  16.2625  16.6185  16.6286

          k = 0.1250-0.7217 0.0000 ( 23455 PWs)   bands (ev):

     4.1711   4.3059   4.4003   4.5459   4.5806   4.6279   4.6698   4.7114
     4.7760   4.8111   4.8170   4.8553   4.8997   4.9192   4.9928   5.0145
     5.0777   5.0805   5.1067   5.1129   5.1749   5.2293   5.2372   5.2479
     5.2625   5.2878   5.3178   5.3607   5.3749   5.4163   5.4571   5.4671
     5.4889   5.5440   5.5700   5.6009   5.6609   5.6841   5.7164   5.7186
     5.7980   5.8020   5.8194   5.8836   5.9035   5.9344   5.9551   5.9884
     6.0074   6.0686   6.1376   6.1378   6.2293   6.2414   6.2663   6.3151
     6.3417   6.3624   6.3978   6.4164   6.4559   6.4750   6.5646   6.5946
     6.6594   6.6831   6.6983   6.7558   6.7855   6.7966   6.8424   6.8554
     6.9000   6.9228   6.9761   6.9957   7.0312   7.0542   7.0778   7.0908
     7.1375   7.1952   7.2122   7.2557   7.3815   7.3832   7.4790   7.4933
     7.4996   7.5257   7.5835   7.6311   7.6411   7.6836   7.7219   7.7318
     7.8083   7.8175   7.8433   7.8656   8.0034   8.0103   8.0385   8.0622
     8.0972   8.1756   8.2405   8.2407   8.3381   8.3576   8.3700   8.4703
     8.5284   8.5932   8.6368   8.6467   8.6583   8.6615   8.7152   8.7195
     8.7522   8.7764   8.7866   8.8084   8.8901   8.8942   8.9076   8.9082
     8.9680   9.0979   9.2585   9.3123   9.3592   9.4402   9.5377   9.7784
    10.1631  10.6783  11.3246  11.7753  11.8778  11.9490  12.0534  12.3126
    12.6057  12.7471  12.9967  13.1086  13.2141  13.3770  13.4217  13.5373
    13.7098  13.9167  14.1635  14.2268  14.4427  14.6050  14.8410  15.0531
    15.3243  15.5911  15.8121  15.8935  16.0423  16.3110  16.3384  16.5219
    16.5340  16.6553  16.9532  16.9611

          k = 0.1250-0.5774 0.0000 ( 23447 PWs)   bands (ev):

     3.5924   3.7288   3.8501   4.0611   4.2519   4.4783   4.6563   4.6941
     4.8574   4.8663   4.9510   4.9606   4.9766   5.0021   5.0427   5.0430
     5.1166   5.1384   5.1827   5.1862   5.2289   5.2406   5.2992   5.3203
     5.3600   5.3893   5.4242   5.4512   5.4666   5.4865   5.5325   5.5426
     5.5912   5.5957   5.6278   5.6651   5.6912   5.7412   5.7472   5.7520
     5.7641   5.7903   5.8118   5.8568   5.8986   5.8996   5.9268   5.9738
     6.0307   6.0621   6.0684   6.0979   6.1350   6.1841   6.2543   6.2613
     6.3491   6.3929   6.3930   6.4524   6.4919   6.4951   6.5701   6.5721
     6.5885   6.5925   6.6250   6.6393   6.6711   6.6763   6.7377   6.7504
     6.7556   6.8498   6.8537   6.9195   6.9536   6.9603   6.9704   7.1018
     7.1180   7.1724   7.2571   7.2596   7.3043   7.3177   7.3460   7.4269
     7.4527   7.4557   7.4803   7.5204   7.5376   7.5734   7.5963   7.6188
     7.6811   7.6918   7.7136   7.7353   7.8750   7.8843   7.8965   7.9032
     7.9609   7.9979   8.0718   8.1214   8.1827   8.1861   8.2047   8.2450
     8.3412   8.3512   8.3999   8.4003   8.4340   8.4700   8.4929   8.5159
     8.5247   8.5661   8.5925   8.6001   8.6077   8.6266   8.6310   8.7005
     8.7113   8.7327   8.7396   8.7397   8.8080   8.8264   8.8378   8.9976
     9.2185   9.7162  10.3466  10.9329  11.7577  12.0975  12.1865  12.4168
    12.4536  12.6782  12.9813  13.2361  13.3988  13.3997  13.4599  13.6459
    13.8892  13.9695  14.1703  14.2522  14.4033  14.7799  14.8081  15.0016
    15.2751  15.4382  15.4786  15.5759  15.9005  15.9917  16.2838  16.3608
    16.5413  16.7927  16.8877  16.9733

          k = 0.1250-0.4330 0.0000 ( 23435 PWs)   bands (ev):

     2.8527   2.9902   3.1789   3.4470   3.7468   4.0856   4.4134   4.5963
     4.6636   4.7781   4.7796   4.8544   4.8606   4.8867   4.9158   4.9349
     4.9814   5.0899   5.0943   5.0968   5.1398   5.1830   5.2670   5.3239
     5.3549   5.3639   5.4126   5.4372   5.4500   5.5366   5.5600   5.6166
     5.6488   5.6641   5.6949   5.7214   5.7434   5.7674   5.7768   5.8010
     5.8411   5.8453   5.8771   5.8885   5.9188   5.9318   5.9611   5.9630
     6.0136   6.0514   6.0716   6.1459   6.1618   6.2211   6.2970   6.3283
     6.3607   6.4062   6.4409   6.4798   6.4848   6.5200   6.5364   6.5699
     6.5884   6.6385   6.6440   6.6443   6.6760   6.7053   6.7254   6.7436
     6.7452   6.8714   6.8782   6.9213   6.9622   6.9680   6.9843   7.0606
     7.1430   7.1510   7.1800   7.2034   7.2133   7.2226   7.2822   7.2922
     7.3198   7.3301   7.3443   7.3738   7.4266   7.4364   7.4603   7.4809
     7.5055   7.5173   7.5528   7.5624   7.5796   7.6312   7.6388   7.6927
     7.7263   7.7365   7.8166   7.8524   7.8955   7.8992   7.9223   7.9691
     8.0021   8.0361   8.0838   8.0841   8.1486   8.1993   8.2246   8.2752
     8.3339   8.4433   8.4991   8.5172   8.5893   8.6021   8.6875   8.7232
     8.7232   8.7478   8.7537   8.7812   8.8120   8.8274   8.9106   8.9509
     9.0549   9.1763   9.7189  10.2178  11.0110  11.3961  11.4550  11.6486
    11.6918  11.8608  12.1773  12.5637  12.7010  13.0148  13.4759  13.5267
    13.7379  13.9145  14.2034  14.2621  14.5040  14.6763  14.6817  14.7668
    15.1456  15.2993  15.6031  15.6410  15.6576  15.9255  16.1759  16.2170
    16.4665  16.5442  16.9157  17.2497

          k = 0.1250-0.2887 0.0000 ( 23467 PWs)   bands (ev):

     2.2043   2.3424   2.5668   2.8579   3.2056   3.5856   3.9545   4.2441
     4.3226   4.4043   4.4447   4.5141   4.5236   4.5439   4.6251   4.6474
     4.6587   4.6610   4.7718   4.8604   4.9170   4.9421   4.9969   5.0464
     5.0809   5.1365   5.2071   5.2483   5.3751   5.3985   5.4148   5.4883
     5.5739   5.6437   5.7335   5.7746   5.8054   5.8780   5.9062   5.9648
     5.9937   6.0091   6.0134   6.0296   6.0518   6.0620   6.1050   6.1110
     6.1546   6.1916   6.2264   6.2404   6.3001   6.3123   6.4099   6.4385
     6.4819   6.5217   6.5852   6.5994   6.6031   6.6202   6.6289   6.6307
     6.6503   6.6900   6.7113   6.7441   6.7716   6.7742   6.7901   6.8100
     6.8373   6.8634   6.8746   6.8916   6.9127   6.9171   6.9284   6.9813
     7.0003   7.0129   7.0242   7.0411   7.0486   7.1011   7.1101   7.2063
     7.2179   7.2236   7.2684   7.3335   7.3896   7.3989   7.4425   7.4728
     7.4949   7.5956   7.6072   7.6274   7.7012   7.7073   7.7411   7.7853
     7.7937   7.8402   7.8653   7.8682   7.9372   7.9807   8.0016   8.0552
     8.0854   8.1533   8.1662   8.1940   8.2135   8.2357   8.2441   8.3146
     8.3417   8.3749   8.4435   8.5106   8.5500   8.6209   8.6351   8.7093
     8.7433   8.7502   8.7821   8.7855   8.8025   8.8389   8.8906   8.9956
     9.0284   9.1085   9.2079   9.6047  10.3269  10.7676  10.8145  10.9483
    10.9617  11.0908  11.3278  11.6538  11.9176  12.0829  12.3386  12.6051
    13.2030  13.5829  13.7078  13.8484  13.9125  14.1675  14.2495  14.4395
    14.6684  14.9579  15.2067  15.2588  15.6037  15.6414  15.9577  16.0933
    16.4708  16.8527  16.9707  16.9710

          k = 0.1250-0.1443 0.0000 ( 23537 PWs)   bands (ev):

     1.7754   1.9129   2.1512   2.4488   2.8109   3.2001   3.5762   3.8750
     4.0352   4.0574   4.1099   4.1853   4.2161   4.3070   4.3089   4.3306
     4.3408   4.4270   4.5331   4.5648   4.6102   4.6705   4.7041   4.7364
     4.7877   4.8301   4.9521   5.0604   5.1507   5.1710   5.3019   5.3749
     5.4098   5.5049   5.7608   5.9541   5.9990   6.0424   6.0806   6.1134
     6.1302   6.1767   6.2067   6.2167   6.2334   6.2531   6.2702   6.2993
     6.3016   6.3342   6.3686   6.3880   6.4353   6.4699   6.4714   6.4839
     6.4944   6.4973   6.5059   6.5210   6.5329   6.5550   6.5989   6.6086
     6.6291   6.6320   6.6459   6.6598   6.6749   6.6983   6.7010   6.7189
     6.7346   6.7727   6.7777   6.7982   6.8240   6.8926   6.9005   6.9032
     7.0160   7.0193   7.1241   7.1254   7.1877   7.2787   7.4091   7.4351
     7.4816   7.5070   7.5363   7.5394   7.5637   7.5689   7.6218   7.6837
     7.7161   7.7193   7.7556   7.7838   7.8448   7.8727   7.8917   7.9253
     7.9586   8.0052   8.0233   8.0827   8.1576   8.1713   8.2360   8.2377
     8.3106   8.3254   8.3583   8.3666   8.4197   8.4715   8.5011   8.5180
     8.5422   8.5577   8.5631   8.5799   8.6221   8.6271   8.6646   8.7062
     8.7290   8.7460   8.7519   8.7695   8.7930   8.8323   8.8645   8.9046
     9.0132   9.0407   9.0766   9.0879   9.6752   9.9957  10.1431  10.2689
    10.3171  10.4385  10.5619  10.7863  11.1706  11.1731  11.3979  11.7058
    12.3409  13.0063  13.4855  13.5563  13.6488  13.7265  14.0138  14.0894
    14.3087  14.6283  14.9247  14.9811  15.2669  15.3359  15.7156  15.9613
    16.4378  16.5759  16.6444  16.9806

          k = 0.2500 0.0000 0.0000 ( 23536 PWs)   bands (ev):

     1.9605   2.0953   2.3308   2.6235   2.9822   3.3684   3.7439   3.8749
     4.0089   4.0391   4.1637   4.2143   4.2577   4.3425   4.3608   4.3811
     4.4070   4.4615   4.4633   4.4736   4.5149   4.6016   4.6983   4.7247
     4.8000   4.8276   4.9819   5.0657   5.1168   5.1574   5.3407   5.3740
     5.4019   5.5661   5.8120   5.8617   5.9327   6.0143   6.0214   6.0562
     6.1061   6.1435   6.1627   6.1888   6.2082   6.2528   6.2700   6.2996
     6.3163   6.3581   6.3937   6.4127   6.4336   6.4637   6.4995   6.5114
     6.5117   6.5200   6.5681   6.5841   6.5971   6.6226   6.6235   6.6376
     6.6474   6.6662   6.6839   6.6911   6.6934   6.7440   6.7467   6.7556
     6.7765   6.8100   6.8172   6.8386   6.8422   6.8527   6.8814   6.9193
     6.9785   7.0413   7.0758   7.1039   7.1097   7.2716   7.2823   7.3165
     7.3655   7.3759   7.4051   7.4563   7.4944   7.5188   7.5485   7.6151
     7.6351   7.6448   7.7066   7.7446   7.7493   7.8016   7.8357   7.8807
     7.9213   8.0120   8.0244   8.0364   8.0417   8.1501   8.1899   8.2139
     8.2266   8.3278   8.3348   8.3566   8.3693   8.3955   8.4070   8.4167
     8.4584   8.4734   8.5123   8.5335   8.5466   8.5570   8.5806   8.5945
     8.6059   8.6288   8.6374   8.6907   8.6951   8.7318   8.7802   8.7922
     8.8211   8.8333   8.8544   8.8707   8.9200   8.9229   8.9527   8.9558
     9.1132   9.3668   9.7018   9.9783  10.4005  10.6530  11.1472  11.5210
    11.8400  11.8985  12.6778  13.4002  14.1438  14.1741  15.0710  15.1207
    15.3454  15.4056  15.5044  15.6236  15.9202  16.3568  16.6820  16.7776
    16.8175  17.1116  17.4006  17.8005

          k = 0.2500 0.1443 0.0000 ( 23484 PWs)   bands (ev):

     2.1050   2.2389   2.4705   2.7605   3.1152   3.4991   3.8739   3.9981
     4.1414   4.1680   4.2873   4.3367   4.3722   4.4436   4.4897   4.4967
     4.5181   4.5824   4.5844   4.6013   4.6396   4.7106   4.7912   4.8020
     4.8793   4.9376   5.0418   5.1627   5.2198   5.2459   5.3534   5.3950
     5.4616   5.5799   5.7795   5.8355   5.8782   5.9168   5.9579   5.9767
     6.0425   6.0703   6.1027   6.1156   6.1481   6.1769   6.2123   6.2413
     6.2451   6.3255   6.3293   6.3639   6.3947   6.4031   6.4300   6.4544
     6.5230   6.5299   6.5684   6.5858   6.5963   6.6110   6.6242   6.6371
     6.6424   6.6619   6.6791   6.6975   6.7306   6.7503   6.7653   6.7748
     6.7881   6.8193   6.8455   6.8468   6.8619   6.8808   6.8939   6.9397
     6.9523   6.9907   7.0678   7.1042   7.1092   7.1734   7.1847   7.2154
     7.2714   7.2746   7.3172   7.3571   7.4255   7.4295   7.4717   7.4816
     7.5716   7.5945   7.6722   7.6748   7.7263   7.7283   7.7504   7.8232
     7.8650   7.8678   7.9060   7.9130   7.9130   7.9913   8.0421   8.0657
     8.1383   8.1487   8.1815   8.2069   8.2200   8.2271   8.2583   8.3294
     8.3522   8.4200   8.4291   8.4945   8.5284   8.5555   8.5874   8.6211
     8.6320   8.6811   8.7083   8.7298   8.7337   8.7907   8.8074   8.8577
     8.9230   8.9361   9.1254   9.1393   9.2363   9.3244   9.3733   9.4569
     9.5517   9.6738  10.1077  10.1915  10.7051  10.8764  11.3944  11.7621
    12.1098  12.1512  12.8703  13.5692  14.1962  14.3328  15.1500  15.2915
    15.3897  15.5146  15.5638  15.7310  15.9987  16.4373  16.7826  16.8748
    16.9046  17.1948  17.4584  17.8283

          k = 0.2500 0.2887 0.0000 ( 23496 PWs)   bands (ev):

     2.5131   2.6445   2.8590   3.1366   3.4691   3.8342   4.1923   4.3070
     4.4679   4.4884   4.5892   4.6104   4.6406   4.6486   4.7169   4.7700
     4.7932   4.8229   4.8783   4.8817   4.9272   4.9806   5.0417   5.0610
     5.1394   5.1817   5.2563   5.2948   5.2960   5.3814   5.4587   5.5500
     5.6011   5.6660   5.6769   5.7134   5.7890   5.8098   5.8519   5.9099
     5.9172   5.9341   5.9561   5.9852   6.0178   6.0484   6.0918   6.1004
     6.1101   6.1268   6.1852   6.2019   6.2485   6.2568   6.3411   6.3636
     6.4153   6.4204   6.4617   6.4836   6.5267   6.5600   6.5655   6.5931
     6.6016   6.6640   6.6707   6.6892   6.7030   6.7303   6.7769   6.7780
     6.8003   6.8303   6.8691   6.8769   6.9109   6.9503   6.9607   6.9727
     6.9774   7.0147   7.0167   7.0695   7.1154   7.1171   7.1443   7.1729
     7.1893   7.2240   7.2706   7.2958   7.3234   7.3535   7.3563   7.3650
     7.4357   7.4878   7.5097   7.5168   7.5395   7.6115   7.6271   7.7001
     7.7098   7.7490   7.7636   7.8115   7.8282   7.8384   7.8942   7.9119
     7.9375   7.9974   8.0039   8.0780   8.0928   8.1615   8.1669   8.2608
     8.2888   8.3917   8.4261   8.4563   8.5817   8.5959   8.6722   8.7065
     8.7588   8.7611   8.7871   8.7925   8.8328   8.8807   8.9627   8.9947
     8.9995   9.0835   9.4585   9.8121   9.8522   9.9192   9.9494  10.0141
    10.1830  10.4644  10.6710  10.8739  11.3748  11.3974  12.0124  12.3214
    12.6590  12.9363  13.3767  14.0101  14.4075  14.7255  15.4055  15.5230
    15.6660  15.8339  15.8526  16.0103  16.2239  16.6228  17.0510  17.0511
    17.2112  17.2739  17.5679  17.6608

          k = 0.2500 0.4330 0.0000 ( 23431 PWs)   bands (ev):

     3.1015   3.2237   3.3976   3.6371   3.9015   4.1939   4.4691   4.5687
     4.6617   4.7677   4.7762   4.8094   4.8182   4.8654   4.8724   4.9183
     4.9753   4.9976   5.0395   5.0943   5.1102   5.1472   5.1653   5.2133
     5.2497   5.2516   5.3034   5.4128   5.4731   5.5016   5.5245   5.5514
     5.5611   5.6448   5.6622   5.6681   5.7360   5.7363   5.7964   5.8291
     5.8429   5.8880   5.9255   5.9301   5.9634   5.9835   6.0177   6.0181
     6.0608   6.0913   6.1054   6.1510   6.1567   6.2016   6.2741   6.2992
     6.3450   6.3676   6.4050   6.4565   6.5076   6.5218   6.5714   6.5843
     6.6120   6.6197   6.6619   6.6705   6.7017   6.7180   6.7450   6.7626
     6.8514   6.8908   6.9019   6.9807   6.9817   6.9879   7.0058   7.0332
     7.0434   7.0548   7.1692   7.1828   7.1915   7.2489   7.2732   7.2893
     7.3088   7.3556   7.3631   7.3987   7.4132   7.4461   7.4681   7.5289
     7.5572   7.5641   7.5714   7.6168   7.6448   7.6507   7.6555   7.6831
     7.7203   7.7478   7.7912   7.8369   7.8599   7.8958   7.9023   7.9531
     7.9589   8.0235   8.0585   8.0778   8.1119   8.1603   8.2439   8.2495
     8.3377   8.4351   8.4473   8.5748   8.5870   8.6431   8.7458   8.8097
     8.8145   8.8309   8.8391   8.8549   8.8568   8.8908   8.9904   9.0315
     9.1467   9.3002   9.8937  10.4217  10.4532  10.4634  10.5674  10.7141
    10.9515  11.2484  11.2820  11.7057  11.9684  12.2092  12.7860  12.9321
    13.3672  13.9696  14.0334  14.5452  14.8947  15.0426  15.6137  15.8080
    15.8770  15.8897  15.9934  16.1610  16.2977  16.4326  16.4433  16.6895
    16.9595  17.2204  17.4527  17.5565

          k = 0.2500 0.5774 0.0000 ( 23466 PWs)   bands (ev):

     3.6891   3.7884   3.9218   4.0968   4.2515   4.4046   4.5345   4.5457
     4.6530   4.6530   4.7264   4.7392   4.7678   4.8260   4.8628   4.8629
     4.9280   4.9791   5.0122   5.0382   5.0392   5.1374   5.1415   5.1614
     5.1774   5.1936   5.2183   5.2572   5.3095   5.3382   5.3395   5.3694
     5.4579   5.4739   5.5100   5.5588   5.5824   5.6647   5.7102   5.7466
     5.8173   5.8696   5.8755   5.9158   5.9546   5.9625   6.0162   6.0746
     6.1484   6.1634   6.2074   6.2253   6.2893   6.4013   6.4477   6.4552
     6.4606   6.5110   6.5374   6.5823   6.5984   6.5987   6.6256   6.6391
     6.6620   6.7052   6.7522   6.8052   6.8159   6.8479   6.8723   6.9190
     6.9613   6.9749   7.0034   7.0247   7.0985   7.1305   7.1668   7.2116
     7.2446   7.2957   7.3342   7.3562   7.4056   7.4886   7.5062   7.5123
     7.5258   7.5565   7.5688   7.6557   7.7103   7.7505   7.7968   7.8300
     7.8656   7.8676   7.9190   7.9352   7.9601   7.9761   8.0223   8.0574
     8.0586   8.0702   8.0933   8.1393   8.1397   8.1475   8.2070   8.2298
     8.2517   8.3369   8.3409   8.3514   8.3878   8.4383   8.4699   8.4987
     8.5190   8.5409   8.5871   8.5899   8.6547   8.7138   8.7408   8.7570
     8.7709   8.8289   8.8323   8.8478   8.8614   8.9582   8.9922   9.1385
     9.2193   9.7867  10.4701  11.0830  11.1153  11.1366  11.2973  11.4855
    11.7664  11.9316  12.1268  12.5617  12.6544  13.0492  13.5403  13.5439
    13.7988  13.8283  14.0136  14.2912  14.4669  14.7192  15.0340  15.0383
    15.1288  15.4813  15.6457  15.7303  15.9368  16.2837  16.4272  16.5444
    16.7333  17.1213  17.1395  17.5147

          k = 0.2500 0.7217 0.0000 ( 23545 PWs)   bands (ev):

     4.0479   4.1158   4.2617   4.3732   4.3903   4.4604   4.5053   4.5130
     4.5562   4.5735   4.5884   4.6489   4.6818   4.7191   4.7452   4.7771
     4.8323   4.8703   4.8856   4.8898   4.9164   4.9227   4.9365   5.0271
     5.0309   5.0769   5.1159   5.1190   5.1463   5.2200   5.2471   5.2483
     5.2976   5.3405   5.3972   5.4414   5.4968   5.5369   5.6332   5.6630
     5.8096   5.8143   5.8740   5.8920   5.9705   6.0021   6.0081   6.0897
     6.1099   6.2557   6.3073   6.3213   6.3600   6.3629   6.4012   6.4455
     6.5400   6.5443   6.5816   6.5826   6.5938   6.6625   6.7285   6.7364
     6.7627   6.7880   6.8215   6.8716   6.9112   6.9660   7.0552   7.0607
     7.1196   7.1266   7.2183   7.2334   7.2608   7.2992   7.3368   7.3667
     7.4709   7.4724   7.6074   7.6093   7.6421   7.6700   7.6900   7.7902
     7.8714   7.9036   7.9185   7.9284   7.9432   7.9758   8.0296   8.0842
     8.1302   8.1789   8.1902   8.2200   8.2398   8.2438   8.2777   8.3128
     8.3134   8.3396   8.3923   8.4036   8.4744   8.5392   8.5430   8.5532
     8.5728   8.5895   8.6123   8.6133   8.6662   8.6790   8.7061   8.7246
     8.7578   8.7730   8.8225   8.8781   8.8878   8.9198   8.9282   8.9370
     8.9444   9.1582   9.1759   9.2014   9.3073   9.3857   9.4703   9.6920
    10.1108  10.6857  11.3865  11.9027  11.9825  12.0102  12.0721  12.0740
    12.1627  12.2810  12.4417  12.5928  12.7404  12.8518  12.8713  13.0205
    13.3183  13.4401  13.5847  13.9126  14.1061  14.3213  14.4698  14.7174
    14.8239  15.2404  15.3019  15.4111  15.5568  15.6976  15.8040  16.0034
    16.0592  16.2435  16.3896  16.5290

          k = 0.2500-0.8660 0.0000 ( 23532 PWs)   bands (ev):

     4.2062   4.2312   4.2829   4.2970   4.4116   4.4248   4.4704   4.4761
     4.5641   4.5776   4.5832   4.5994   4.7465   4.7477   4.7555   4.7563
     4.7771   4.7832   4.7955   4.7960   4.9012   4.9038   4.9109   4.9203
     4.9467   4.9469   5.0354   5.0371   5.1147   5.1250   5.2078   5.2322
     5.2896   5.2899   5.3493   5.3529   5.4404   5.4518   5.6265   5.6421
     5.7957   5.8052   5.9452   5.9707   6.0152   6.0412   6.0713   6.0866
     6.1286   6.1314   6.2337   6.2401   6.3781   6.3786   6.4227   6.4235
     6.5250   6.5313   6.5787   6.5796   6.6378   6.6409   6.7387   6.7516
     6.8114   6.8283   6.8762   6.8784   6.9496   6.9639   7.1252   7.1391
     7.1959   7.2034   7.2826   7.2833   7.4051   7.4151   7.4362   7.4474
     7.5263   7.5340   7.7047   7.7108   7.7455   7.7541   7.8376   7.8487
     7.9584   7.9802   8.0626   8.0627   8.0763   8.0765   8.1157   8.1418
     8.2464   8.2589   8.3275   8.3497   8.3553   8.3597   8.3946   8.3993
     8.4113   8.4160   8.4344   8.4345   8.4401   8.4598   8.5254   8.5255
     8.5984   8.6088   8.7326   8.7342   8.7560   8.7577   8.7823   8.7893
     8.8586   8.8671   8.9109   8.9182   9.0296   9.0301   9.0431   9.0448
     9.1772   9.1935  10.3905  10.4092  10.4748  10.4818  10.5999  10.6006
    10.7466  10.7585  10.9293  10.9376  11.2232  11.2364  11.6181  11.6304
    12.1157  12.1226  12.7222  12.7348  13.2923  13.3017  13.5457  13.5567
    13.6425  13.6432  13.7416  13.7580  14.0334  14.0566  14.2416  14.2681
    14.6079  14.6414  14.6907  14.7875  14.9505  14.9898  15.3655  15.3739
    15.7319  15.7443  16.0077  16.0108

          k = 0.2500-0.7217 0.0000 ( 23545 PWs)   bands (ev):

     4.0135   4.1236   4.2577   4.3777   4.4066   4.4471   4.5086   4.5124
     4.5479   4.5782   4.5958   4.6482   4.6932   4.7057   4.7325   4.7792
     4.8399   4.8602   4.8854   4.8983   4.9113   4.9264   4.9271   5.0288
     5.0390   5.0805   5.1109   5.1185   5.1524   5.2217   5.2372   5.2471
     5.3159   5.3201   5.3922   5.4569   5.4813   5.5444   5.6529   5.6556
     5.8038   5.8091   5.8664   5.9176   5.9787   6.0114   6.0144   6.0842
     6.1138   6.2544   6.3122   6.3169   6.3605   6.3615   6.4057   6.4555
     6.5312   6.5407   6.5784   6.5827   6.5962   6.6653   6.7265   6.7386
     6.7733   6.7842   6.8171   6.8814   6.9262   6.9622   7.0464   7.0499
     7.1192   7.1260   7.2021   7.2345   7.2683   7.2896   7.3304   7.3851
     7.4678   7.4992   7.5883   7.6061   7.6463   7.6690   7.7193   7.7599
     7.8793   7.9010   7.9103   7.9433   7.9442   7.9636   8.0544   8.0648
     8.1360   8.1707   8.1823   8.2067   8.2353   8.2497   8.2586   8.3185
     8.3234   8.3443   8.3846   8.4494   8.4738   8.5349   8.5460   8.5538
     8.5702   8.5915   8.6112   8.6228   8.6704   8.6763   8.6953   8.7343
     8.7544   8.7659   8.8340   8.8871   8.8981   8.9186   8.9260   8.9375
     8.9456   9.1190   9.1621   9.2094   9.3112   9.3951   9.4764   9.7001
    10.1112  10.6769  11.3807  11.9107  11.9836  12.0127  12.0449  12.0775
    12.1685  12.2894  12.4534  12.5520  12.6176  12.8604  12.8663  13.0322
    13.3311  13.4525  13.5508  13.8867  14.0941  14.3205  14.5327  14.7703
    14.9080  15.2090  15.2965  15.4041  15.5652  15.6577  15.8092  15.9627
    16.0897  16.2438  16.3778  16.5440

          k = 0.2500-0.5774 0.0000 ( 23466 PWs)   bands (ev):

     3.6607   3.7912   3.9141   4.1058   4.2582   4.4116   4.5116   4.5518
     4.6425   4.6519   4.7239   4.7425   4.7545   4.8295   4.8556   4.8582
     4.9270   4.9781   5.0128   5.0354   5.0433   5.1433   5.1434   5.1673
     5.1801   5.1833   5.2233   5.2635   5.3118   5.3428   5.3439   5.3727
     5.4578   5.4585   5.5129   5.5711   5.5718   5.6693   5.7299   5.7484
     5.8142   5.8631   5.8777   5.9275   5.9567   5.9642   6.0323   6.0662
     6.1488   6.1634   6.2186   6.2250   6.2939   6.3920   6.4441   6.4496
     6.4779   6.5105   6.5411   6.5821   6.5894   6.6028   6.6290   6.6411
     6.6666   6.6992   6.7518   6.7846   6.8215   6.8505   6.8776   6.9217
     6.9661   6.9665   7.0001   7.0240   7.1121   7.1333   7.1515   7.2202
     7.2276   7.2954   7.3399   7.3514   7.4447   7.4790   7.5129   7.5152
     7.5251   7.5498   7.5894   7.6404   7.7287   7.7372   7.8137   7.8256
     7.8620   7.8702   7.9127   7.9325   7.9832   7.9836   8.0125   8.0605
     8.0638   8.0779   8.0910   8.1356   8.1364   8.1622   8.1971   8.2302
     8.2462   8.3314   8.3393   8.3480   8.3912   8.4408   8.4862   8.5006
     8.5187   8.5428   8.6007   8.6048   8.6497   8.7130   8.7406   8.7501
     8.7810   8.8321   8.8433   8.8459   8.8665   8.9579   8.9961   9.0849
     9.2034   9.7665  10.4561  11.0825  11.0840  11.1339  11.2971  11.4798
    11.7642  11.9190  12.1231  12.5620  12.6216  13.0567  13.5406  13.5568
    13.7773  13.8434  14.0029  14.2944  14.4697  14.7039  15.0024  15.0368
    15.1157  15.4904  15.6577  15.7198  15.9252  16.2869  16.4337  16.5237
    16.7389  17.1529  17.2189  17.5316

          k = 0.2500-0.4330 0.0000 ( 23431 PWs)   bands (ev):

     3.0887   3.2247   3.3920   3.6404   3.9023   4.1973   4.4707   4.5307
     4.6600   4.7551   4.7585   4.8091   4.8216   4.8667   4.8692   4.9142
     4.9585   5.0008   5.0526   5.0961   5.1226   5.1495   5.1843   5.2164
     5.2497   5.2523   5.3062   5.4270   5.4812   5.4998   5.5178   5.5490
     5.5653   5.6371   5.6631   5.6762   5.7201   5.7440   5.7949   5.8325
     5.8433   5.8964   5.9255   5.9318   5.9689   5.9884   6.0077   6.0251
     6.0542   6.0931   6.1052   6.1487   6.1618   6.2199   6.2790   6.2914
     6.3522   6.3654   6.4010   6.4612   6.4939   6.5243   6.5708   6.5862
     6.6118   6.6282   6.6600   6.6720   6.7021   6.7177   6.7473   6.7478
     6.8514   6.8939   6.9072   6.9845   6.9880   6.9882   7.0073   7.0335
     7.0464   7.0855   7.1785   7.1841   7.1980   7.2600   7.2683   7.2955
     7.2962   7.3412   7.3744   7.3817   7.4204   7.4523   7.4619   7.5287
     7.5560   7.5758   7.5838   7.6121   7.6352   7.6532   7.6579   7.6822
     7.7341   7.7483   7.7890   7.8425   7.8795   7.9059   7.9067   7.9553
     7.9679   8.0214   8.0684   8.0835   8.1089   8.1596   8.2195   8.2528
     8.3371   8.4332   8.4387   8.5733   8.5985   8.6414   8.7471   8.8010
     8.8177   8.8324   8.8452   8.8456   8.8596   8.8960   8.9865   9.0346
     9.0983   9.2783   9.8782  10.4233  10.4288  10.4511  10.5670  10.7099
    10.9502  11.2350  11.2821  11.7108  11.9345  12.2201  12.7972  12.9315
    13.3873  13.9442  14.0339  14.5578  14.9068  14.9838  15.5907  15.8019
    15.8654  15.8874  15.9883  16.1570  16.2967  16.4367  16.4434  16.6695
    16.9745  17.2326  17.4629  17.5613

          k = 0.2500-0.2887 0.0000 ( 23496 PWs)   bands (ev):

     2.5081   2.6448   2.8562   3.1375   3.4686   3.8346   4.1912   4.2932
     4.4663   4.4880   4.5866   4.6054   4.6343   4.6482   4.7180   4.7374
     4.7921   4.8241   4.8783   4.8813   4.9302   4.9803   5.0384   5.0598
     5.1418   5.1893   5.2524   5.2889   5.3455   5.3854   5.4739   5.5465
     5.5983   5.6453   5.6725   5.7131   5.8059   5.8075   5.8442   5.9056
     5.9167   5.9382   5.9508   5.9823   6.0148   6.0512   6.1012   6.1028
     6.1238   6.1260   6.1783   6.2246   6.2569   6.2609   6.3241   6.3615
     6.4162   6.4257   6.4635   6.4785   6.5218   6.5599   6.5764   6.5911
     6.6091   6.6620   6.6786   6.6884   6.7074   6.7419   6.7745   6.7806
     6.7907   6.8348   6.8728   6.8756   6.9242   6.9418   6.9611   6.9778
     6.9826   7.0065   7.0196   7.0726   7.1175   7.1247   7.1447   7.1737
     7.1902   7.2223   7.2661   7.2892   7.3246   7.3507   7.3594   7.3652
     7.4337   7.4767   7.5141   7.5176   7.5551   7.6107   7.6363   7.6979
     7.7187   7.7515   7.7928   7.8030   7.8382   7.8499   7.8961   7.9093
     7.9576   7.9989   8.0155   8.0668   8.0924   8.1684   8.1711   8.2581
     8.2744   8.3882   8.4085   8.4489   8.5820   8.5868   8.6716   8.7058
     8.7590   8.7622   8.7822   8.7926   8.8368   8.8813   8.9569   8.9833
     9.0019   9.0428   9.4480   9.8150   9.8527   9.9178   9.9196  10.0106
    10.1806  10.4651  10.6590  10.8794  11.3426  11.4075  12.0237  12.3197
    12.6731  12.9201  13.3810  14.0190  14.4180  14.7066  15.4017  15.5089
    15.6678  15.8299  15.8583  16.0108  16.2118  16.6097  17.0401  17.0609
    17.2171  17.2708  17.5668  17.6490

          k = 0.2500-0.1443 0.0000 ( 23484 PWs)   bands (ev):

     2.1032   2.2390   2.4694   2.7607   3.1149   3.4988   3.8731   3.9952
     4.1411   4.1671   4.2860   4.3360   4.3722   4.4423   4.4817   4.4889
     4.5181   4.5822   4.5844   4.6011   4.6387   4.7120   4.7903   4.8018
     4.8793   4.9428   5.0396   5.1591   5.2196   5.2452   5.3782   5.3863
     5.4490   5.5789   5.7873   5.8393   5.8742   5.9148   5.9660   5.9774
     6.0388   6.0727   6.1021   6.1286   6.1516   6.1762   6.2123   6.2516
     6.2553   6.3016   6.3223   6.3694   6.3935   6.4161   6.4250   6.4649
     6.5126   6.5160   6.5714   6.5879   6.6001   6.6175   6.6193   6.6266
     6.6415   6.6878   6.6886   6.6999   6.7241   6.7508   6.7607   6.7767
     6.7836   6.8204   6.8409   6.8540   6.8616   6.8995   6.9063   6.9358
     6.9623   6.9832   7.0509   7.1018   7.1126   7.1797   7.1808   7.2124
     7.2534   7.2733   7.3182   7.3430   7.4312   7.4353   7.4707   7.4836
     7.5821   7.5885   7.6778   7.6883   7.7331   7.7371   7.7729   7.8265
     7.8713   7.8875   7.9047   7.9147   7.9186   7.9874   8.0591   8.0670
     8.1261   8.1375   8.1848   8.1969   8.2170   8.2308   8.2568   8.3271
     8.3604   8.4079   8.4297   8.4915   8.5132   8.5535   8.5907   8.6155
     8.6197   8.6828   8.7065   8.7212   8.7333   8.7852   8.8130   8.8377
     8.9144   8.9326   9.1295   9.1392   9.2393   9.3284   9.3709   9.4537
     9.5311   9.6740  10.1125  10.1837  10.7128  10.8535  11.4031  11.7609
[...]
     8.4996   8.5191   8.5474   8.5723   8.5966   8.6171   8.6643   8.6923
     8.7067   8.7082   8.7544   8.7577   8.7988   8.8172   8.9491   9.0889
     9.4089   9.5281   9.9742  10.0582  10.6028  10.7282  11.2925  11.4963
    12.0087  12.4027  12.8050  13.1209  13.5608  14.4236  15.1880  15.4889
    15.7580  15.9237  16.6163  17.1135  17.2780  17.3339  17.4402  17.6300
    17.8811  18.0254  18.3022  18.7586

          k =-0.5000 0.0000-0.0000 ( 23442 PWs)   bands (ev):

     3.1105   3.1105   3.1956   3.1956   3.4149   3.4149   3.6330   3.6330
     3.9174   3.9174   4.2024   4.2024   4.4703   4.4703   4.6593   4.6593
     4.7590   4.7590   4.8764   4.8764   5.0148   5.0148   5.1381   5.1381
     5.1708   5.1708   5.2289   5.2289   5.2982   5.2983   5.4569   5.4569
     5.5779   5.5779   5.7085   5.7085   5.8133   5.8133   5.8735   5.8735
     5.9245   5.9245   5.9728   5.9728   6.0680   6.0680   6.1315   6.1315
     6.1859   6.1860   6.2538   6.2538   6.3645   6.3645   6.4393   6.4393
     6.5331   6.5331   6.5896   6.5896   6.6294   6.6295   6.6497   6.6497
     6.6665   6.6665   6.6886   6.6886   6.6938   6.6938   6.7414   6.7414
     6.8154   6.8154   6.8792   6.8792   6.9013   6.9013   6.9490   6.9490
     6.9955   6.9955   7.1589   7.1590   7.1992   7.1992   7.2031   7.2032
     7.2347   7.2347   7.2760   7.2761   7.3699   7.3699   7.4186   7.4186
     7.4327   7.4327   7.5216   7.5216   7.5462   7.5462   7.5575   7.5575
     7.6166   7.6166   7.6296   7.6296   7.6654   7.6654   7.7150   7.7150
     7.7989   7.7989   7.8298   7.8298   7.9047   7.9047   7.9748   7.9748
     8.0288   8.0288   8.0712   8.0713   8.1063   8.1064   8.1651   8.1651
     8.2480   8.2480   8.3559   8.3559   8.3987   8.3987   8.5687   8.5687
     8.6625   8.6625   8.8157   8.8157   8.8282   8.8282   8.8563   8.8563
     9.3227   9.3227   9.8829   9.8829  10.5090  10.5091  11.2063  11.2063
    12.0060  12.0060  12.8740  12.8740  13.9763  13.9763  14.8591  14.8591
    15.8774  15.8776  16.4380  16.4387  17.4123  17.4128  17.8113  17.8114
    19.1560  19.1562  19.2985  19.2986

          k =-0.5000 0.1443-0.0000 ( 23476 PWs)   bands (ev):

     3.2459   3.2510   3.3296   3.3302   3.5398   3.5435   3.7518   3.7538
     4.0301   4.0309   4.3135   4.3156   4.5929   4.5930   4.7999   4.8072
     4.8977   4.9001   5.0060   5.0097   5.1356   5.1412   5.2118   5.2217
     5.2722   5.2769   5.3043   5.3178   5.3693   5.3727   5.4912   5.5063
     5.5892   5.5976   5.6666   5.6771   5.7325   5.7399   5.7574   5.7654
     5.8354   5.8391   5.8578   5.8663   5.9646   5.9714   5.9781   6.0018
     6.0420   6.0709   6.0841   6.0845   6.2206   6.2316   6.3475   6.3726
     6.4312   6.4585   6.4598   6.4849   6.5139   6.5150   6.5519   6.5769
     6.6005   6.6168   6.6296   6.6430   6.6475   6.6479   6.6680   6.6695
     6.6959   6.7124   6.7203   6.7250   6.7667   6.7787   6.9133   6.9192
     6.9847   6.9939   7.0900   7.0936   7.1716   7.1825   7.2911   7.3005
     7.3571   7.3660   7.3765   7.3817   7.3887   7.3898   7.4207   7.4253
     7.4545   7.4933   7.5083   7.5330   7.5858   7.5892   7.6508   7.6675
     7.7049   7.7128   7.7636   7.7658   7.7694   7.7895   7.8426   7.8647
     7.8648   7.8812   7.9403   7.9591   8.0834   8.0851   8.1044   8.1072
     8.1429   8.1543   8.1928   8.2068   8.2238   8.2362   8.2949   8.3000
     8.3073   8.3097   8.3508   8.3550   8.4329   8.4444   8.5306   8.5437
     8.6311   8.6659   8.7167   8.7189   8.7405   8.7412   9.0040   9.0180
     9.4547   9.4846   9.9948  10.0261  10.6138  10.6510  11.3242  11.3428
    12.1208  12.1503  12.9873  12.9964  14.1933  14.2105  14.9812  15.0011
    15.9961  15.9987  16.5305  16.5427  17.5468  17.5701  17.8660  17.8750
    19.2080  19.2205  19.3759  19.3989

          k =-0.5000 0.2887-0.0000 ( 23540 PWs)   bands (ev):

     3.6041   3.6217   3.6781   3.6806   3.8531   3.8656   4.0335   4.0412
     4.2721   4.2770   4.5196   4.5317   4.7835   4.7964   5.0509   5.0511
     5.2321   5.2389   5.2694   5.2914   5.3091   5.3249   5.3444   5.3525
     5.3840   5.3842   5.4221   5.4344   5.4643   5.4689   5.4999   5.5041
     5.5188   5.5195   5.5340   5.5728   5.6033   5.6047   5.6632   5.6639
     5.7142   5.7251   5.7955   5.8078   5.8243   5.8269   5.8408   5.8528
     5.9876   6.0057   6.0452   6.0553   6.0701   6.0758   6.1454   6.1576
     6.1983   6.2239   6.2473   6.2586   6.3249   6.3429   6.3906   6.4101
     6.4356   6.4489   6.4991   6.5009   6.5174   6.5177   6.5603   6.6046
     6.6067   6.6068   6.6081   6.6551   6.9383   6.9524   6.9662   6.9876
     7.0022   7.0109   7.0463   7.0514   7.1529   7.1834   7.2038   7.2180
     7.2648   7.2780   7.3405   7.3684   7.4212   7.4734   7.5255   7.5371
     7.5796   7.5844   7.6216   7.6248   7.6940   7.7115   7.7721   7.7776
     7.8214   7.8384   7.9524   7.9645   8.0207   8.0265   8.0406   8.0440
     8.1551   8.1873   8.2065   8.2220   8.2399   8.2600   8.3666   8.3678
     8.3964   8.4140   8.4288   8.4371   8.4496   8.4519   8.4842   8.4898
     8.5102   8.5170   8.5384   8.5698   8.6003   8.6012   8.6343   8.6447
     8.6847   8.6870   8.7009   8.7182   8.8489   8.8519   9.2619   9.2855
     9.7460   9.7868  10.3028  10.3486  10.9310  10.9957  11.6607  11.6909
    12.4477  12.5056  13.2794  13.3021  14.7632  14.8069  15.3633  15.3970
    16.3272  16.3454  16.8315  16.8689  17.8898  17.9602  18.0501  18.0619
    19.2645  19.2906  19.3353  19.3940

          k =-0.5000 0.4330-0.0000 ( 23522 PWs)   bands (ev):

     3.9508   3.9933   4.0284   4.0328   4.1720   4.2118   4.3044   4.3250
     4.4418   4.4631   4.5711   4.5989   4.7219   4.7467   4.8721   4.8767
     4.9630   4.9749   5.0197   5.0330   5.0928   5.1084   5.1408   5.1437
     5.2063   5.2167   5.3004   5.3148   5.3436   5.3509   5.4619   5.4634
     5.5038   5.5147   5.5923   5.5972   5.6200   5.6620   5.7462   5.7557
     5.8507   5.8517   5.9283   5.9417   5.9977   6.0123   6.0450   6.0535
     6.1066   6.1359   6.1694   6.1803   6.2170   6.2247   6.2925   6.2946
     6.3312   6.3428   6.3794   6.3917   6.4423   6.4447   6.4675   6.4879
     6.5402   6.5719   6.6241   6.6532   6.7087   6.7119   6.7401   6.7612
     6.7789   6.8178   6.8494   6.8560   6.8773   6.9232   6.9435   6.9462
     7.0276   7.0395   7.1206   7.1273   7.2244   7.2358   7.4000   7.4008
     7.4628   7.4667   7.5240   7.5266   7.5522   7.5587   7.5895   7.5999
     7.6073   7.6157   7.6982   7.7066   7.8250   7.8321   7.8477   7.8482
     8.0127   8.0187   8.1001   8.1246   8.2079   8.2156   8.2676   8.2704
     8.3671   8.3688   8.4513   8.4559   8.4983   8.5060   8.5364   8.5378
     8.5721   8.5773   8.6248   8.6281   8.6492   8.6940   8.7724   8.7790
     8.7881   8.7908   8.8132   8.8408   8.8486   8.8577   8.8744   8.8787
     8.9241   8.9258   9.0152   9.0163   9.2070   9.2106   9.6197   9.6412
    10.1471  10.1890  10.7560  10.8020  11.4140  11.4946  12.1599  12.1951
    12.9230  13.0054  13.6952  13.7299  15.4111  15.4898  15.9199  15.9648
    16.7531  16.7898  17.2894  17.3907  17.4958  17.5762  17.6552  17.6976
    17.9570  17.9964  18.1172  18.1201

          k =-0.5000 0.5774-0.0000 ( 23534 PWs)   bands (ev):

     4.0153   4.0580   4.1105   4.1123   4.2861   4.3345   4.4176   4.4504
     4.4763   4.4810   4.4958   4.4966   4.5826   4.6195   4.6397   4.6502
     4.7256   4.7297   4.7564   4.7606   4.8061   4.8082   4.8705   4.8806
     4.9373   4.9577   5.0256   5.0530   5.0939   5.0970   5.2472   5.2507
     5.2671   5.2711   5.3512   5.3570   5.5479   5.5615   5.7139   5.7332
     5.8584   5.8783   6.0236   6.0525   6.1583   6.1894   6.2270   6.2816
     6.3232   6.3286   6.3496   6.3519   6.4258   6.4390   6.4876   6.4900
     6.5242   6.5313   6.5610   6.5700   6.6133   6.6136   6.7019   6.7089
     6.7473   6.7648   6.8379   6.8612   6.9476   6.9575   7.0261   7.0342
     7.0874   7.0960   7.1950   7.2040   7.2561   7.2849   7.3155   7.3446
     7.4331   7.4456   7.5639   7.5662   7.6505   7.6786   7.7428   7.7944
     7.8377   7.8455   7.9128   7.9150   7.9304   7.9393   8.0224   8.0238
     8.1227   8.1324   8.1761   8.1946   8.2103   8.2126   8.2215   8.2236
     8.2632   8.2708   8.2836   8.3014   8.4328   8.4372   8.4678   8.4713
     8.5264   8.5374   8.5754   8.5756   8.5992   8.6035   8.6672   8.6833
     8.7353   8.7372   8.7710   8.7874   8.7944   8.8399   8.9077   8.9104
     8.9328   8.9766   9.1201   9.1218   9.2205   9.2234   9.3194   9.3293
     9.3546   9.3781   9.4570   9.4670   9.6815   9.6919  10.1150  10.1215
    10.6907  10.7205  11.3653  11.3953  12.0646  12.1467  12.8216  12.8584
    13.5435  13.6497  14.2592  14.2901  15.2778  15.2935  15.3605  15.3901
    15.5498  15.5795  15.7067  15.7330  15.9741  16.0081  16.4146  16.4451
    16.9014  16.9060  17.1932  17.2010

          k =-0.5000 0.7217-0.0000 ( 23516 PWs)   bands (ev):

     3.9661   4.0031   4.0627   4.0636   4.2461   4.2563   4.2804   4.2871
     4.3270   4.3318   4.4332   4.4392   4.4781   4.4866   4.5425   4.5510
     4.5768   4.5825   4.6027   4.6057   4.6465   4.6566   4.6940   4.6992
     4.7632   4.7724   4.8157   4.8326   4.9346   4.9404   5.0736   5.0739
     5.1002   5.1007   5.2192   5.2200   5.4809   5.4815   5.7133   5.7449
     5.9007   5.9251   6.0356   6.0966   6.1626   6.1829   6.2178   6.2348
     6.3055   6.3112   6.3435   6.3517   6.3988   6.4026   6.4430   6.4472
     6.5022   6.5079   6.6399   6.6626   6.7372   6.7554   6.8063   6.8220
     6.8914   6.9209   7.0147   7.0248   7.0913   7.1053   7.2697   7.2848
     7.3424   7.3515   7.4452   7.4680   7.5961   7.6045   7.7138   7.7547
     7.8321   7.8503   7.8822   7.9160   8.1070   8.1188   8.1532   8.1639
     8.2512   8.2644   8.3911   8.4090   8.4524   8.4599   8.5290   8.5453
     8.5612   8.5638   8.5910   8.5941   8.6413   8.6416   8.6603   8.6743
     8.6928   8.6967   8.7058   8.7091   8.7236   8.7312   8.7361   8.7390
     8.7519   8.7678   8.7822   8.7912   8.8036   8.8097   8.8362   8.8393
     8.8723   8.8734   8.9234   8.9325   8.9766   9.0274   9.0761   9.0764
     9.0801   9.0907   9.5707   9.6101   9.8041   9.8057  10.0450  10.0757
    10.1886  10.2214  10.2970  10.3291  10.4645  10.5064  10.8317  10.8652
    11.3895  11.3995  12.0343  12.0662  12.7293  12.7454  13.2993  13.3765
    13.4610  13.4646  13.5216  13.5536  13.6611  13.7768  13.9330  13.9747
    14.1638  14.3283  14.5218  14.5798  14.7936  14.9365  15.2027  15.3136
    15.5402  15.5611  15.8532  15.9204

          k =-0.5000-0.8660-0.0000 ( 23552 PWs)   bands (ev):

     3.9386   3.9732   4.0345   4.0353   4.1921   4.2107   4.2182   4.2457
     4.2645   4.2779   4.3892   4.3986   4.4394   4.4425   4.4826   4.4901
     4.5237   4.5307   4.5389   4.5394   4.6025   4.6165   4.6522   4.6573
     4.6935   4.7053   4.7364   4.7377   4.8776   4.8834   5.0127   5.0156
     5.0364   5.0366   5.1747   5.1756   5.4482   5.4524   5.7065   5.7400
     5.9185   5.9400   6.0224   6.0829   6.1566   6.1646   6.1957   6.2159
     6.3045   6.3141   6.3199   6.3229   6.3563   6.3724   6.3965   6.3987
     6.5447   6.6116   6.6691   6.7038   6.7675   6.7790   6.8229   6.8450
     7.0049   7.0290   7.0396   7.0630   7.1480   7.1543   7.2811   7.2896
     7.4491   7.4612   7.5664   7.5694   7.5993   7.6310   7.8561   7.8589
     7.8944   7.9543   8.0684   8.0713   8.1112   8.1246   8.3633   8.3683
     8.3843   8.3856   8.4960   8.5045   8.5607   8.5846   8.6698   8.6944
     8.6957   8.7310   8.7350   8.7395   8.7832   8.7852   8.7884   8.7892
     8.8114   8.8212   8.8353   8.8396   8.8476   8.8511   8.8572   8.8620
     8.8825   8.8879   8.9125   8.9165   8.9453   8.9584   8.9695   8.9860
     9.0093   9.0206   9.0239   9.0276   9.0573   9.0783   9.2379   9.2380
     9.2401   9.2402  10.1750  10.2776  10.5336  10.5467  10.9054  10.9847
    11.1892  11.2458  11.4523  11.4583  11.5667  11.6266  11.6816  11.7325
    11.7670  11.7951  11.8272  11.8638  11.8731  11.8808  11.9126  12.1308
    12.1309  12.1318  12.1321  12.3681  13.2793  13.6467  13.7248  13.7586
    13.8861  14.0996  14.2548  14.3156  14.4704  14.6286  14.8426  14.9592
    15.2512  15.4613  15.7932  15.7961

     the Fermi energy is    10.7310 ev

!    total energy              =  -20153.51010756 Ry

     total all-electron energy =   -988623.508475 Ry
     estimated scf accuracy    <          6.6E-09 Ry
     smearing contrib. (-TS)   =      -0.00036110 Ry
     internal energy E=F+TS    =  -20153.50974646 Ry

     The total energy is F=E-TS. E is the sum of the following terms:
     one-electron contribution =   -8782.19019622 Ry
     hartree contribution      =    4716.60164349 Ry
     xc contribution           =    -833.59388745 Ry
     ewald contribution        =    2751.00597399 Ry
     one-center paw contrib.   =  -18005.33328028 Ry

     convergence has been achieved in  15 iterations

     negative rho (up, down):  2.273E-03 0.000E+00

     Forces acting on atoms (cartesian axes, Ry/au):

     atom    1 type  1   force =    -0.00005188   -0.00001130    0.00025854
     atom    2 type  1   force =     0.00004361    0.00003388   -0.00021229
     atom    3 type  1   force =     0.00005991    0.00006231    0.00046895
     atom    4 type  1   force =     0.00307897    0.00580465   -0.00024513
     atom    5 type  1   force =    -0.00004124   -0.00000341   -0.00025795
     atom    6 type  1   force =     0.00001455   -0.00001742   -0.00025299
     atom    7 type  1   force =    -0.00007230    0.00001446    0.00091171
     atom    8 type  1   force =    -0.00300355   -0.00581705    0.00030731
     atom    9 type  1   force =     0.00001004   -0.00001802   -0.00091337
     atom   10 type  1   force =     0.00006686    0.00000293   -0.00046482
     atom   11 type  1   force =    -0.00001201    0.00005940    0.00047222
     atom   12 type  1   force =    -0.00006000    0.00071712   -0.00041814
     atom   13 type  1   force =    -0.00003636   -0.00063242    0.00034379
     atom   14 type  1   force =     0.00001624   -0.00001890   -0.00025039
     atom   15 type  1   force =    -0.00006371   -0.00005148    0.00091254
     atom   16 type  1   force =    -0.00300431   -0.00588152    0.00030792
     atom   17 type  1   force =     0.00001193   -0.00001217   -0.00091477
     atom   18 type  1   force =     0.00005949    0.00000947   -0.00046541
     atom   19 type  1   force =    -0.00001170   -0.00001691    0.00047082
     atom   20 type  1   force =    -0.00005380    0.00065229   -0.00041528
     atom   21 type  1   force =    -0.00003305   -0.00062925    0.00034288
     atom   22 type  1   force =    -0.00004538   -0.00001312    0.00024991
     atom   23 type  1   force =     0.00003298   -0.00003900   -0.00020480
     atom   24 type  1   force =     0.00005714    0.00000037    0.00046761
     atom   25 type  1   force =     0.00308046    0.00580570   -0.00024535
     atom   26 type  1   force =    -0.00004285   -0.00000060   -0.00025350

     Total force =     0.002453     Total SCF correction =     0.000253
     SCF correction compared to forces is large: reduce conv_thr to get better values
     Energy error            =      9.4E-06 Ry
     Gradient error          =      9.1E-04 Ry/Bohr

     bfgs converged in  16 scf cycles and  11 bfgs steps
     (criteria: energy <  1.0E-04 Ry, force <  1.0E-03 Ry/Bohr)

     End of BFGS Geometry Optimization

     Final energy             =  -20153.5101075599 Ry

     File ./pwscf.bfgs deleted, as requested
Begin final coordinates

ATOMIC_POSITIONS (angstrom)
Au           -0.0000000000        0.0000000000       -0.0124236230    0   0   1
Au            5.0991277561        0.4416000000       28.8574967640    0   0   1
Au            5.0991339819        0.4416000000       21.6438267443    0   0   1
Au            5.0991389889        0.0000000000       14.3955529817    0   0   1
Au            5.0991452147        0.0000000000        7.2079357501    0   0   1
Au            1.6997150733        0.0000000000        2.4201400161    0   0   1
Au            1.6996977676        0.4416000000       24.0371346421    0   0   1
Au            1.6997039934        0.4416000000       16.8543404699    0   0   1
Au            1.6997090005        0.0000000000        9.6040095225    0   0   1
Au            3.3994301414        0.0000000000        4.8098876538    0   0   1
Au            3.3994129888        0.4416000000       26.4252699983    0   0   1
Au            3.3994189086        0.4416000000       19.2537745422    0   0   1
Au            3.3994248284        0.0000000000       11.9965461626    0   0   1
Au            4.2492909414        1.4719970299        2.4201269276    0   0   1
Au            4.2492725751        1.9135970299       24.0370973558    0   0   1
Au            4.2492788009        1.9135970299       16.8543390239    0   0   1
Au            4.2492850215        1.4719970299        9.6040337681    0   0   1
Au            0.8498539674        1.4719970299        4.8098896901    0   0   1
Au            0.8498368147        1.9135970299       26.4252990091    0   0   1
Au            0.8498428875        1.9135970299       19.2537560287    0   0   1
Au            0.8498488838        1.4719970299       11.9965861406    0   0   1
Au            2.5495761740        1.4719970299       -0.0124029165    0   0   1
Au            2.5495526478        1.9135970299       28.8575302611    0   0   1
Au            2.5495578078        1.9135970299       21.6438818193    0   0   1
Au            2.5495637276        1.4719970299       14.3955478992    0   0   1
Au            2.5495699534        1.4719970299        7.2078888450    0   0   1
End final coordinates



     Writing all to output data dir ./pwscf.save/
 
     init_run     :     25.55s CPU     26.89s WALL (       1 calls)
     electrons    :  23464.27s CPU  23598.05s WALL (      15 calls)
     update_pot   :      9.01s CPU      9.08s WALL (      14 calls)
     forces       :    154.78s CPU    155.43s WALL (      15 calls)

     Called by init_run:
     wfcinit      :     24.73s CPU     25.38s WALL (       1 calls)
     potinit      :      0.45s CPU      0.77s WALL (       1 calls)
     hinit0       :      0.25s CPU      0.51s WALL (       1 calls)

     Called by electrons:
     c_bands      :  20845.48s CPU  20956.50s WALL (     384 calls)
     sum_band     :   2474.25s CPU   2491.14s WALL (     384 calls)
     v_of_rho     :      7.77s CPU      9.46s WALL (     387 calls)
     newd         :     27.74s CPU     30.13s WALL (     387 calls)
     PAW_pot      :    116.65s CPU    117.03s WALL (     401 calls)
     mix_rho      :      2.24s CPU      2.25s WALL (     384 calls)

     Called by c_bands:
     init_us_2    :     82.59s CPU     82.94s WALL (   39900 calls)
     init_us_2:cp :     82.48s CPU     82.87s WALL (   39900 calls)
     cegterg      :  19714.45s CPU  19820.22s WALL (   19299 calls)

     Called by *egterg:
     cdiaghg      :   1180.62s CPU   1190.17s WALL (   57489 calls)
     h_psi        :  10565.86s CPU  10632.58s WALL (   58938 calls)
     s_psi        :   1801.42s CPU   1806.79s WALL (   58938 calls)
     g_psi        :     33.55s CPU     33.71s WALL (   39589 calls)

     Called by h_psi:
     h_psi:calbec :   1928.22s CPU   1933.68s WALL (   58938 calls)
     vloc_psi     :   6764.72s CPU   6816.46s WALL (   58938 calls)
     add_vuspsi   :   1847.93s CPU   1853.22s WALL (   58938 calls)

     General routines
     calbec       :   2877.55s CPU   2885.72s WALL (   81838 calls)
     fft          :     12.36s CPU     14.39s WALL (    4448 calls)
     ffts         :      0.35s CPU      0.35s WALL (     384 calls)
     fftw         :   7863.91s CPU   7922.46s WALL (19003620 calls)
 
     Parallel routines
 
     PWSCF        :      6h35m CPU      6h37m WALL

 
   This run was terminated on:  20:24:59  16Feb2024            

=------------------------------------------------------------------------------=
   JOB DONE.
=------------------------------------------------------------------------------=
