MPI startup(): Warning: I_MPI_PMI_LIBRARY will be ignored since the hydra process manager was found
MPI startup(): Warning: I_MPI_PMI_LIBRARY will be ignored since the hydra process manager was found
MPI startup(): Warning: I_MPI_PMI_LIBRARY will be ignored since the hydra process manager was found
MPI startup(): Warning: I_MPI_PMI_LIBRARY will be ignored since the hydra process manager was found
MPI startup(): Warning: I_MPI_PMI_LIBRARY will be ignored since the hydra process manager was found
MPI startup(): Warning: I_MPI_PMI_LIBRARY will be ignored since the hydra process manager was found
MPI startup(): Warning: I_MPI_PMI_LIBRARY will be ignored since the hydra process manager was found
MPI startup(): Warning: I_MPI_PMI_LIBRARY will be ignored since the hydra process manager was found
MPI startup(): Warning: I_MPI_PMI_LIBRARY will be ignored since the hydra process manager was found
MPI startup(): Warning: I_MPI_PMI_LIBRARY will be ignored since the hydra process manager was found

     Program PWSCF v.7.0 starts on 16Feb2024 at  0:39:39 

     This program is part of the open-source Quantum ESPRESSO suite
     for quantum simulation of materials; please cite
         "P. Giannozzi et al., J. Phys.:Condens. Matter 21 395502 (2009);
         "P. Giannozzi et al., J. Phys.:Condens. Matter 29 465901 (2017);
         "P. Giannozzi et al., J. Chem. Phys. 152 154105 (2020);
          URL http://www.quantum-espresso.org", 
     in publications or presentations arising from this work. More details at
     http://www.quantum-espresso.org/quote

     Parallel version (MPI), running on    10 processors

     MPI processes distributed on     1 nodes
     R & G space division:  proc/nbgrp/npool/nimage =      10
     181139 MiB available memory on the printing compute node when the environment starts
 
     Reading input from GSF111_0.45.in
Warning: card &CELL ignored
Warning: card / ignored

     Current dimensions of program PWSCF are:
     Max number of different atomic species (ntypx) = 10
     Max number of k-points (npk) =  40000
     Max angular momentum in pseudopotentials (lmaxx) =  4
     file Au.pbe-n-kjpaw_psl.1.0.0.UPF: wavefunction(s)  6S 5D renormalized
     Found identity + ( -0.5000  0.5000  0.0000) symmetry
     This is a supercell, fractional translations are disabled

     Subspace diagonalization in iterative solution of the eigenvalue problem:
     one sub-group per band group will be used
     scalapack distributed-memory algorithm (size of sub-group:  3*  3 procs)

 
     Parallelization info
     --------------------
     sticks:   dense  smooth     PW     G-vecs:    dense   smooth      PW
     Min          85      85     25                18799    18799    3045
     Max          87      87     26                18816    18816    3065
     Sum         859     859    251               188065   188065   30575
 
     Using Slab Decomposition
 


     bravais-lattice index     =            0
     lattice parameter (alat)  =       9.6360  a.u.
     unit-cell volume          =    3935.2145 (a.u.)^3
     number of atoms/cell      =           26
     number of atomic types    =            1
     number of electrons       =       286.00
     number of Kohn-Sham states=          172
     kinetic-energy cutoff     =      50.0000  Ry
     charge density cutoff     =     200.0000  Ry
     scf convergence threshold =      1.0E-06
     mixing beta               =       0.7000
     number of iterations used =            8  plain     mixing
     Exchange-correlation= SLA  PW   PBX  PBC
                           (   1   4   3   4   0   0   0)

     celldm(1)=   9.635999  celldm(2)=   0.000000  celldm(3)=   0.000000
     celldm(4)=   0.000000  celldm(5)=   0.000000  celldm(6)=   0.000000

     crystal axes: (cart. coord. in units of alat)
               a(1) = (   1.000000   0.000000   0.000000 )  
               a(2) = (   0.000000   0.577350   0.000000 )  
               a(3) = (  -0.000005   0.000000   7.617966 )  

     reciprocal axes: (cart. coord. in units 2 pi/alat)
               b(1) = (  1.000000  0.000000  0.000001 )  
               b(2) = (  0.000000  1.732052  0.000000 )  
               b(3) = (  0.000000  0.000000  0.131269 )  


     PseudoPot. # 1 for Au read from file:
     ./Au.pbe-n-kjpaw_psl.1.0.0.UPF
     MD5 check sum: 4db85c736373c707a97ce4c36c2a9d23
     Pseudo is Projector augmented-wave + core cor, Zval = 11.0
     Generated using &quot;atomic&quot; code by A. Dal Corso  v.6.3
     Shape of augmentation charge: PSQ
     Using radial grid of 1279 points,  6 beta functions with: 
                l(1) =   0
                l(2) =   0
                l(3) =   1
                l(4) =   1
                l(5) =   2
                l(6) =   2
     Q(r) pseudized with 0 coefficients 


     atomic species   valence    mass     pseudopotential
        Au            11.00   196.96657     Au( 1.00)

     No symmetry found



   Cartesian axes

     site n.     atom                  positions (alat units)
         1           Au  tau(   1) = (   0.0000000   0.0000000   0.0000000  )
         2           Au  tau(   2) = (   0.9999954   0.2598079   5.6568550  )
         3           Au  tau(   3) = (   0.9999966   0.2598079   4.2426411  )
         4           Au  tau(   4) = (   0.9999976   0.0000000   2.8284275  )
         5           Au  tau(   5) = (   0.9999988   0.0000000   1.4142138  )
         6           Au  tau(   6) = (   0.3333329   0.0000000   0.4714045  )
         7           Au  tau(   7) = (   0.3333296   0.2598079   4.7140455  )
         8           Au  tau(   8) = (   0.3333308   0.2598079   3.2998319  )
         9           Au  tau(   9) = (   0.3333318   0.0000000   1.8856185  )
        10           Au  tau(  10) = (   0.6666659   0.0000000   0.9428093  )
        11           Au  tau(  11) = (   0.6666625   0.2598079   5.1854506  )
        12           Au  tau(  12) = (   0.6666637   0.2598079   3.7712367  )
        13           Au  tau(  13) = (   0.6666649   0.0000000   2.3570234  )
        14           Au  tau(  14) = (   0.8333330   0.2886749   0.4714045  )
        15           Au  tau(  15) = (   0.8333294   0.5484829   4.7140455  )
        16           Au  tau(  16) = (   0.8333306   0.5484829   3.2998319  )
        17           Au  tau(  17) = (   0.8333318   0.2886749   1.8856185  )
        18           Au  tau(  18) = (   0.1666658   0.2886749   0.9428093  )
        19           Au  tau(  19) = (   0.1666624   0.5484829   5.1854506  )
        20           Au  tau(  20) = (   0.1666636   0.5484829   3.7712367  )
        21           Au  tau(  21) = (   0.1666648   0.2886749   2.3570234  )
        22           Au  tau(  22) = (   0.5000001   0.2886749   0.0000000  )
        23           Au  tau(  23) = (   0.4999955   0.5484829   5.6568550  )
        24           Au  tau(  24) = (   0.4999965   0.5484829   4.2426411  )
        25           Au  tau(  25) = (   0.4999977   0.2886749   2.8284275  )
        26           Au  tau(  26) = (   0.4999989   0.2886749   1.4142138  )

     number of k points=    50  Gaussian smearing, width (Ry)=  0.0200
                       cart. coord. in units 2pi/alat
        k(    1) = (   0.0000000   0.0000000   0.0000000), wk =   0.0208333
        k(    2) = (   0.0000000   0.1443376   0.0000000), wk =   0.0416667
        k(    3) = (   0.0000000   0.2886753   0.0000000), wk =   0.0416667
        k(    4) = (   0.0000000   0.4330129   0.0000000), wk =   0.0416667
        k(    5) = (   0.0000000   0.5773506   0.0000000), wk =   0.0416667
        k(    6) = (   0.0000000   0.7216882   0.0000000), wk =   0.0416667
        k(    7) = (   0.0000000  -0.8660259   0.0000000), wk =   0.0208333
        k(    8) = (   0.1250000   0.0000000   0.0000001), wk =   0.0416667
        k(    9) = (   0.1250000   0.1443376   0.0000001), wk =   0.0416667
        k(   10) = (   0.1250000   0.2886753   0.0000001), wk =   0.0416667
        k(   11) = (   0.1250000   0.4330129   0.0000001), wk =   0.0416667
        k(   12) = (   0.1250000   0.5773506   0.0000001), wk =   0.0416667
        k(   13) = (   0.1250000   0.7216882   0.0000001), wk =   0.0416667
        k(   14) = (   0.1250000  -0.8660259   0.0000001), wk =   0.0416667
        k(   15) = (   0.2500000   0.0000000   0.0000002), wk =   0.0416667
        k(   16) = (   0.2500000   0.1443376   0.0000002), wk =   0.0416667
        k(   17) = (   0.2500000   0.2886753   0.0000002), wk =   0.0416667
        k(   18) = (   0.2500000   0.4330129   0.0000002), wk =   0.0416667
        k(   19) = (   0.2500000   0.5773506   0.0000002), wk =   0.0416667
        k(   20) = (   0.2500000   0.7216882   0.0000002), wk =   0.0416667
        k(   21) = (   0.2500000  -0.8660259   0.0000002), wk =   0.0416667
        k(   22) = (   0.3750000   0.0000000   0.0000002), wk =   0.0416667
        k(   23) = (   0.3750000   0.1443376   0.0000002), wk =   0.0416667
        k(   24) = (   0.3750000   0.2886753   0.0000002), wk =   0.0416667
        k(   25) = (   0.3750000   0.4330129   0.0000002), wk =   0.0416667
        k(   26) = (   0.3750000   0.5773506   0.0000002), wk =   0.0416667
        k(   27) = (   0.3750000   0.7216882   0.0000002), wk =   0.0416667
        k(   28) = (   0.3750000  -0.8660259   0.0000002), wk =   0.0416667
        k(   29) = (  -0.5000000   0.0000000  -0.0000003), wk =   0.0208333
        k(   30) = (  -0.5000000   0.1443376  -0.0000003), wk =   0.0416667
        k(   31) = (  -0.5000000   0.2886753  -0.0000003), wk =   0.0416667
        k(   32) = (  -0.5000000   0.4330129  -0.0000003), wk =   0.0416667
        k(   33) = (  -0.5000000   0.5773506  -0.0000003), wk =   0.0416667
        k(   34) = (  -0.5000000   0.7216882  -0.0000003), wk =   0.0416667
        k(   35) = (  -0.5000000  -0.8660259  -0.0000003), wk =   0.0208333
        k(   36) = (  -0.1250000   0.1443376  -0.0000001), wk =   0.0416667
        k(   37) = (  -0.1250000   0.2886753  -0.0000001), wk =   0.0416667
        k(   38) = (  -0.1250000   0.4330129  -0.0000001), wk =   0.0416667
        k(   39) = (  -0.1250000   0.5773506  -0.0000001), wk =   0.0416667
        k(   40) = (  -0.1250000   0.7216882  -0.0000001), wk =   0.0416667
        k(   41) = (  -0.2500000   0.1443376  -0.0000002), wk =   0.0416667
        k(   42) = (  -0.2500000   0.2886753  -0.0000002), wk =   0.0416667
        k(   43) = (  -0.2500000   0.4330129  -0.0000002), wk =   0.0416667
        k(   44) = (  -0.2500000   0.5773506  -0.0000002), wk =   0.0416667
        k(   45) = (  -0.2500000   0.7216882  -0.0000002), wk =   0.0416667
        k(   46) = (  -0.3750000   0.1443376  -0.0000002), wk =   0.0416667
        k(   47) = (  -0.3750000   0.2886753  -0.0000002), wk =   0.0416667
        k(   48) = (  -0.3750000   0.4330129  -0.0000002), wk =   0.0416667
        k(   49) = (  -0.3750000   0.5773506  -0.0000002), wk =   0.0416667
        k(   50) = (  -0.3750000   0.7216882  -0.0000002), wk =   0.0416667

     Dense  grid:   188065 G-vectors     FFT dimensions: (  45,  25, 360)

     Estimated max dynamical RAM per process >     418.32 MB

     Estimated total dynamical RAM >       4.09 GB

     Initial potential from superposition of free atoms

     starting charge     285.9971, renormalised to     286.0000

     negative rho (up, down):  2.402E-03 0.000E+00
     Starting wfcs are  234 randomized atomic wfcs
     Checking if some PAW data can be deallocated... 

     total cpu time spent up to now is       28.5 secs

     Self-consistent Calculation

     iteration #  1     ecut=    50.00 Ry     beta= 0.70
     Davidson diagonalization with overlap
     ethr =  1.00E-02,  avg # of iterations =  5.1

     Threshold (ethr) on eigenvalues was too large:
     Diagonalizing with lowered threshold

     Davidson diagonalization with overlap
     ethr =  3.97E-04,  avg # of iterations =  4.0

     negative rho (up, down):  1.673E-03 0.000E+00

     total cpu time spent up to now is      181.3 secs

     total energy              =  -20152.80969455 Ry
     estimated scf accuracy    <       1.44715771 Ry

     iteration #  2     ecut=    50.00 Ry     beta= 0.70
     Davidson diagonalization with overlap
     c_bands:  1 eigenvalues not converged
     ethr =  5.06E-04,  avg # of iterations = 15.3

     negative rho (up, down):  1.674E-03 0.000E+00

     total cpu time spent up to now is      325.0 secs

     total energy              =  -20134.83405117 Ry
     estimated scf accuracy    <    2418.23618259 Ry

     iteration #  3     ecut=    50.00 Ry     beta= 0.70
     Davidson diagonalization with overlap
     ethr =  5.06E-04,  avg # of iterations = 11.1

     negative rho (up, down):  1.825E-03 0.000E+00

     total cpu time spent up to now is      436.6 secs

     total energy              =  -20152.13843322 Ry
     estimated scf accuracy    <       7.41307715 Ry

     iteration #  4     ecut=    50.00 Ry     beta= 0.70
     Davidson diagonalization with overlap
     ethr =  5.06E-04,  avg # of iterations = 10.1

     negative rho (up, down):  1.880E-03 0.000E+00

     total cpu time spent up to now is      536.1 secs

     total energy              =  -20148.15881975 Ry
     estimated scf accuracy    <     329.41075317 Ry

     iteration #  5     ecut=    50.00 Ry     beta= 0.70
     Davidson diagonalization with overlap
     ethr =  5.06E-04,  avg # of iterations = 13.0

     negative rho (up, down):  1.703E-03 0.000E+00

     total cpu time spent up to now is      659.1 secs

     total energy              =  -20136.16489968 Ry
     estimated scf accuracy    <    2900.19354018 Ry

     iteration #  6     ecut=    50.00 Ry     beta= 0.70
     Davidson diagonalization with overlap
     ethr =  5.06E-04,  avg # of iterations = 11.5

     negative rho (up, down):  1.689E-03 0.000E+00

     total cpu time spent up to now is      768.7 secs

     total energy              =  -20153.30083075 Ry
     estimated scf accuracy    <       2.31788005 Ry

     iteration #  7     ecut=    50.00 Ry     beta= 0.70
     Davidson diagonalization with overlap
     ethr =  5.06E-04,  avg # of iterations =  3.3

     negative rho (up, down):  1.720E-03 0.000E+00

     total cpu time spent up to now is      828.6 secs

     total energy              =  -20153.41682076 Ry
     estimated scf accuracy    <       1.76512773 Ry

     iteration #  8     ecut=    50.00 Ry     beta= 0.70
     Davidson diagonalization with overlap
     ethr =  5.06E-04,  avg # of iterations =  1.2

     negative rho (up, down):  1.763E-03 0.000E+00

     total cpu time spent up to now is      876.3 secs

     total energy              =  -20153.45426493 Ry
     estimated scf accuracy    <       1.28731031 Ry

     iteration #  9     ecut=    50.00 Ry     beta= 0.70
     Davidson diagonalization with overlap
     ethr =  4.50E-04,  avg # of iterations =  1.1

     negative rho (up, down):  1.862E-03 0.000E+00

     total cpu time spent up to now is      928.6 secs

     total energy              =  -20153.47687254 Ry
     estimated scf accuracy    <       0.54387057 Ry

     iteration # 10     ecut=    50.00 Ry     beta= 0.70
     Davidson diagonalization with overlap
     ethr =  1.90E-04,  avg # of iterations =  1.6

     negative rho (up, down):  2.103E-03 0.000E+00

     total cpu time spent up to now is      982.6 secs

     total energy              =  -20153.47861613 Ry
     estimated scf accuracy    <       0.30656307 Ry

     iteration # 11     ecut=    50.00 Ry     beta= 0.70
     Davidson diagonalization with overlap
     ethr =  1.07E-04,  avg # of iterations =  2.2

     negative rho (up, down):  2.231E-03 0.000E+00

     total cpu time spent up to now is     1037.7 secs

     total energy              =  -20153.48058181 Ry
     estimated scf accuracy    <       0.10404314 Ry

     iteration # 12     ecut=    50.00 Ry     beta= 0.70
     Davidson diagonalization with overlap
     c_bands:  1 eigenvalues not converged
     c_bands:  1 eigenvalues not converged
     ethr =  3.64E-05,  avg # of iterations = 10.7

     negative rho (up, down):  2.156E-03 0.000E+00

     total cpu time spent up to now is     1110.5 secs

     total energy              =  -20153.47189784 Ry
     estimated scf accuracy    <       0.96109164 Ry

     iteration # 13     ecut=    50.00 Ry     beta= 0.70
     Davidson diagonalization with overlap
     ethr =  3.64E-05,  avg # of iterations =  6.4

     negative rho (up, down):  2.324E-03 0.000E+00

     total cpu time spent up to now is     1174.7 secs

     total energy              =  -20153.48334217 Ry
     estimated scf accuracy    <       0.07932682 Ry

     iteration # 14     ecut=    50.00 Ry     beta= 0.70
     Davidson diagonalization with overlap
     c_bands:  1 eigenvalues not converged
     ethr =  2.77E-05,  avg # of iterations =  4.5

     negative rho (up, down):  2.253E-03 0.000E+00

     total cpu time spent up to now is     1234.5 secs

     total energy              =  -20153.48285359 Ry
     estimated scf accuracy    <       0.25020268 Ry

     iteration # 15     ecut=    50.00 Ry     beta= 0.70
     Davidson diagonalization with overlap
     ethr =  2.77E-05,  avg # of iterations =  4.3

     negative rho (up, down):  2.248E-03 0.000E+00

     total cpu time spent up to now is     1294.4 secs

     total energy              =  -20153.48224204 Ry
     estimated scf accuracy    <       0.58501877 Ry

     iteration # 16     ecut=    50.00 Ry     beta= 0.70
     Davidson diagonalization with overlap
     ethr =  2.77E-05,  avg # of iterations =  1.8

     negative rho (up, down):  2.259E-03 0.000E+00

     total cpu time spent up to now is     1347.4 secs

     total energy              =  -20153.48882709 Ry
     estimated scf accuracy    <       0.02821644 Ry

     iteration # 17     ecut=    50.00 Ry     beta= 0.70
     Davidson diagonalization with overlap
     ethr =  9.87E-06,  avg # of iterations =  2.3

     negative rho (up, down):  2.262E-03 0.000E+00

     total cpu time spent up to now is     1397.6 secs

     total energy              =  -20153.48973254 Ry
     estimated scf accuracy    <       0.00073887 Ry

     iteration # 18     ecut=    50.00 Ry     beta= 0.70
     Davidson diagonalization with overlap
     c_bands:  1 eigenvalues not converged
     c_bands:  1 eigenvalues not converged
     c_bands:  1 eigenvalues not converged
     ethr =  2.58E-07,  avg # of iterations = 10.2

     negative rho (up, down):  2.265E-03 0.000E+00

     total cpu time spent up to now is     1475.8 secs

     total energy              =  -20153.48972206 Ry
     estimated scf accuracy    <       0.00491640 Ry

     iteration # 19     ecut=    50.00 Ry     beta= 0.70
     Davidson diagonalization with overlap
     ethr =  2.58E-07,  avg # of iterations =  2.1

     negative rho (up, down):  2.267E-03 0.000E+00

     total cpu time spent up to now is     1527.0 secs

     total energy              =  -20153.48985604 Ry
     estimated scf accuracy    <       0.00217780 Ry

     iteration # 20     ecut=    50.00 Ry     beta= 0.70
     Davidson diagonalization with overlap
     ethr =  2.58E-07,  avg # of iterations =  1.3

     negative rho (up, down):  2.277E-03 0.000E+00

     total cpu time spent up to now is     1579.8 secs

     total energy              =  -20153.48987134 Ry
     estimated scf accuracy    <       0.00026041 Ry

     iteration # 21     ecut=    50.00 Ry     beta= 0.70
     Davidson diagonalization with overlap
     ethr =  9.11E-08,  avg # of iterations =  3.1

     negative rho (up, down):  2.278E-03 0.000E+00

     total cpu time spent up to now is     1650.5 secs

     total energy              =  -20153.48972114 Ry
     estimated scf accuracy    <       0.00362344 Ry

     iteration # 22     ecut=    50.00 Ry     beta= 0.70
     Davidson diagonalization with overlap
     ethr =  9.11E-08,  avg # of iterations =  2.2

     negative rho (up, down):  2.279E-03 0.000E+00

     total cpu time spent up to now is     1715.0 secs

     total energy              =  -20153.48984600 Ry
     estimated scf accuracy    <       0.00198781 Ry

     iteration # 23     ecut=    50.00 Ry     beta= 0.70
     Davidson diagonalization with overlap
     ethr =  9.11E-08,  avg # of iterations =  2.0

     negative rho (up, down):  2.279E-03 0.000E+00

     total cpu time spent up to now is     1765.5 secs

     total energy              =  -20153.48976026 Ry
     estimated scf accuracy    <       0.01204135 Ry

     iteration # 24     ecut=    50.00 Ry     beta= 0.70
     Davidson diagonalization with overlap
     ethr =  9.11E-08,  avg # of iterations =  2.0

     negative rho (up, down):  2.280E-03 0.000E+00

     total cpu time spent up to now is     1822.5 secs

     total energy              =  -20153.48992558 Ry
     estimated scf accuracy    <       0.00050657 Ry

     iteration # 25     ecut=    50.00 Ry     beta= 0.70
     Davidson diagonalization with overlap
     ethr =  9.11E-08,  avg # of iterations =  1.1

     negative rho (up, down):  2.281E-03 0.000E+00

     total cpu time spent up to now is     1871.3 secs

     total energy              =  -20153.48993744 Ry
     estimated scf accuracy    <       0.00065720 Ry

     iteration # 26     ecut=    50.00 Ry     beta= 0.70
     Davidson diagonalization with overlap
     ethr =  9.11E-08,  avg # of iterations =  1.0

     negative rho (up, down):  2.281E-03 0.000E+00

     total cpu time spent up to now is     1921.9 secs

     total energy              =  -20153.48994202 Ry
     estimated scf accuracy    <       0.00069897 Ry

     iteration # 27     ecut=    50.00 Ry     beta= 0.70
     Davidson diagonalization with overlap
     ethr =  9.11E-08,  avg # of iterations =  1.0

     negative rho (up, down):  2.281E-03 0.000E+00

     total cpu time spent up to now is     1973.5 secs

     total energy              =  -20153.48995226 Ry
     estimated scf accuracy    <       0.00001040 Ry

     iteration # 28     ecut=    50.00 Ry     beta= 0.70
     Davidson diagonalization with overlap
     ethr =  3.64E-09,  avg # of iterations =  2.0

     negative rho (up, down):  2.282E-03 0.000E+00

     total cpu time spent up to now is     2032.1 secs

     total energy              =  -20153.48994836 Ry
     estimated scf accuracy    <       0.00014264 Ry

     iteration # 29     ecut=    50.00 Ry     beta= 0.70
     Davidson diagonalization with overlap
     ethr =  3.64E-09,  avg # of iterations =  1.8

     negative rho (up, down):  2.282E-03 0.000E+00

     total cpu time spent up to now is     2083.9 secs

     total energy              =  -20153.48995258 Ry
     estimated scf accuracy    <       0.00004237 Ry

     iteration # 30     ecut=    50.00 Ry     beta= 0.70
     Davidson diagonalization with overlap
     ethr =  3.64E-09,  avg # of iterations =  1.2

     negative rho (up, down):  2.282E-03 0.000E+00

     total cpu time spent up to now is     2132.7 secs

     total energy              =  -20153.48995427 Ry
     estimated scf accuracy    <       0.00000312 Ry

     iteration # 31     ecut=    50.00 Ry     beta= 0.70
     Davidson diagonalization with overlap
     ethr =  1.09E-09,  avg # of iterations =  2.1

     negative rho (up, down):  2.282E-03 0.000E+00

     total cpu time spent up to now is     2186.9 secs

     total energy              =  -20153.48995447 Ry
     estimated scf accuracy    <       0.00000210 Ry

     iteration # 32     ecut=    50.00 Ry     beta= 0.70
     Davidson diagonalization with overlap
     ethr =  7.33E-10,  avg # of iterations =  1.7

     negative rho (up, down):  2.282E-03 0.000E+00

     total cpu time spent up to now is     2236.6 secs

     total energy              =  -20153.48995461 Ry
     estimated scf accuracy    <       0.00000100 Ry

     iteration # 33     ecut=    50.00 Ry     beta= 0.70
     Davidson diagonalization with overlap
     ethr =  3.50E-10,  avg # of iterations =  2.0

     negative rho (up, down):  2.282E-03 0.000E+00

     total cpu time spent up to now is     2293.2 secs

     total energy              =  -20153.48995444 Ry
     estimated scf accuracy    <       0.00002076 Ry

     iteration # 34     ecut=    50.00 Ry     beta= 0.70
     Davidson diagonalization with overlap
     ethr =  3.50E-10,  avg # of iterations =  1.0

     negative rho (up, down):  2.282E-03 0.000E+00

     total cpu time spent up to now is     2341.6 secs

     End of self-consistent calculation

          k = 0.0000 0.0000 0.0000 ( 23605 PWs)   bands (ev):

     1.5126   1.6480   1.8897   2.1897   2.5582   2.9480   3.3247   3.6245
     3.8211   3.8865   3.9243   4.0030   4.0616   4.0658   4.0693   4.2059
     4.2155   4.2798   4.3981   4.4263   4.4653   4.5503   4.5561   4.5987
     4.6331   4.6774   4.8431   4.9332   4.9915   5.0422   5.2090   5.3088
     5.4102   5.4485   5.7465   5.9796   6.1426   6.1679   6.1840   6.2258
     6.2474   6.2651   6.3026   6.3126   6.3248   6.3264   6.3335   6.3412
     6.3498   6.3511   6.3679   6.3861   6.4025   6.4068   6.4166   6.4226
     6.4336   6.4650   6.4706   6.4730   6.5094   6.5159   6.5345   6.5450
     6.5556   6.5575   6.5647   6.5842   6.5929   6.6292   6.6329   6.6963
     6.7383   6.7606   6.8647   6.8652   6.8682   6.8684   6.9050   6.9981
     7.0521   7.1375   7.1666   7.2589   7.4870   7.5462   7.6244   7.6562
     7.6608   7.6783   7.6824   7.6925   7.6972   7.7072   7.7279   7.7508
     7.7653   7.8419   7.8436   7.8618   7.8949   7.9438   7.9967   8.0236
     8.0418   8.1244   8.1628   8.1850   8.3103   8.3490   8.3758   8.3870
     8.5089   8.5163   8.5570   8.5688   8.5773   8.6700   8.6912   8.6943
     8.7063   8.7425   8.7533   8.7573   8.7808   8.7945   8.7956   8.8034
     8.8238   8.8319   8.8410   8.8602   8.8826   8.9075   8.9376   8.9768
     9.0157   9.0666   9.1194   9.2147   9.2179   9.4229  10.2108  10.5105
    10.5693  10.6284  10.9368  11.2576  11.4724  11.6290  11.7298  11.7893
    11.8567  11.8774  11.9448  12.1155  12.1186  13.5122  13.7308  13.9721
    14.0268  14.2883  14.5409  14.8673  14.8878  15.0771  15.3447  15.8998
    16.2734  16.4146  16.4644  16.4699

          k = 0.0000 0.1443 0.0000 ( 23551 PWs)   bands (ev):

     1.6639   1.7995   2.0382   2.3373   2.7036   3.0929   3.4695   3.7679
     3.9584   4.0171   4.0372   4.1254   4.1842   4.2014   4.2048   4.2947
     4.3297   4.3864   4.5055   4.5542   4.5725   4.6426   4.6510   4.7341
     4.7550   4.7904   4.9085   5.0231   5.1186   5.1544   5.2734   5.3586
     5.4141   5.4804   5.7529   5.9457   6.0761   6.0859   6.1042   6.1277
     6.1447   6.1779   6.2191   6.2497   6.2547   6.2781   6.3070   6.3122
     6.3463   6.3567   6.3684   6.4064   6.4242   6.4405   6.4416   6.4492
     6.4565   6.4653   6.4777   6.5021   6.5164   6.5424   6.5522   6.5816
     6.5900   6.6106   6.6222   6.6356   6.6414   6.6548   6.6757   6.6890
     6.7166   6.7326   6.8143   6.8421   6.8432   6.8922   6.9138   6.9463
     6.9512   6.9911   7.1392   7.2578   7.2823   7.3439   7.4649   7.5096
     7.5276   7.5675   7.5823   7.5997   7.6359   7.6928   7.7003   7.7054
     7.7556   7.7767   7.7832   7.8163   7.8449   7.9025   7.9432   7.9850
     8.0228   8.0363   8.0862   8.1319   8.1647   8.2308   8.2383   8.3189
     8.3592   8.4116   8.4681   8.4749   8.4827   8.5305   8.5313   8.5707
     8.5847   8.6092   8.6352   8.6932   8.7187   8.7240   8.7295   8.7423
     8.7492   8.7631   8.7641   8.8033   8.8473   8.8639   8.8868   8.8943
     8.9361   9.0398   9.0502   9.1562   9.4425   9.9895  10.8612  10.9220
    11.0765  11.0986  11.3214  11.5368  11.6857  11.8061  11.9064  11.9941
    12.1080  12.2271  12.3658  12.5003  12.5273  13.5117  13.7701  14.0452
    14.0590  14.3806  14.6429  14.9294  15.0204  15.1874  15.5004  16.0548
    16.2084  16.5062  16.5388  16.5675

          k = 0.0000 0.2887 0.0000 ( 23495 PWs)   bands (ev):

     2.1018   2.2374   2.4645   2.7578   3.1128   3.4963   3.8698   4.1632
     4.3270   4.3346   4.3750   4.4589   4.4985   4.5200   4.5749   4.5780
     4.6038   4.6307   4.7439   4.8547   4.8860   4.9231   4.9385   5.0305
     5.0740   5.1044   5.1997   5.2049   5.3857   5.4051   5.4299   5.4848
     5.5625   5.6116   5.7535   5.8317   5.8460   5.8709   5.9056   5.9581
     5.9777   5.9794   6.0298   6.0359   6.0518   6.0811   6.1200   6.1210
     6.1713   6.1879   6.2049   6.2504   6.3537   6.3714   6.3881   6.4400
     6.4877   6.4926   6.5802   6.5882   6.6038   6.6133   6.6191   6.6346
     6.6544   6.6839   6.6854   6.6999   6.7428   6.7482   6.7794   6.7823
     6.7880   6.8303   6.8579   6.8596   6.8797   6.9031   6.9381   6.9715
     6.9970   7.0114   7.0751   7.1025   7.1244   7.1509   7.2066   7.2181
     7.2197   7.2903   7.3530   7.3620   7.4350   7.4465   7.4675   7.4799
     7.5794   7.5862   7.6517   7.6797   7.7060   7.7671   7.7958   7.8180
     7.8672   7.9055   7.9163   7.9436   7.9860   7.9994   8.0689   8.0706
     8.1200   8.1766   8.2092   8.2703   8.3137   8.3179   8.3554   8.4657
     8.4710   8.5083   8.5287   8.5529   8.5778   8.5873   8.6101   8.6502
     8.6841   8.7046   8.7184   8.7186   8.7743   8.7950   8.8529   8.9297
     8.9510   9.1000   9.1492   9.5013  10.2027  10.8192  11.7596  11.9740
    11.9898  12.0134  12.0601  12.1290  12.1355  12.2305  12.3513  12.5137
    12.6961  12.9305  13.1261  13.3744  13.5557  13.5976  14.0041  14.2006
    14.3608  14.7021  14.9549  15.1467  15.4197  15.5208  15.7907  16.0535
    16.1968  16.6743  16.7923  16.8794

          k = 0.0000 0.4330 0.0000 ( 23423 PWs)   bands (ev):

     2.7748   2.9087   3.1042   3.3775   3.6932   4.0478   4.4000   4.6279
     4.6851   4.7691   4.8383   4.8506   4.8608   4.9031   4.9244   4.9605
     4.9901   5.0667   5.0688   5.1099   5.1642   5.2184   5.3376   5.3415
     5.3626   5.3675   5.4101   5.4513   5.4986   5.5610   5.5700   5.6145
     5.6316   5.6710   5.6812   5.7308   5.7438   5.7772   5.7835   5.7922
     5.7922   5.8044   5.8240   5.8489   5.8977   5.9030   5.9053   5.9278
     5.9904   6.0475   6.0721   6.1175   6.1458   6.1852   6.2351   6.2506
     6.3216   6.3280   6.4166   6.4498   6.4792   6.5193   6.5455   6.5761
     6.5926   6.6208   6.6773   6.6789   6.6999   6.7255   6.7298   6.7424
     6.7632   6.7985   6.8283   6.8615   6.9207   6.9533   7.0119   7.0277
     7.1462   7.1570   7.1732   7.1964   7.2006   7.2745   7.2891   7.3295
     7.3627   7.3877   7.3966   7.3992   7.4052   7.4212   7.4511   7.4720
     7.5012   7.5131   7.5146   7.5518   7.6089   7.6324   7.6881   7.7319
     7.7705   7.8216   7.8274   7.8354   7.8801   7.9581   7.9813   8.0008
     8.0463   8.0552   8.0782   8.1114   8.2002   8.2495   8.2928   8.4205
     8.4258   8.4444   8.4868   8.4985   8.5233   8.5608   8.6037   8.6149
     8.6559   8.6593   8.6732   8.7358   8.7759   8.7821   8.8065   8.8184
     9.0050   9.1708   9.6779  10.1562  10.9372  11.6146  12.5139  12.5544
    12.6176  12.6342  12.6465  12.8181  12.9153  13.0985  13.2007  13.3876
    13.4457  13.5464  13.8198  13.9929  14.2424  14.3384  14.6028  14.6364
    14.8408  15.2233  15.3212  15.5943  15.6141  15.7274  15.9281  16.0850
    16.2231  16.4958  16.7664  16.8726

          k = 0.0000 0.5774 0.0000 ( 23470 PWs)   bands (ev):

     3.5797   3.7103   3.8321   4.0490   4.2591   4.5166   4.7338   4.7755
     5.0002   5.0207   5.0533   5.1009   5.1075   5.1117   5.1674   5.2199
     5.2289   5.2373   5.2838   5.2968   5.3504   5.3511   5.3699   5.3841
     5.4100   5.4150   5.4262   5.4695   5.4922   5.4971   5.5396   5.5440
     5.5721   5.5742   5.6391   5.6581   5.6699   5.6785   5.6976   5.7092
     5.7780   5.7871   5.7956   5.7972   5.8032   5.8894   5.9322   5.9383
     5.9564   5.9590   6.0354   6.0612   6.1191   6.1792   6.1957   6.2737
     6.3145   6.3406   6.3806   6.3912   6.3943   6.4038   6.4193   6.4320
     6.4693   6.4929   6.5074   6.5546   6.5750   6.5774   6.5872   6.5874
     6.6069   6.7100   6.7377   6.9676   6.9954   7.0457   7.0490   7.0506
     7.0538   7.0551   7.1842   7.2202   7.2321   7.2514   7.3735   7.4457
     7.4584   7.5143   7.5201   7.5336   7.5441   7.5463   7.5514   7.5593
     7.5844   7.6160   7.6434   7.6915   7.8145   7.8188   7.8562   7.8661
     7.9150   7.9608   8.0411   8.0835   8.1877   8.2053   8.2101   8.2627
     8.3555   8.4064   8.4408   8.4424   8.4525   8.4718   8.4959   8.4976
     8.5163   8.5233   8.5604   8.5695   8.5949   8.5959   8.6206   8.6349
     8.6427   8.6783   8.6814   8.6830   8.6918   8.7035   8.8487   8.9573
     9.2363   9.7146  10.3209  10.8955  11.7111  12.4087  12.7996  13.1650
    13.2122  13.2582  13.2726  13.2950  13.3577  13.3930  13.5452  13.6179
    13.7134  13.8351  13.8736  14.1561  14.7485  14.8850  14.9388  15.0600
    15.3022  15.3178  15.4112  15.5682  15.8624  15.8753  16.1463  16.3156
    16.4076  16.5837  16.8778  16.9291

          k = 0.0000 0.7217 0.0000 ( 23446 PWs)   bands (ev):

     4.2900   4.4582   4.4802   4.5515   4.6240   4.6846   4.7257   4.8497
     4.8638   4.9564   4.9580   4.9614   5.0335   5.0538   5.1346   5.1828
     5.1880   5.1922   5.2410   5.2697   5.2725   5.2772   5.3538   5.3548
     5.4336   5.4594   5.4709   5.4902   5.5018   5.5508   5.5781   5.5942
     5.6081   5.6224   5.6495   5.6664   5.6718   5.7142   5.7207   5.7425
     5.7662   5.7719   5.7788   5.7960   5.8070   5.8822   5.8982   5.9238
     5.9771   6.0434   6.1078   6.1242   6.1420   6.1985   6.2188   6.2539
     6.2776   6.3218   6.3298   6.3399   6.3498   6.3783   6.3794   6.3896
     6.4054   6.4846   6.5048   6.5794   6.5982   6.6279   6.6478   6.7065
     6.7093   6.7204   6.7542   6.9675   6.9704   7.0077   7.0115   7.1424
     7.1669   7.1712   7.1807   7.1854   7.2293   7.2599   7.3820   7.3843
     7.4063   7.4393   7.4569   7.5004   7.5487   7.5632   7.6278   7.6398
     7.6484   7.6544   7.7227   7.7870   7.8407   7.8481   7.9324   7.9613
     8.0102   8.0724   8.1165   8.1262   8.2473   8.2921   8.3227   8.4667
     8.4969   8.5708   8.6801   8.6813   8.6972   8.7020   8.7151   8.7183
     8.7301   8.7463   8.7526   8.7551   8.8767   8.8882   8.8973   8.9040
     8.9798   9.0926   9.2947   9.3447   9.3734   9.4524   9.5626   9.8068
    10.1880  10.6878  11.3148  11.6945  11.8036  11.9278  11.9873  12.2651
    12.5722  12.7168  12.9843  13.3901  13.3936  13.7521  14.0000  14.0949
    14.1618  14.1973  14.3332  14.3958  14.6987  14.8014  14.9470  15.1751
    15.5007  15.6686  15.9020  16.1005  16.1672  16.4573  16.5432  16.6067
    16.6841  16.8254  17.0341  17.1195

          k = 0.0000-0.8660 0.0000 ( 23420 PWs)   bands (ev):

     4.5789   4.5789   4.7245   4.7245   4.8175   4.8175   4.8230   4.8230
     4.8891   4.8891   4.9122   4.9123   5.0196   5.0196   5.0543   5.0544
     5.1305   5.1305   5.1713   5.1714   5.2417   5.2418   5.2456   5.2456
     5.4689   5.4689   5.4964   5.4964   5.5105   5.5105   5.5223   5.5223
     5.6094   5.6095   5.6805   5.6805   5.7072   5.7073   5.7459   5.7460
     5.8366   5.8366   5.8814   5.8814   5.9391   5.9392   5.9890   5.9890
     6.0132   6.0132   6.0685   6.0685   6.1016   6.1016   6.1206   6.1206
     6.2488   6.2489   6.3014   6.3015   6.3581   6.3581   6.4376   6.4376
     6.5397   6.5398   6.5872   6.5872   6.6212   6.6212   6.6841   6.6841
     6.9578   6.9578   6.9785   6.9786   6.9891   6.9892   7.0273   7.0273
     7.0309   7.0310   7.2694   7.2695   7.3032   7.3032   7.3289   7.3289
     7.3596   7.3596   7.4215   7.4216   7.5334   7.5335   7.6553   7.6553
     7.6740   7.6740   7.8155   7.8155   7.8539   7.8539   7.9288   7.9288
     7.9937   7.9937   8.0933   8.0933   8.1541   8.1541   8.4184   8.4184
     8.5455   8.5455   8.7539   8.7540   8.8152   8.8152   8.8379   8.8380
     8.8706   8.8707   8.8960   8.8961   9.0155   9.0155   9.0356   9.0357
     9.2012   9.2013  10.3980  10.3980  10.4590  10.4590  10.5517  10.5517
    10.7239  10.7239  10.9466  10.9466  11.2824  11.2825  11.6977  11.6977
    12.1915  12.1915  12.7868  12.7868  13.3587  13.3587  14.0471  14.0472
    14.5809  14.5809  15.0411  15.0411  15.7619  15.7620  15.8050  15.8050
    15.8457  15.8458  15.9595  15.9595  16.2016  16.2016  16.2624  16.2625
    16.4145  16.4146  16.6067  16.6068

          k = 0.1250 0.0000 0.0000 ( 23563 PWs)   bands (ev):

     1.6269   1.7618   2.0019   2.3006   2.6678   3.0573   3.4342   3.7328
     3.9211   3.9253   3.9845   4.0581   4.1024   4.1679   4.1715   4.2117
     4.2489   4.3178   4.4121   4.4403   4.4932   4.5651   4.5974   4.6152
     4.6743   4.7147   4.8826   4.9701   5.0171   5.0649   5.2441   5.3288
     5.4009   5.4758   5.7611   5.9879   6.0844   6.1409   6.1608   6.1697
     6.2043   6.2230   6.2626   6.2944   6.3152   6.3313   6.3377   6.3399
     6.3573   6.3727   6.3815   6.3951   6.4076   6.4206   6.4315   6.4461
     6.4483   6.4660   6.4819   6.4984   6.5275   6.5405   6.5517   6.5748
     6.5884   6.6001   6.6101   6.6140   6.6170   6.6417   6.6613   6.6649
     6.6953   6.7787   6.8216   6.8466   6.8684   6.9280   6.9312   6.9401
     7.0100   7.0127   7.1021   7.2673   7.3836   7.3978   7.5146   7.5433
     7.5474   7.5759   7.5926   7.5981   7.6698   7.6890   7.7442   7.7523
     7.7945   7.8197   7.8263   7.8356   7.8730   7.8964   7.9477   7.9820
     8.0163   8.1081   8.1146   8.1714   8.1949   8.2447   8.3462   8.3490
     8.3810   8.4712   8.4798   8.5220   8.5369   8.5828   8.6089   8.6504
     8.6749   8.6849   8.6947   8.7020   8.7210   8.7273   8.7488   8.7588
     8.7782   8.7996   8.8081   8.8274   8.8345   8.8527   8.8872   8.9422
     8.9694   9.0071   9.1173   9.1206   9.3048   9.3490   9.6699   9.9249
     9.9460  10.1324  10.2050  10.3289  10.6905  10.8290  10.9970  11.2738
    11.9617  12.6659  13.2834  13.4596  13.5315  13.6594  13.9194  14.0495
    14.2015  14.5186  14.8200  14.9134  15.1595  15.2132  15.6026  15.9286
    16.3876  16.4809  16.5409  16.9326

          k = 0.1250 0.1443 0.0000 ( 23537 PWs)   bands (ev):

     1.7766   1.9112   2.1482   2.4453   2.8099   3.1984   3.5750   3.8719
     4.0367   4.0579   4.1101   4.1828   4.2243   4.2992   4.3028   4.3271
     4.3406   4.4249   4.5298   4.5593   4.6073   4.6674   4.6995   4.7359
     4.7825   4.8243   4.9482   5.0575   5.1426   5.1697   5.3073   5.3820
     5.3932   5.5016   5.7509   5.9401   6.0090   6.0327   6.0791   6.1006
     6.1233   6.1762   6.2067   6.2144   6.2351   6.2535   6.2551   6.3044
     6.3066   6.3289   6.3673   6.4043   6.4226   6.4555   6.4595   6.4865
     6.4909   6.4920   6.5046   6.5161   6.5277   6.5628   6.5924   6.6076
     6.6147   6.6284   6.6404   6.6524   6.6620   6.6743   6.6963   6.7161
     6.7421   6.7548   6.7744   6.8058   6.8184   6.8835   6.8963   6.9124
     7.0089   7.0128   7.1116   7.1459   7.1927   7.2748   7.4169   7.4253
     7.4785   7.5031   7.5329   7.5366   7.5656   7.5681   7.6186   7.6676
     7.7107   7.7115   7.7484   7.7876   7.8450   7.8694   7.8698   7.9339
     7.9556   7.9799   8.0182   8.0725   8.1497   8.1598   8.2179   8.2337
     8.3185   8.3235   8.3461   8.3508   8.4147   8.4735   8.5034   8.5159
     8.5336   8.5530   8.5597   8.5805   8.6260   8.6376   8.6567   8.7064
     8.7283   8.7403   8.7554   8.7667   8.7836   8.8205   8.8554   8.8987
     9.0099   9.0366   9.0917   9.1180   9.6775   9.9908  10.1408  10.2919
    10.3120  10.4392  10.5630  10.7841  11.1655  11.1707  11.4005  11.6982
    12.3340  12.9993  13.4835  13.5541  13.6453  13.7269  14.0118  14.0853
    14.3074  14.6262  14.9222  14.9797  15.2694  15.3334  15.7240  15.9721
    16.4364  16.5718  16.6444  16.9822

          k = 0.1250 0.2887 0.0000 ( 23467 PWs)   bands (ev):

     2.2071   2.3406   2.5648   2.8542   3.2047   3.5839   3.9537   4.2414
     4.3313   4.4057   4.4442   4.5127   4.5447   4.5458   4.6235   4.6452
     4.6515   4.6545   4.7677   4.8570   4.9142   4.9385   4.9903   5.0435
     5.0767   5.1350   5.1976   5.2459   5.3625   5.3743   5.4051   5.4947
     5.5865   5.6356   5.7420   5.7567   5.8100   5.8764   5.8787   5.9775
     5.9812   6.0001   6.0226   6.0290   6.0527   6.0714   6.0925   6.0943
     6.1514   6.1854   6.2188   6.2200   6.2997   6.3100   6.4146   6.4394
     6.4720   6.5221   6.5815   6.5946   6.6032   6.6175   6.6256   6.6356
     6.6454   6.6743   6.7098   6.7358   6.7668   6.7747   6.7881   6.8021
     6.8315   6.8640   6.8668   6.8869   6.8949   6.9046   6.9275   6.9815
     7.0042   7.0141   7.0179   7.0359   7.0640   7.0892   7.1162   7.1955
     7.2071   7.2214   7.2828   7.3165   7.3707   7.3928   7.4356   7.4748
     7.4999   7.5800   7.5998   7.6317   7.6932   7.6999   7.7328   7.7758
     7.7908   7.8222   7.8561   7.8610   7.9264   7.9743   7.9972   8.0466
     8.0899   8.1383   8.1536   8.2021   8.2148   8.2301   8.2408   8.3025
     8.3325   8.4046   8.4363   8.5076   8.5505   8.6213   8.6256   8.7052
     8.7408   8.7460   8.7787   8.7835   8.8065   8.8291   8.8842   8.9889
     9.0211   9.1468   9.2092   9.6249  10.3320  10.7634  10.8150  10.9443
    10.9844  11.0904  11.3262  11.6498  11.9159  12.0756  12.3459  12.5939
    13.1933  13.5889  13.7075  13.8373  13.9188  14.1645  14.2427  14.4379
    14.6685  14.9602  15.2069  15.2548  15.6042  15.6412  15.9879  16.0982
    16.4717  16.8470  16.9685  16.9829

          k = 0.1250 0.4330 0.0000 ( 23435 PWs)   bands (ev):

     2.8593   2.9883   3.1787   3.4422   3.7453   4.0825   4.4118   4.6251
     4.6610   4.7869   4.7893   4.8548   4.8580   4.8837   4.9290   4.9405
     4.9785   5.0833   5.0881   5.0890   5.1293   5.1741   5.2541   5.2978
     5.3472   5.3546   5.4085   5.4331   5.4473   5.5277   5.5534   5.6225
     5.6529   5.6587   5.6921   5.7285   5.7376   5.7655   5.7828   5.8054
     5.8365   5.8392   5.8739   5.8772   5.9060   5.9297   5.9515   5.9577
     6.0103   6.0468   6.0568   6.1454   6.1600   6.2175   6.2889   6.3243
     6.3621   6.4052   6.4417   6.4752   6.4896   6.5216   6.5231   6.5629
     6.5857   6.6345   6.6386   6.6402   6.6705   6.7015   6.7224   6.7371
     6.7409   6.8688   6.8721   6.9065   6.9558   6.9564   6.9774   7.0509
     7.1329   7.1419   7.1786   7.2010   7.2069   7.2198   7.2709   7.2927
     7.3152   7.3301   7.3376   7.3706   7.4257   7.4346   7.4556   7.4803
     7.5071   7.5073   7.5442   7.5687   7.5761   7.6269   7.6397   7.6908
     7.7254   7.7348   7.8017   7.8498   7.8685   7.8925   7.9143   7.9430
     7.9870   8.0369   8.0758   8.1127   8.1391   8.1998   8.2240   8.2731
     8.3494   8.4276   8.4965   8.5148   8.5865   8.5901   8.6842   8.7145
     8.7180   8.7420   8.7455   8.7741   8.8188   8.8234   8.9029   8.9425
     9.0945   9.1853   9.7237  10.2363  11.0164  11.3947  11.4550  11.6437
    11.7114  11.8584  12.1721  12.5571  12.6996  13.0040  13.4640  13.5389
    13.7509  13.9086  14.2023  14.2791  14.5030  14.6681  14.6777  14.7996
    15.1469  15.3181  15.6081  15.6303  15.6623  15.9113  16.1732  16.2036
    16.4300  16.5535  16.8672  17.3113

          k = 0.1250 0.5774 0.0000 ( 23447 PWs)   bands (ev):

     3.6094   3.7260   3.8511   4.0528   4.2461   4.4703   4.6875   4.6932
     4.8545   4.8602   4.9488   4.9722   4.9737   5.0018   5.0420   5.0429
     5.1197   5.1337   5.1742   5.1815   5.2254   5.2357   5.2760   5.3225
     5.3616   5.3854   5.4139   5.4444   5.4610   5.4842   5.5267   5.5374
     5.5905   5.6007   5.6191   5.6614   5.6996   5.7341   5.7415   5.7486
     5.7618   5.7838   5.8060   5.8568   5.8980   5.9005   5.9232   5.9825
     6.0290   6.0428   6.0633   6.0958   6.1333   6.1909   6.2360   6.2458
     6.3509   6.3755   6.3860   6.4627   6.4959   6.5121   6.5595   6.5626
     6.5858   6.5920   6.6200   6.6334   6.6437   6.6635   6.7332   6.7382
     6.7455   6.8161   6.8630   6.9051   6.9491   6.9583   6.9584   7.0917
     7.1423   7.1647   7.2503   7.2560   7.3022   7.3135   7.3485   7.4206
     7.4469   7.4589   7.4821   7.5313   7.5404   7.5823   7.5835   7.6176
     7.6779   7.6949   7.7145   7.7394   7.8440   7.8711   7.8941   7.9113
     7.9285   7.9979   8.0604   8.1276   8.1808   8.1950   8.2039   8.2291
     8.3375   8.3527   8.3947   8.3984   8.4275   8.4683   8.4887   8.5119
     8.5179   8.5547   8.5802   8.5912   8.6041   8.6221   8.6297   8.6841
     8.7057   8.7251   8.7354   8.7358   8.7964   8.8283   8.8284   9.0332
     9.2244   9.7226  10.3510  10.9488  11.7622  12.0955  12.1857  12.4092
    12.4702  12.6749  12.9747  13.2425  13.3958  13.3983  13.4518  13.6544
    13.9071  13.9621  14.1744  14.2530  14.4254  14.7631  14.8263  15.0097
    15.2800  15.4325  15.4706  15.5632  15.9036  16.0162  16.2743  16.3733
    16.4788  16.7230  16.8972  16.9641

          k = 0.1250 0.7217 0.0000 ( 23455 PWs)   bands (ev):

     4.2017   4.2994   4.3947   4.5306   4.6006   4.6167   4.6647   4.7067
     4.7672   4.8086   4.8135   4.8547   4.8977   4.9182   4.9907   5.0228
     5.0725   5.0813   5.1030   5.1041   5.1824   5.2199   5.2368   5.2448
     5.2656   5.2762   5.3088   5.3432   5.3769   5.4168   5.4588   5.4596
     5.4824   5.5471   5.5676   5.6093   5.6627   5.6839   5.7055   5.7169
     5.7940   5.7968   5.8214   5.8780   5.8989   5.9403   5.9481   5.9786
     5.9951   6.0628   6.1288   6.1509   6.2078   6.2152   6.2723   6.3060
     6.3336   6.3648   6.4054   6.4222   6.4320   6.5013   6.5780   6.6013
     6.6359   6.6450   6.6970   6.7571   6.7816   6.8011   6.8208   6.8540
     6.8948   6.9280   6.9533   6.9941   7.0123   7.0523   7.0661   7.0985
     7.1433   7.1884   7.2210   7.2473   7.3774   7.3814   7.4795   7.4823
     7.4929   7.5352   7.5740   7.6401   7.6484   7.6768   7.7308   7.7353
     7.8014   7.8289   7.8443   7.8660   7.9924   7.9979   8.0285   8.0752
     8.0760   8.1775   8.2185   8.2376   8.3325   8.3460   8.3660   8.4818
     8.5242   8.5856   8.6329   8.6434   8.6517   8.6610   8.7052   8.7154
     8.7497   8.7730   8.7796   8.8018   8.8850   8.8879   8.9003   8.9044
     8.9632   9.1142   9.2637   9.3056   9.3512   9.4273   9.5315   9.7702
    10.1607  10.6791  11.3260  11.7740  11.8759  11.9612  12.0519  12.3117
    12.6101  12.7505  12.9974  13.1065  13.2185  13.3750  13.4368  13.5336
    13.7068  13.9147  14.1459  14.2258  14.4577  14.5983  14.8497  15.0464
    15.3220  15.5824  15.8215  15.9099  16.0077  16.3033  16.3400  16.5021
    16.5463  16.6439  16.8757  16.9635

          k = 0.1250-0.8660 0.0000 ( 23492 PWs)   bands (ev):

     4.4503   4.4626   4.5548   4.5670   4.6430   4.6546   4.6817   4.6891
     4.7709   4.7836   4.7939   4.8084   4.9491   4.9508   4.9763   4.9771
     5.0771   5.0853   5.0929   5.0954   5.1419   5.1429   5.1574   5.1604
     5.2250   5.2375   5.2868   5.2907   5.3214   5.3221   5.3536   5.3593
     5.4757   5.4811   5.5744   5.5758   5.6237   5.6327   5.7195   5.7234
     5.8043   5.8081   5.8989   5.9135   5.9295   5.9296   5.9894   5.9905
     6.0557   6.0566   6.1006   6.1018   6.1576   6.1768   6.2267   6.2474
     6.3948   6.3966   6.4410   6.4499   6.5690   6.5709   6.5955   6.6025
     6.7166   6.7168   6.7580   6.7612   6.8504   6.8505   6.8624   6.8646
     6.8830   6.8906   7.0078   7.0142   7.0582   7.0638   7.1432   7.1561
     7.1790   7.1947   7.3343   7.3365   7.4223   7.4295   7.4843   7.4866
     7.5314   7.5408   7.6142   7.6319   7.7071   7.7212   7.8111   7.8139
     7.8464   7.8518   7.9681   7.9700   8.0023   8.0052   8.0470   8.0566
     8.1061   8.1139   8.1643   8.1955   8.2286   8.2288   8.4276   8.4283
     8.5447   8.5531   8.7430   8.7463   8.7804   8.7813   8.8038   8.8088
     8.8663   8.8707   8.9092   8.9109   9.0196   9.0200   9.0341   9.0360
     9.1936   9.2009  10.3954  10.4010  10.4602  10.4624  10.5533  10.5542
    10.7169  10.7229  10.9326  10.9367  11.2611  11.2666  11.6772  11.6810
    12.1798  12.1799  12.7884  12.7896  13.3680  13.3844  14.0228  14.0298
    14.4570  14.4617  14.6844  14.6886  14.7802  14.8059  14.9747  14.9939
    15.3011  15.3146  15.4106  15.4284  15.8053  15.8158  15.9603  15.9783
    16.2558  16.2604  16.6152  16.6255

          k = 0.2500 0.0000 0.0000 ( 23536 PWs)   bands (ev):

     1.9606   2.0934   2.3271   2.6201   2.9810   3.3664   3.7420   3.8743
     4.0063   4.0353   4.1589   4.2139   4.2576   4.3407   4.3578   4.3812
     4.4048   4.4535   4.4571   4.4708   4.5098   4.5981   4.6965   4.7213
     4.7955   4.8246   4.9767   5.0615   5.1097   5.1539   5.3384   5.3732
     5.4002   5.5639   5.8098   5.8599   5.9300   6.0125   6.0181   6.0529
     6.1026   6.1409   6.1606   6.1859   6.2060   6.2501   6.2655   6.2971
     6.3107   6.3545   6.3901   6.4078   6.4312   6.4604   6.4983   6.5074
     6.5081   6.5167   6.5659   6.5816   6.5965   6.6194   6.6220   6.6339
     6.6429   6.6624   6.6799   6.6882   6.6891   6.7395   6.7446   6.7514
     6.7712   6.8031   6.8147   6.8333   6.8394   6.8499   6.8802   6.9167
     6.9741   7.0382   7.0728   7.0971   7.1030   7.2694   7.2788   7.3137
     7.3643   7.3744   7.4032   7.4537   7.4912   7.5178   7.5450   7.6115
     7.6314   7.6423   7.7063   7.7405   7.7458   7.7974   7.8325   7.8780
     7.9174   8.0084   8.0213   8.0325   8.0385   8.1461   8.1850   8.2106
     8.2229   8.3240   8.3312   8.3528   8.3666   8.3947   8.4042   8.4156
     8.4537   8.4720   8.5070   8.5309   8.5445   8.5531   8.5768   8.5912
     8.6044   8.6236   8.6367   8.6858   8.6932   8.7253   8.7740   8.7866
     8.8176   8.8313   8.8496   8.8700   8.9138   8.9198   8.9494   8.9521
     9.1096   9.3645   9.6993   9.9770  10.3978  10.6516  11.1453  11.5180
    11.8378  11.8963  12.6755  13.3983  14.1430  14.1728  15.0695  15.1187
    15.3448  15.4091  15.5033  15.6207  15.9174  16.3543  16.6814  16.7785
    16.8156  17.1106  17.3988  17.7985

          k = 0.2500 0.1443 0.0000 ( 23484 PWs)   bands (ev):

     2.1052   2.2372   2.4669   2.7571   3.1139   3.4971   3.8721   3.9977
     4.1388   4.1644   4.2827   4.3363   4.3721   4.4433   4.4854   4.4969
     4.5160   4.5745   4.5780   4.5983   4.6356   4.7077   4.7884   4.7991
     4.8739   4.9346   5.0365   5.1593   5.2146   5.2405   5.3526   5.3923
     5.4599   5.5774   5.7770   5.8342   5.8764   5.9145   5.9545   5.9728
     6.0389   6.0678   6.0994   6.1122   6.1457   6.1740   6.2077   6.2363
     6.2417   6.3226   6.3275   6.3608   6.3908   6.3995   6.4268   6.4514
     6.5179   6.5275   6.5660   6.5833   6.5918   6.6088   6.6219   6.6347
     6.6403   6.6587   6.6759   6.6952   6.7279   6.7450   6.7590   6.7711
     6.7847   6.8137   6.8400   6.8435   6.8578   6.8773   6.8901   6.9373
     6.9511   6.9883   7.0647   7.1017   7.1063   7.1706   7.1792   7.2095
     7.2693   7.2731   7.3146   7.3559   7.4237   7.4263   7.4698   7.4770
     7.5675   7.5922   7.6696   7.6697   7.7233   7.7262   7.7463   7.8207
     7.8619   7.8645   7.8993   7.9085   7.9094   7.9876   8.0377   8.0637
     8.1366   8.1455   8.1816   8.2045   8.2173   8.2229   8.2522   8.3265
     8.3477   8.4161   8.4262   8.4897   8.5250   8.5542   8.5845   8.6170
     8.6292   8.6774   8.7019   8.7257   8.7297   8.7863   8.8043   8.8536
     8.9188   8.9333   9.1242   9.1362   9.2341   9.3226   9.3703   9.4527
     9.5492   9.6700  10.1049  10.1900  10.7022  10.8747  11.3925  11.7591
    12.1075  12.1490  12.8679  13.5672  14.1954  14.3315  15.1485  15.2893
    15.3892  15.5181  15.5625  15.7284  15.9960  16.4348  16.7821  16.8758
    16.9027  17.1938  17.4565  17.8262

          k = 0.2500 0.2887 0.0000 ( 23496 PWs)   bands (ev):

     2.5134   2.6429   2.8556   3.1332   3.4677   3.8324   4.1907   4.3069
     4.4647   4.4860   4.5854   4.6103   4.6405   4.6483   4.7155   4.7701
     4.7887   4.8205   4.8717   4.8745   4.9242   4.9775   5.0397   5.0579
     5.1343   5.1774   5.2508   5.2908   5.2955   5.3779   5.4562   5.5464
     5.5993   5.6621   5.6745   5.7094   5.7875   5.8068   5.8496   5.9078
     5.9134   5.9305   5.9517   5.9819   6.0141   6.0443   6.0897   6.0939
     6.1076   6.1224   6.1810   6.1978   6.2472   6.2544   6.3393   6.3602
     6.4124   6.4174   6.4589   6.4815   6.5234   6.5572   6.5618   6.5901
     6.5995   6.6613   6.6674   6.6861   6.7006   6.7262   6.7729   6.7744
     6.7963   6.8260   6.8635   6.8732   6.9072   6.9479   6.9576   6.9692
     6.9746   7.0118   7.0132   7.0648   7.1115   7.1143   7.1419   7.1710
     7.1861   7.2221   7.2679   7.2904   7.3195   7.3495   7.3531   7.3610
     7.4310   7.4842   7.5045   7.5132   7.5366   7.6082   7.6229   7.6961
     7.7058   7.7487   7.7599   7.8087   7.8263   7.8368   7.8906   7.9074
     7.9337   7.9937   8.0010   8.0737   8.0889   8.1580   8.1613   8.2576
     8.2842   8.3883   8.4227   8.4543   8.5793   8.5926   8.6693   8.7041
     8.7547   8.7552   8.7830   8.7910   8.8298   8.8764   8.9572   8.9914
     8.9948   9.0824   9.4554   9.8119   9.8510   9.9160   9.9467  10.0092
    10.1799  10.4610  10.6691  10.8711  11.3728  11.3943  12.0105  12.3188
    12.6565  12.9343  13.3741  14.0080  14.4064  14.7245  15.4042  15.5225
    15.6638  15.8317  15.8557  16.0086  16.2214  16.6204  17.0492  17.0511
    17.2118  17.2727  17.5667  17.6574

          k = 0.2500 0.4330 0.0000 ( 23431 PWs)   bands (ev):

     3.1019   3.2222   3.3943   3.6337   3.8998   4.1920   4.4675   4.5685
     4.6591   4.7673   4.7755   4.8076   4.8166   4.8631   4.8712   4.9157
     4.9742   4.9938   5.0360   5.0921   5.1063   5.1403   5.1642   5.2123
     5.2421   5.2474   5.3016   5.4095   5.4719   5.5001   5.5209   5.5480
     5.5586   5.6410   5.6598   5.6635   5.7323   5.7342   5.7926   5.8262
     5.8399   5.8863   5.9220   5.9271   5.9595   5.9801   6.0149   6.0149
     6.0574   6.0867   6.1019   6.1465   6.1532   6.1987   6.2698   6.2981
     6.3417   6.3644   6.4031   6.4517   6.5055   6.5196   6.5675   6.5813
     6.6089   6.6170   6.6587   6.6683   6.7000   6.7152   6.7409   6.7616
     6.8475   6.8856   6.8973   6.9775   6.9779   6.9789   7.0028   7.0280
     7.0393   7.0531   7.1660   7.1778   7.1861   7.2466   7.2706   7.2862
     7.3063   7.3514   7.3603   7.3960   7.4097   7.4416   7.4650   7.5246
     7.5533   7.5604   7.5687   7.6143   7.6429   7.6474   7.6522   7.6811
     7.7185   7.7446   7.7858   7.8321   7.8556   7.8918   7.8976   7.9510
     7.9541   8.0192   8.0552   8.0730   8.1081   8.1552   8.2399   8.2462
     8.3341   8.4318   8.4437   8.5729   8.5848   8.6395   8.7423   8.8056
     8.8109   8.8259   8.8375   8.8518   8.8539   8.8880   8.9847   9.0264
     9.1456   9.2967   9.8908  10.4214  10.4519  10.4606  10.5634  10.7095
    10.9492  11.2462  11.2788  11.7030  11.9661  12.2059  12.7842  12.9301
    13.3647  13.9677  14.0306  14.5427  14.8933  15.0422  15.6137  15.8055
    15.8761  15.8866  15.9917  16.1577  16.2951  16.4351  16.4416  16.6865
    16.9578  17.2188  17.4533  17.5552

          k = 0.2500 0.5774 0.0000 ( 23466 PWs)   bands (ev):

     3.6895   3.7870   3.9189   4.0934   4.2494   4.4022   4.5343   4.5438
     4.6500   4.6525   4.7242   4.7371   4.7665   4.8223   4.8592   4.8622
     4.9257   4.9762   5.0083   5.0343   5.0365   5.1368   5.1374   5.1598
     5.1750   5.1894   5.2154   5.2534   5.3054   5.3345   5.3357   5.3661
     5.4551   5.4707   5.5080   5.5574   5.5809   5.6624   5.7075   5.7435
     5.8135   5.8666   5.8726   5.9125   5.9498   5.9588   6.0154   6.0726
     6.1447   6.1597   6.2043   6.2230   6.2866   6.3984   6.4438   6.4523
     6.4567   6.5081   6.5341   6.5796   6.5948   6.5956   6.6220   6.6358
     6.6577   6.7031   6.7492   6.8020   6.8117   6.8451   6.8680   6.9160
     6.9572   6.9721   7.0013   7.0226   7.0953   7.1284   7.1651   7.2085
     7.2412   7.2940   7.3317   7.3525   7.4035   7.4842   7.5010   7.5085
     7.5198   7.5519   7.5643   7.6518   7.7072   7.7475   7.7928   7.8287
     7.8646   7.8662   7.9165   7.9316   7.9580   7.9715   8.0168   8.0514
     8.0543   8.0641   8.0901   8.1361   8.1370   8.1451   8.2046   8.2250
     8.2468   8.3326   8.3351   8.3465   8.3842   8.4358   8.4674   8.4946
     8.5145   8.5335   8.5831   8.5879   8.6509   8.7111   8.7360   8.7530
     8.7678   8.8245   8.8309   8.8431   8.8579   8.9525   8.9873   9.1375
     9.2165   9.7832  10.4675  11.0825  11.1125  11.1348  11.2932  11.4813
    11.7644  11.9291  12.1237  12.5593  12.6520  13.0458  13.5389  13.5427
    13.7974  13.8256  14.0099  14.2879  14.4635  14.7173  15.0310  15.0366
    15.1258  15.4790  15.6439  15.7276  15.9343  16.2824  16.4258  16.5438
    16.7309  17.1192  17.1402  17.5140

          k = 0.2500 0.7217 0.0000 ( 23545 PWs)   bands (ev):

     4.0477   4.1146   4.2587   4.3730   4.3873   4.4596   4.5041   4.5105
     4.5538   4.5713   4.5849   4.6445   4.6778   4.7149   4.7444   4.7766
     4.8296   4.8667   4.8839   4.8876   4.9127   4.9202   4.9336   5.0231
     5.0276   5.0731   5.1135   5.1160   5.1430   5.2167   5.2426   5.2456
     5.2956   5.3374   5.3943   5.4399   5.4915   5.5339   5.6305   5.6599
     5.8061   5.8111   5.8727   5.8896   5.9673   5.9983   6.0057   6.0860
     6.1093   6.2545   6.3047   6.3191   6.3560   6.3602   6.3987   6.4424
     6.5362   6.5406   6.5781   6.5784   6.5905   6.6591   6.7261   6.7327
     6.7589   6.7851   6.8176   6.8689   6.9082   6.9629   7.0521   7.0567
     7.1169   7.1238   7.2157   7.2306   7.2593   7.2970   7.3342   7.3638
     7.4686   7.4700   7.6066   7.6074   7.6402   7.6675   7.6865   7.7864
     7.8675   7.8982   7.9136   7.9251   7.9370   7.9721   8.0266   8.0829
     8.1297   8.1783   8.1900   8.2186   8.2324   8.2406   8.2743   8.3068
     8.3088   8.3343   8.3882   8.4024   8.4698   8.5366   8.5378   8.5500
     8.5698   8.5858   8.6090   8.6099   8.6604   8.6756   8.7007   8.7197
     8.7535   8.7679   8.8188   8.8746   8.8841   8.9149   8.9240   8.9321
     8.9384   9.1568   9.1729   9.1981   9.3035   9.3795   9.4661   9.6871
    10.1079  10.6818  11.3843  11.9029  11.9803  12.0081  12.0693  12.0706
    12.1591  12.2760  12.4375  12.5885  12.7401  12.8493  12.8685  13.0165
    13.3149  13.4367  13.5822  13.9098  14.1033  14.3198  14.4663  14.7164
    14.8214  15.2372  15.3000  15.4097  15.5529  15.6947  15.8005  16.0024
    16.0574  16.2399  16.3865  16.5267

          k = 0.2500-0.8660 0.0000 ( 23532 PWs)   bands (ev):

     4.2060   4.2309   4.2820   4.2958   4.4090   4.4219   4.4685   4.4738
     4.5609   4.5740   4.5796   4.5954   4.7441   4.7450   4.7527   4.7536
     4.7744   4.7805   4.7938   4.7944   4.8982   4.9008   4.9073   4.9161
     4.9448   4.9453   5.0318   5.0332   5.1129   5.1237   5.2050   5.2288
     5.2835   5.2855   5.3458   5.3481   5.4385   5.4487   5.6235   5.6397
     5.7922   5.8019   5.9426   5.9684   6.0130   6.0391   6.0689   6.0846
     6.1257   6.1289   6.2323   6.2385   6.3760   6.3761   6.4174   6.4187
     6.5211   6.5274   6.5753   6.5764   6.6342   6.6374   6.7359   6.7488
     6.8084   6.8256   6.8729   6.8754   6.9470   6.9613   7.1219   7.1359
     7.1925   7.2000   7.2795   7.2802   7.4031   7.4132   7.4336   7.4450
     7.5239   7.5316   7.7023   7.7083   7.7448   7.7533   7.8342   7.8451
     7.9563   7.9781   8.0582   8.0583   8.0696   8.0701   8.1131   8.1399
     8.2460   8.2588   8.3253   8.3472   8.3521   8.3571   8.3915   8.3941
     8.4075   8.4129   8.4296   8.4307   8.4367   8.4565   8.5190   8.5193
     8.5960   8.6066   8.7300   8.7313   8.7505   8.7521   8.7774   8.7843
     8.8552   8.8638   8.9056   8.9131   9.0244   9.0248   9.0367   9.0387
     9.1754   9.1917  10.3887  10.4073  10.4715  10.4782  10.5951  10.5960
    10.7413  10.7532  10.9264  10.9349  11.2190  11.2320  11.6153  11.6277
    12.1117  12.1185  12.7204  12.7332  13.2898  13.2992  13.5444  13.5552
    13.6400  13.6407  13.7377  13.7546  14.0292  14.0523  14.2382  14.2648
    14.6073  14.6382  14.6865  14.7854  14.9480  14.9876  15.3631  15.3713
    15.7304  15.7427  16.0054  16.0085

          k = 0.3750 0.0000 0.0000 ( 23492 PWs)   bands (ev):

     2.4811   2.6077   2.8249   3.0995   3.4377   3.6438   3.7570   3.8008
     3.9043   4.0754   4.1580   4.2389   4.3638   4.4293   4.4883   4.5812
     4.6209   4.6347   4.7345   4.7526   4.8309   4.8408   4.8429   4.8961
     4.9730   5.0135   5.1193   5.1824   5.2532   5.3420   5.3526   5.4571
     5.5444   5.5582   5.6608   5.7041   5.7735   5.8817   5.8935   5.9266
     5.9447   5.9840   6.0070   6.0741   6.0893   6.1202   6.1602   6.1932
     6.1988   6.2504   6.3385   6.4265   6.4451   6.4663   6.4963   6.5145
     6.5279   6.5362   6.5652   6.5743   6.5894   6.6076   6.6259   6.6419
     6.6621   6.6809   6.7003   6.7064   6.7381   6.7461   6.7922   6.8006
     6.8278   6.8412   6.8984   6.9022   6.9063   6.9298   6.9392   6.9553
     6.9959   7.0134   7.0450   7.0583   7.0916   7.0970   7.1334   7.2005
     7.2047   7.2085   7.2175   7.2955   7.3136   7.3484   7.4110   7.4230
     7.4868   7.5018   7.5138   7.5362   7.6152   7.6419   7.6433   7.6470
     7.6575   7.7724   7.7742   7.7942   7.8798   7.8873   7.9683   7.9705
     7.9853   7.9861   8.0096   8.0248   8.0454   8.0501   8.0642   8.0761
     8.0965   8.1239   8.1965   8.1979   8.2402   8.2645   8.2723   8.3202
     8.3609   8.3719   8.3943   8.4325   8.4641   8.5431   8.5583   8.5852
     8.6518   8.7008   8.7401   8.7942   8.8420   8.8438   8.9001   8.9405
     9.1709   9.4097   9.7706   9.9300  10.4350  10.6196  11.1168  11.3458
    11.8855  12.2734  12.6301  12.8768  13.5097  14.3915  14.9673  15.3795
    15.6410  15.8365  16.4981  17.0094  17.2028  17.2813  17.4430  17.6019
    17.8069  17.9684  18.2519  18.8109

          k = 0.3750 0.1443 0.0000 ( 23495 PWs)   bands (ev):

     2.6192   2.7447   2.9561   3.2267   3.5588   3.7772   3.8968   3.9192
     4.0303   4.1985   4.2790   4.3506   4.4723   4.5585   4.5996   4.7064
     4.7399   4.7480   4.8483   4.8682   4.9256   4.9532   4.9553   4.9721
     5.0622   5.0926   5.1980   5.2789   5.3168   5.3565   5.4178   5.5132
     5.5636   5.5909   5.6714   5.6946   5.7509   5.7933   5.8454   5.8476
     5.8705   5.9119   5.9504   5.9889   6.0290   6.0436   6.0976   6.0982
     6.1347   6.1487   6.1959   6.2281   6.2833   6.3258   6.3301   6.4186
     6.4196   6.4474   6.4593   6.4914   6.5171   6.5452   6.5553   6.5797
     6.5824   6.6528   6.6675   6.6761   6.6890   6.6936   6.7179   6.7364
     6.7570   6.8003   6.8184   6.8413   6.8588   6.9335   6.9524   6.9955
     6.9993   7.0429   7.0608   7.1012   7.1220   7.1324   7.1646   7.2065
     7.2155   7.2703   7.2778   7.2952   7.3452   7.3479   7.3789   7.3949
     7.4169   7.4537   7.4616   7.4814   7.5268   7.5589   7.6273   7.6925
     7.6998   7.7432   7.7479   7.7906   7.8005   7.8409   7.8623   7.9332
     7.9518   7.9959   7.9994   8.0105   8.1029   8.1210   8.1787   8.2118
     8.2452   8.2711   8.2734   8.3189   8.3858   8.4029   8.4436   8.4858
     8.4868   8.5393   8.5670   8.5850   8.5932   8.6353   8.6457   8.6856
     8.7187   8.7203   8.7530   8.7865   8.7990   8.8128   8.9787   9.1015
     9.4007   9.5487   9.9525  10.0662  10.5929  10.7688  11.2616  11.5004
    12.0306  12.4388  12.7653  13.1299  13.6378  14.4768  15.1824  15.4782
    15.7981  15.9423  16.6206  17.1329  17.2825  17.3680  17.4730  17.6326
    17.8967  18.0439  18.2877  18.7588

          k = 0.3750 0.2887 0.0000 ( 23497 PWs)   bands (ev):

     2.9962   3.1182   3.3051   3.5571   3.8551   4.1153   4.1862   4.2636
     4.3332   4.4595   4.5212   4.5558   4.6657   4.7900   4.7952   4.9224
     4.9395   4.9576   5.0858   5.0892   5.1614   5.1714   5.1830   5.2243
     5.2737   5.2759   5.3103   5.3476   5.4115   5.4940   5.5017   5.5588
     5.5981   5.6167   5.6316   5.6946   5.7002   5.7315   5.7398   5.7722
     5.8024   5.8066   5.8441   5.8623   5.9044   5.9048   5.9488   5.9699
     5.9751   6.0129   6.0380   6.0639   6.1118   6.1539   6.1695   6.2202
     6.2605   6.2951   6.3006   6.3605   6.3631   6.3989   6.4067   6.4164
     6.4956   6.4980   6.5524   6.5581   6.5972   6.5985   6.6364   6.7039
     6.7087   6.7323   6.7340   6.7571   6.8433   6.8619   6.8907   6.9487
     6.9570   6.9776   7.0309   7.1214   7.1374   7.2066   7.2384   7.2593
     7.3070   7.3094   7.3315   7.3691   7.3696   7.4263   7.4329   7.4585
     7.4669   7.4760   7.5723   7.5742   7.6005   7.6270   7.6354   7.6587
     7.6960   7.7246   7.7716   7.8028   7.8943   7.9260   7.9571   7.9726
     7.9776   8.0397   8.1019   8.1238   8.1525   8.1861   8.1869   8.2290
     8.3131   8.3236   8.3912   8.4572   8.5035   8.5645   8.6128   8.6185
     8.6319   8.6661   8.6833   8.7037   8.7114   8.7711   8.8363   8.8572
     8.9384   9.0610   9.1011   9.1099   9.1714   9.2763   9.3265   9.5005
     9.8360   9.8979  10.3908  10.4144  11.0265  11.1378  11.6710  11.8736
    12.4341  12.8274  13.1422  13.7842  13.9774  14.7748  15.7536  15.7760
    16.2183  16.2761  16.9289  17.4339  17.4877  17.5187  17.5854  17.7623
    18.0419  18.1485  18.3268  18.6750

          k = 0.3750 0.4330 0.0000 ( 23475 PWs)   bands (ev):

     3.4832   3.5915   3.7337   3.9359   4.1448   4.3591   4.3731   4.5086
     4.5633   4.5883   4.6618   4.7070   4.7398   4.7414   4.8514   4.8516
     4.9360   4.9429   5.0276   5.0763   5.0931   5.1278   5.1667   5.2194
     5.2252   5.2475   5.2861   5.3023   5.3226   5.3352   5.4102   5.4500
     5.5065   5.5774   5.5858   5.6293   5.6300   5.6572   5.6916   5.7389
     5.8024   5.8482   5.8708   5.9308   5.9709   5.9791   6.0366   6.0642
     6.0962   6.1097   6.1657   6.1730   6.2408   6.2409   6.2732   6.2942
     6.2982   6.3286   6.3644   6.4169   6.4312   6.4451   6.5061   6.5488
     6.5899   6.6170   6.6369   6.6551   6.6811   6.7248   6.7701   6.7896
     6.8327   6.8654   6.8751   6.8828   6.9061   6.9420   6.9750   6.9872
     6.9981   7.0812   7.1329   7.1445   7.1930   7.2285   7.2922   7.3811
     7.3992   7.4333   7.4674   7.4685   7.5123   7.5488   7.5609   7.5976
     7.5999   7.6625   7.6675   7.7093   7.7363   7.7878   7.8054   7.8474
     7.8842   7.8915   7.9339   7.9833   7.9929   8.0057   8.0875   8.0995
     8.1776   8.1848   8.1934   8.2347   8.2782   8.3403   8.3745   8.3797
     8.4050   8.4199   8.4959   8.5239   8.5670   8.6978   8.7192   8.7475
     8.7730   8.7771   8.7901   8.7977   8.8189   8.9085   8.9519   9.0209
     9.1169   9.5731   9.5874   9.6103   9.6267   9.7145   9.8680  10.1354
    10.2266  10.5321  10.8450  11.0374  11.6343  11.6431  12.2730  12.3686
    13.0231  13.2844  13.6961  14.4566  14.6365  15.3196  16.2412  16.2606
    16.4506  16.6218  16.7212  16.8469  16.9777  17.1067  17.4282  17.5180
    17.7371  17.7780  17.9855  18.0634

          k = 0.3750 0.5774 0.0000 ( 23521 PWs)   bands (ev):

     3.8346   3.9140   4.0564   4.2078   4.2807   4.3351   4.3818   4.4071
     4.4891   4.4954   4.5666   4.5695   4.6519   4.6815   4.6926   4.7718
     4.8210   4.8252   4.8419   4.8619   4.8974   4.9205   4.9342   4.9779
     5.0151   5.0228   5.0676   5.0962   5.1181   5.1648   5.2244   5.2246
     5.2906   5.3523   5.3612   5.3952   5.4681   5.4854   5.6207   5.6554
     5.7684   5.8583   5.9061   6.0297   6.0687   6.1176   6.1384   6.1638
     6.1895   6.3015   6.3285   6.3503   6.3990   6.4584   6.4732   6.5305
     6.5332   6.5409   6.5619   6.5867   6.6079   6.6277   6.6967   6.7332
     6.7554   6.7857   6.8493   6.8527   6.9100   6.9129   6.9585   7.0213
     7.0325   7.0651   7.1045   7.1556   7.1607   7.2877   7.3353   7.3457
     7.3856   7.4417   7.4822   7.5428   7.5564   7.6826   7.7301   7.7345
     7.7382   7.7683   7.7903   7.8461   7.9099   7.9432   7.9516   7.9629
     8.0157   8.0812   8.0976   8.1198   8.1530   8.1641   8.2026   8.2103
     8.2374   8.2609   8.2657   8.2816   8.3091   8.3150   8.3282   8.3364
     8.3527   8.3774   8.4159   8.4492   8.4780   8.4935   8.5351   8.5554
     8.5765   8.6057   8.6198   8.6806   8.7085   8.7214   8.7518   8.7854
     8.8515   8.8585   8.8719   8.8978   8.9080   8.9843   9.0199   9.1235
     9.4197  10.0455  10.0882  10.1303  10.2285  10.3480  10.5389  10.7677
    10.8367  11.2485  11.4580  11.7624  12.2720  12.3824  13.0059  13.0105
    13.7163  13.8300  14.2871  14.4834  14.5869  14.8517  14.9972  15.2575
    15.3161  15.5860  15.7412  15.8381  16.2266  16.4117  16.4912  16.7046
    16.8137  16.9002  17.2071  17.2581

          k = 0.3750 0.7217 0.0000 ( 23544 PWs)   bands (ev):

     3.9695   4.0226   4.1336   4.1794   4.2162   4.2854   4.3471   4.3748
     4.3827   4.3885   4.4796   4.4896   4.5177   4.5203   4.6048   4.6332
     4.6549   4.6698   4.6847   4.6929   4.7032   4.7070   4.7850   4.8045
     4.8178   4.8591   4.8817   4.9442   4.9834   5.0320   5.0573   5.0780
     5.1328   5.1898   5.2212   5.2553   5.3677   5.3940   5.6008   5.6147
     5.8276   5.8399   5.9731   6.0452   6.0483   6.0984   6.1439   6.1583
     6.2621   6.2785   6.3328   6.3690   6.3856   6.4199   6.4513   6.4594
     6.4990   6.5022   6.6140   6.6660   6.6915   6.7281   6.7642   6.7730
     6.8920   6.8937   6.9295   7.0441   7.0514   7.0677   7.1680   7.2000
     7.3252   7.3317   7.4160   7.4341   7.4927   7.5267   7.6555   7.6613
     7.7447   7.7550   7.7988   7.9087   7.9610   7.9744   8.0687   8.0743
     8.0898   8.2254   8.2558   8.3094   8.3166   8.3338   8.3891   8.4015
     8.4274   8.4293   8.5056   8.5129   8.5398   8.5515   8.5714   8.5877
     8.6045   8.6063   8.6084   8.6231   8.6397   8.6559   8.6832   8.6904
     8.6967   8.7099   8.7108   8.7275   8.7432   8.7540   8.7678   8.7685
     8.8043   8.8630   8.8670   8.8854   8.9170   8.9770   8.9925   9.0063
     9.0315   9.0738   9.1313   9.1758   9.3595   9.4748   9.5716   9.7522
    10.2084  10.7703  10.8400  10.8708  11.0430  11.2064  11.3811  11.5878
    11.6270  11.9449  12.2908  12.3172  12.6252  12.7534  12.7816  12.9911
    13.0409  13.1148  13.7788  13.8637  13.9154  14.2482  14.2736  14.3626
    14.4265  14.4943  14.6514  14.6940  14.9936  15.0221  15.2360  15.4205
    15.5250  15.9607  15.9839  16.3061

          k = 0.3750-0.8660 0.0000 ( 23556 PWs)   bands (ev):

     4.0193   4.0472   4.0878   4.1006   4.2337   4.2408   4.2962   4.2992
     4.3763   4.3886   4.3943   4.4097   4.5478   4.5488   4.5659   4.5682
     4.5864   4.5941   4.6052   4.6053   4.6831   4.6899   4.7054   4.7101
     4.7345   4.7535   4.8494   4.8657   4.9471   4.9480   5.0412   5.0522
     5.0734   5.0738   5.1784   5.1878   5.3414   5.3673   5.5862   5.6154
     5.8396   5.8450   6.0299   6.0380   6.1108   6.1237   6.1352   6.1619
     6.2172   6.2370   6.3035   6.3154   6.3653   6.3706   6.4202   6.4214
     6.4822   6.4831   6.6858   6.6942   6.7314   6.7335   6.7757   6.7828
     6.9176   6.9192   7.0623   7.0715   7.1318   7.1319   7.1923   7.2117
     7.4017   7.4061   7.5176   7.5374   7.5659   7.5700   7.7704   7.7713
     7.8285   7.8390   7.9704   7.9793   8.0820   8.0883   8.2070   8.2082
     8.2780   8.2984   8.3645   8.3798   8.4613   8.4768   8.5322   8.5408
     8.5634   8.5689   8.5988   8.6077   8.6323   8.6348   8.6425   8.6536
     8.7200   8.7217   8.7381   8.7391   8.7567   8.7594   8.7775   8.7804
     8.8017   8.8066   8.8241   8.8360   8.8537   8.8587   8.8763   8.8809
     8.9346   8.9376   8.9528   8.9629   9.0659   9.0675   9.0812   9.0821
     9.1403   9.1682  10.3566  10.4027  10.4798  10.4975  10.7465  10.7581
    10.9321  10.9507  11.0933  11.1029  11.2775  11.2930  11.5488  11.5705
    11.8960  11.9114  12.2969  12.3333  12.5317  12.5440  12.6481  12.7182
    12.7807  12.7809  12.8000  12.8026  13.7176  13.7293  13.8392  13.8415
    14.1081  14.2689  14.3265  14.4491  14.5314  14.6490  14.8786  14.9007
    15.2322  15.2702  15.7757  15.8141

          k =-0.5000 0.0000-0.0000 ( 23442 PWs)   bands (ev):

     3.1078   3.1078   3.2215   3.2215   3.4030   3.4030   3.6309   3.6309
     3.9045   3.9046   4.1874   4.1874   4.4575   4.4575   4.6591   4.6592
     4.7906   4.7906   4.9054   4.9054   4.9568   4.9568   5.1147   5.1147
     5.1437   5.1437   5.2494   5.2494   5.3274   5.3274   5.4263   5.4264
     5.5006   5.5006   5.6308   5.6308   5.7311   5.7311   5.8402   5.8402
     5.9522   5.9522   5.9688   5.9688   6.0375   6.0376   6.0688   6.0689
     6.1851   6.1851   6.2410   6.2410   6.3581   6.3582   6.4285   6.4285
     6.5446   6.5446   6.5829   6.5829   6.6101   6.6101   6.6402   6.6402
     6.6875   6.6875   6.6980   6.6980   6.7104   6.7104   6.7548   6.7548
     6.7998   6.7998   6.8321   6.8321   6.8912   6.8912   6.9579   6.9579
     6.9801   6.9801   7.1191   7.1191   7.1789   7.1789   7.1850   7.1850
     7.2192   7.2192   7.2634   7.2634   7.3283   7.3283   7.4051   7.4051
     7.4362   7.4362   7.4885   7.4885   7.5514   7.5514   7.5581   7.5581
     7.6092   7.6093   7.6225   7.6225   7.6829   7.6829   7.6948   7.6948
     7.7974   7.7974   7.8566   7.8567   7.8916   7.8917   7.9722   7.9722
     8.0444   8.0444   8.0950   8.0950   8.1093   8.1093   8.1635   8.1635
     8.2415   8.2416   8.3847   8.3847   8.4278   8.4278   8.5574   8.5574
     8.7154   8.7154   8.8161   8.8161   8.8382   8.8382   8.8719   8.8720
     9.3252   9.3252   9.8909   9.8909  10.4947  10.4947  11.2348  11.2348
    11.9839  11.9839  12.9288  12.9288  13.9778  13.9778  14.9084  14.9084
    15.8750  15.8753  16.4629  16.4640  17.4369  17.4375  17.8237  17.8240
    19.1442  19.1444  19.3307  19.3310

          k =-0.5000 0.1443-0.0000 ( 23476 PWs)   bands (ev):

     3.2401   3.2428   3.3561   3.3564   3.5269   3.5280   3.7509   3.7522
     4.0164   4.0171   4.2975   4.2991   4.5751   4.5764   4.7944   4.7969
     4.9272   4.9275   5.0275   5.0312   5.0674   5.0728   5.2124   5.2157
     5.2578   5.2586   5.3031   5.3089   5.3871   5.3891   5.4453   5.4524
     5.5297   5.5317   5.6348   5.6362   5.7036   5.7048   5.7791   5.7803
     5.8304   5.8339   5.8821   5.8860   5.9277   5.9308   5.9694   5.9697
     6.0604   6.0701   6.0760   6.0856   6.1505   6.1930   6.2874   6.3023
     6.3737   6.3947   6.4501   6.4542   6.5061   6.5099   6.5540   6.5565
     6.5948   6.5956   6.6204   6.6253   6.6628   6.6640   6.6800   6.6800
     6.6972   6.6996   6.7158   6.7162   6.8020   6.8221   6.8969   6.8998
     6.9802   6.9808   7.0760   7.0773   7.1640   7.1770   7.2049   7.2428
     7.3270   7.3299   7.3690   7.3704   7.3893   7.3931   7.4104   7.4134
     7.4532   7.4562   7.5457   7.5571   7.5841   7.5876   7.6426   7.6476
     7.7341   7.7399   7.7482   7.7518   7.7871   7.8015   7.8382   7.8407
     7.8624   7.8627   8.0344   8.0370   8.0725   8.0788   8.0860   8.0879
     8.1216   8.1292   8.2245   8.2272   8.2380   8.2443   8.2770   8.2793
     8.3029   8.3033   8.3700   8.3772   8.4206   8.4271   8.5449   8.5609
     8.6813   8.6882   8.7068   8.7094   8.7724   8.7733   9.0255   9.0299
     9.4601   9.4690  10.0087  10.0206  10.6065  10.6214  11.3589  11.3672
    12.1027  12.1146  13.0505  13.0517  14.1954  14.2025  15.0321  15.0386
    15.9924  15.9939  16.5615  16.5659  17.5767  17.5852  17.8831  17.8878
    19.2038  19.2075  19.4138  19.4252

          k =-0.5000 0.2887-0.0000 ( 23540 PWs)   bands (ev):

     3.5851   3.5945   3.7065   3.7076   3.8371   3.8393   4.0381   4.0421
     4.2577   4.2611   4.5071   4.5137   4.7653   4.7736   5.0134   5.0138
     5.1993   5.1993   5.2720   5.2867   5.3130   5.3241   5.3419   5.3476
     5.3901   5.3916   5.4000   5.4053   5.4339   5.4365   5.4885   5.4888
     5.5274   5.5281   5.5388   5.5440   5.6024   5.6065   5.6747   5.6797
     5.6999   5.7285   5.7744   5.7822   5.8050   5.8077   5.8427   5.8554
     5.9952   5.9975   6.0331   6.0596   6.0743   6.0772   6.0976   6.1019
     6.1309   6.1445   6.1929   6.1996   6.2894   6.2932   6.3755   6.3766
     6.4439   6.4456   6.5081   6.5086   6.5347   6.5349   6.5800   6.5803
     6.5832   6.5840   6.6637   6.6816   6.8758   6.8943   6.9827   6.9854
     7.0041   7.0069   7.0289   7.0584   7.1403   7.1586   7.2090   7.2186
     7.2540   7.2633   7.3086   7.3242   7.4122   7.4134   7.5548   7.5596
     7.6030   7.6048   7.6444   7.6495   7.6628   7.6766   7.7666   7.7683
     7.8685   7.8798   7.9485   7.9562   8.0209   8.0256   8.0767   8.0833
     8.1426   8.1638   8.2371   8.2371   8.2819   8.2943   8.3502   8.3525
     8.3844   8.3867   8.4223   8.4263   8.4652   8.4712   8.4868   8.4927
     8.5111   8.5140   8.5471   8.5533   8.5949   8.5962   8.6300   8.6305
     8.6748   8.6754   8.6958   8.7017   8.8876   8.8942   9.2750   9.2811
     9.7448   9.7610  10.3174  10.3361  10.9241  10.9499  11.7001  11.7137
    12.4305  12.4524  13.3561  13.3602  14.7659  14.7831  15.4047  15.4158
    16.3252  16.3328  16.8667  16.8796  17.9360  17.9606  18.0575  18.0649
    19.2646  19.2732  19.4041  19.4344

          k =-0.5000 0.4330-0.0000 ( 23522 PWs)   bands (ev):

     3.9263   3.9527   4.0505   4.0539   4.1503   4.1516   4.3060   4.3164
     4.4373   4.4476   4.5802   4.5899   4.7331   4.7442   4.8643   4.8655
     4.9838   4.9925   5.0205   5.0264   5.0902   5.1019   5.1402   5.1465
     5.2019   5.2068   5.2640   5.2780   5.3165   5.3241   5.4071   5.4103
     5.4972   5.5144   5.5333   5.5496   5.5842   5.5989   5.6886   5.6915
     5.7970   5.8003   5.8986   5.9030   5.9824   5.9933   6.0315   6.0319
     6.0801   6.0882   6.1526   6.1561   6.2175   6.2202   6.2736   6.2800
     6.3712   6.3715   6.4083   6.4356   6.4583   6.4592   6.4966   6.4992
     6.5480   6.5510   6.6498   6.6581   6.6966   6.6975   6.7288   6.7381
     6.8013   6.8096   6.8510   6.8558   6.9074   6.9269   6.9474   6.9571
     7.0173   7.0328   7.1257   7.1258   7.2124   7.2162   7.3782   7.3866
     7.4546   7.4796   7.4991   7.5178   7.5354   7.5364   7.5873   7.5925
     7.6155   7.6174   7.7350   7.7363   7.8259   7.8273   7.8699   7.8748
     7.9756   7.9852   8.1367   8.1532   8.1982   8.2021   8.2735   8.2753
     8.3796   8.3847   8.4550   8.4569   8.4771   8.4772   8.5542   8.5582
     8.5964   8.5983   8.6170   8.6262   8.6397   8.6621   8.7643   8.7686
     8.7844   8.7845   8.8167   8.8170   8.8561   8.8574   8.8670   8.8708
     8.9362   8.9365   9.0097   9.0112   9.2173   9.2184   9.6247   9.6338
    10.1421  10.1614  10.7698  10.7899  11.4051  11.4374  12.1995  12.2151
    12.9115  12.9415  13.7755  13.7825  15.4375  15.4697  15.9356  15.9531
    16.7678  16.7852  17.2179  17.2546  17.5816  17.6000  17.7059  17.7168
    17.9479  17.9586  18.1516  18.1567

          k =-0.5000 0.5774-0.0000 ( 23534 PWs)   bands (ev):

     4.0145   4.0470   4.1131   4.1212   4.2536   4.2559   4.3863   4.4030
     4.5050   4.5073   4.5115   4.5121   4.5848   4.5925   4.6443   4.6446
     4.7422   4.7507   4.7731   4.7774   4.8368   4.8368   4.8536   4.8601
     4.9527   4.9631   4.9902   5.0019   5.1001   5.1051   5.2154   5.2169
     5.2416   5.2446   5.2975   5.3183   5.4140   5.4270   5.6030   5.6226
     5.8006   5.8041   5.9838   5.9868   6.1119   6.1190   6.2328   6.2568
     6.3245   6.3288   6.3715   6.3722   6.4415   6.4473   6.4765   6.4786
     6.5019   6.5029   6.5768   6.5789   6.6266   6.6297   6.7253   6.7288
     6.7629   6.7671   6.8773   6.8838   6.9413   6.9446   7.0571   7.0577
     7.0919   7.0959   7.2150   7.2190   7.2510   7.2543   7.3718   7.3778
     7.4503   7.4503   7.5962   7.5990   7.6668   7.6932   7.7144   7.7546
     7.8438   7.8531   7.8906   7.8965   7.9088   7.9110   7.9937   8.0106
     8.1070   8.1223   8.1903   8.1922   8.2196   8.2211   8.2256   8.2269
     8.2492   8.2551   8.3077   8.3223   8.4238   8.4270   8.4429   8.4534
     8.5417   8.5521   8.5847   8.5853   8.5918   8.5951   8.6876   8.6934
     8.7392   8.7418   8.7667   8.7760   8.8075   8.8337   8.9083   8.9113
     8.9187   8.9429   9.1570   9.1578   9.2080   9.2092   9.3109   9.3132
     9.3650   9.3724   9.4613   9.4664   9.6917   9.6985  10.1227  10.1249
    10.6878  10.7030  11.3776  11.3918  12.0524  12.0871  12.8542  12.8694
    13.5563  13.5957  14.3128  14.3194  15.2947  15.3012  15.3835  15.3862
    15.5533  15.5613  15.7918  15.7942  15.9514  15.9781  16.3824  16.3929
    16.8650  16.8653  17.1870  17.1907

          k =-0.5000 0.7217-0.0000 ( 23516 PWs)   bands (ev):

     3.9770   4.0067   4.0524   4.0635   4.2047   4.2071   4.2870   4.2887
[...]
     5.1366   5.1851   5.2468   5.2850   5.3450   5.3818   5.4717   5.5431
     5.5966   5.6415   5.6702   5.7091   5.8025   5.8053   5.8425   5.9037
     5.9129   5.9343   5.9462   5.9789   6.0110   6.0469   6.0969   6.0986
     6.1188   6.1238   6.1735   6.2210   6.2558   6.2586   6.3225   6.3583
     6.4133   6.4225   6.4611   6.4765   6.5182   6.5568   6.5722   6.5884
     6.6065   6.6592   6.6754   6.6854   6.7052   6.7375   6.7711   6.7769
     6.7863   6.8305   6.8670   6.8721   6.9204   6.9387   6.9587   6.9756
     6.9789   7.0036   7.0158   7.0676   7.1133   7.1221   7.1422   7.1717
     7.1876   7.2203   7.2634   7.2842   7.3208   7.3464   7.3554   7.3609
     7.4293   7.4732   7.5085   7.5137   7.5523   7.6075   7.6320   7.6935
     7.7143   7.7512   7.7901   7.8003   7.8353   7.8484   7.8927   7.9048
     7.9539   7.9958   8.0125   8.0626   8.0884   8.1648   8.1651   8.2551
     8.2704   8.3849   8.4050   8.4468   8.5790   8.5840   8.6688   8.7036
     8.7549   8.7562   8.7782   8.7912   8.8337   8.8770   8.9521   8.9799
     8.9974   9.0412   9.4449   9.8149   9.8517   9.9150   9.9167  10.0058
    10.1775  10.4617  10.6571  10.8767  11.3405  11.4044  12.0219  12.3170
    12.6707  12.9181  13.3784  14.0169  14.4169  14.7056  15.4004  15.5086
    15.6656  15.8275  15.8614  16.0091  16.2094  16.6072  17.0383  17.0609
    17.2176  17.2695  17.5658  17.6455

          k =-0.2500 0.4330-0.0000 ( 23431 PWs)   bands (ev):

     3.0893   3.2231   3.3888   3.6370   3.9007   4.1954   4.4692   4.5305
     4.6576   4.7549   4.7579   4.8074   4.8197   4.8658   4.8667   4.9114
     4.9572   4.9970   5.0494   5.0939   5.1181   5.1434   5.1834   5.2152
     5.2421   5.2484   5.3045   5.4237   5.4795   5.4986   5.5146   5.5459
     5.5624   5.6341   5.6605   5.6713   5.7163   5.7419   5.7912   5.8297
     5.8396   5.8950   5.9223   5.9281   5.9651   5.9850   6.0047   6.0219
     6.0510   6.0883   6.1015   6.1439   6.1583   6.2168   6.2752   6.2902
     6.3487   6.3626   6.3992   6.4565   6.4916   6.5221   6.5668   6.5828
     6.6088   6.6258   6.6568   6.6697   6.7001   6.7150   6.7437   6.7463
     6.8472   6.8887   6.9027   6.9783   6.9812   6.9848   7.0045   7.0275
     7.0432   7.0838   7.1737   7.1795   7.1937   7.2577   7.2660   7.2930
     7.2933   7.3374   7.3716   7.3781   7.4164   7.4481   7.4585   7.5243
     7.5525   7.5720   7.5805   7.6104   7.6323   7.6503   7.6547   7.6805
     7.7318   7.7447   7.7839   7.8376   7.8751   7.9009   7.9026   7.9507
     7.9658   8.0175   8.0647   8.0788   8.1059   8.1543   8.2156   8.2496
     8.3335   8.4295   8.4352   8.5716   8.5961   8.6377   8.7438   8.7972
     8.8133   8.8274   8.8423   8.8442   8.8572   8.8929   8.9813   9.0299
     9.0969   9.2747   9.8753  10.4230  10.4259  10.4501  10.5631  10.7053
    10.9478  11.2328  11.2790  11.7082  11.9321  12.2169  12.7954  12.9295
    13.3848  13.9423  14.0311  14.5554  14.9053  14.9834  15.5909  15.7998
    15.8645  15.8840  15.9863  16.1535  16.2944  16.4351  16.4459  16.6663
    16.9728  17.2309  17.4635  17.5590

          k =-0.2500 0.5774-0.0000 ( 23466 PWs)   bands (ev):

     3.6613   3.7897   3.9112   4.1023   4.2562   4.4091   4.5113   4.5500
     4.6422   4.6490   4.7219   4.7403   4.7535   4.8258   4.8519   4.8573
     4.9248   4.9753   5.0088   5.0332   5.0395   5.1392   5.1427   5.1659
     5.1774   5.1787   5.2207   5.2597   5.3077   5.3396   5.3399   5.3696
     5.4547   5.4559   5.5109   5.5695   5.5698   5.6668   5.7273   5.7453
     5.8103   5.8602   5.8749   5.9238   5.9511   5.9613   6.0313   6.0643
     6.1451   6.1602   6.2152   6.2227   6.2911   6.3889   6.4404   6.4467
     6.4738   6.5077   6.5377   6.5794   6.5856   6.6000   6.6251   6.6383
     6.6623   6.6970   6.7484   6.7815   6.8175   6.8472   6.8734   6.9190
     6.9626   6.9633   6.9973   7.0218   7.1090   7.1313   7.1500   7.2164
     7.2246   7.2928   7.3376   7.3476   7.4424   7.4749   7.5073   7.5118
     7.5189   7.5451   7.5851   7.6368   7.7255   7.7337   7.8100   7.8245
     7.8609   7.8686   7.9104   7.9288   7.9788   7.9801   8.0070   8.0526
     8.0602   8.0732   8.0884   8.1327   8.1338   8.1592   8.1943   8.2253
     8.2416   8.3265   8.3349   8.3421   8.3877   8.4385   8.4833   8.4966
     8.5129   8.5364   8.5976   8.6026   8.6458   8.7101   8.7362   8.7460
     8.7778   8.8283   8.8381   8.8444   8.8633   8.9524   8.9916   9.0838
     9.2007   9.7628  10.4536  11.0797  11.0836  11.1324  11.2931  11.4757
    11.7622  11.9164  12.1202  12.5596  12.6191  13.0534  13.5392  13.5556
    13.7760  13.8407  13.9993  14.2911  14.4664  14.7021  15.0007  15.0338
    15.1127  15.4883  15.6559  15.7171  15.9226  16.2858  16.4322  16.5231
    16.7362  17.1537  17.2167  17.5292

          k =-0.2500 0.7217-0.0000 ( 23545 PWs)   bands (ev):

     4.0136   4.1222   4.2546   4.3774   4.4038   4.4465   4.5071   4.5103
     4.5455   4.5759   4.5922   4.6439   4.6891   4.7017   4.7321   4.7787
     4.8373   4.8565   4.8832   4.8958   4.9085   4.9237   4.9244   5.0244
     5.0352   5.0768   5.1085   5.1159   5.1495   5.2175   5.2354   5.2426
     5.3128   5.3176   5.3905   5.4545   5.4752   5.5419   5.6505   5.6520
     5.8003   5.8059   5.8641   5.9157   5.9753   6.0080   6.0123   6.0802
     6.1132   6.2532   6.3098   6.3145   6.3574   6.3584   6.4030   6.4522
     6.5280   6.5372   6.5736   6.5792   6.5927   6.6615   6.7239   6.7349
     6.7699   6.7815   6.8131   6.8786   6.9233   6.9590   7.0427   7.0470
     7.1164   7.1230   7.1998   7.2315   7.2662   7.2872   7.3277   7.3826
     7.4651   7.4967   7.5867   7.6053   7.6446   7.6662   7.7159   7.7561
     7.8751   7.8951   7.9056   7.9376   7.9415   7.9590   8.0517   8.0632
     8.1354   8.1700   8.1816   8.2060   8.2305   8.2462   8.2520   8.3115
     8.3191   8.3396   8.3816   8.4484   8.4689   8.5322   8.5408   8.5506
     8.5675   8.5877   8.6075   8.6200   8.6646   8.6726   8.6897   8.7295
     8.7506   8.7602   8.8303   8.8842   8.8944   8.9131   8.9224   8.9324
     8.9401   9.1176   9.1592   9.2060   9.3070   9.3887   9.4728   9.6949
    10.1085  10.6729  11.3786  11.9108  11.9814  12.0106  12.0421  12.0742
    12.1649  12.2843  12.4495  12.5505  12.6145  12.8576  12.8636  13.0284
    13.3278  13.4493  13.5482  13.8842  14.0912  14.3190  14.5282  14.7687
    14.9076  15.2058  15.2943  15.4032  15.5606  15.6548  15.8066  15.9612
    16.0877  16.2401  16.3745  16.5418

          k =-0.3750 0.1443-0.0000 ( 23495 PWs)   bands (ev):

     2.6166   2.7449   2.9547   3.2273   3.5587   3.7770   3.8965   3.9194
     4.0300   4.1972   4.2784   4.3495   4.4704   4.5567   4.5984   4.7065
     4.7415   4.7470   4.8493   4.8501   4.9230   4.9531   4.9553   4.9738
     5.0639   5.0942   5.1975   5.2748   5.3397   5.3533   5.4181   5.5030
     5.5708   5.5837   5.6710   5.6927   5.7445   5.7920   5.8448   5.8474
     5.8739   5.9137   5.9470   5.9898   6.0272   6.0437   6.1076   6.1134
     6.1297   6.1560   6.1957   6.2251   6.2849   6.3156   6.3739   6.4116
     6.4247   6.4494   6.4543   6.4910   6.5181   6.5415   6.5555   6.5678
     6.5895   6.6392   6.6677   6.6693   6.6888   6.6903   6.7197   6.7346
     6.7718   6.8124   6.8209   6.8356   6.8452   6.9455   6.9486   7.0058
     7.0071   7.0411   7.0611   7.0914   7.1266   7.1354   7.1625   7.2088
     7.2167   7.2754   7.2895   7.2981   7.3457   7.3586   7.3824   7.4004
     7.4172   7.4555   7.4608   7.4876   7.5327   7.5472   7.6165   7.6927
     7.7041   7.7450   7.7458   7.7933   7.8139   7.8316   7.8524   7.9369
     7.9576   7.9889   7.9952   8.0234   8.0920   8.1184   8.1740   8.2035
     8.2513   8.2575   8.2767   8.3157   8.3755   8.3994   8.4470   8.4789
     8.4844   8.5392   8.5528   8.5747   8.5966   8.6394   8.6477   8.6843
     8.7113   8.7211   8.7497   8.7984   8.8015   8.8207   8.9721   9.0977
     9.4044   9.5393   9.9621  10.0479  10.6041  10.7600  11.2730  11.4833
    12.0371  12.4379  12.7732  13.1213  13.6336  14.4841  15.1865  15.4769
    15.7927  15.9457  16.6200  17.1410  17.2853  17.3651  17.4649  17.6326
    17.8875  18.0411  18.2879  18.7538

          k =-0.3750 0.2887-0.0000 ( 23497 PWs)   bands (ev):

     2.9886   3.1188   3.3015   3.5593   3.8556   4.1131   4.1885   4.2633
     4.3330   4.4587   4.5222   4.5524   4.6585   4.7861   4.7870   4.9109
     4.9378   4.9568   5.0650   5.0831   5.1604   5.1776   5.1833   5.2260
     5.2798   5.3021   5.3158   5.3429   5.4161   5.4944   5.5096   5.5571
     5.6032   5.6283   5.6416   5.6909   5.6948   5.7364   5.7380   5.7751
     5.7788   5.8018   5.8527   5.8630   5.8948   5.8994   5.9503   5.9637
     5.9685   5.9979   6.0307   6.0870   6.1146   6.1491   6.1907   6.2474
     6.2613   6.2971   6.3067   6.3425   6.3659   6.4073   6.4130   6.4195
     6.4963   6.5025   6.5524   6.5558   6.5971   6.6050   6.6424   6.7032
     6.7116   6.7331   6.7345   6.7632   6.8350   6.8785   6.8810   6.9517
     6.9530   6.9778   7.0386   7.0991   7.1469   7.1933   7.2418   7.2640
     7.2859   7.3234   7.3349   7.3677   7.3700   7.4192   7.4329   7.4607
     7.4644   7.4831   7.5803   7.5849   7.6020   7.6314   7.6373   7.6590
     7.7008   7.7325   7.7785   7.8215   7.8908   7.9442   7.9576   7.9847
     7.9978   8.0353   8.1022   8.1124   8.1544   8.1823   8.1859   8.2285
     8.2842   8.3179   8.3909   8.4655   8.4777   8.5603   8.6069   8.6211
     8.6307   8.6655   8.6801   8.7025   8.7206   8.7461   8.8323   8.8478
     8.9375   9.0641   9.1019   9.1111   9.1694   9.2737   9.3112   9.5005
     9.8193   9.9048  10.3603  10.4279  11.0425  11.1236  11.6907  11.8449
    12.4443  12.8272  13.1577  13.7657  13.9671  14.7871  15.7650  15.7697
    16.2080  16.2848  16.9283  17.4484  17.4551  17.5131  17.5928  17.7536
    18.0291  18.1447  18.3209  18.6844

          k =-0.3750 0.4330-0.0000 ( 23475 PWs)   bands (ev):

     3.4631   3.5933   3.7275   3.9421   4.1489   4.3629   4.3801   4.5024
     4.5534   4.5941   4.6550   4.7066   4.7358   4.7377   4.8349   4.8418
     4.9366   4.9382   5.0485   5.0769   5.0819   5.1342   5.1663   5.2214
     5.2323   5.2574   5.2867   5.2896   5.3240   5.3393   5.4182   5.4506
     5.5046   5.5677   5.5858   5.6227   5.6368   5.6685   5.6927   5.7499
     5.8015   5.8602   5.8712   5.9287   5.9659   5.9915   6.0264   6.0625
     6.1070   6.1080   6.1642   6.1720   6.2324   6.2455   6.2774   6.2936
     6.3041   6.3392   6.3681   6.4038   6.4232   6.4616   6.4999   6.5540
     6.5893   6.6167   6.6397   6.6491   6.6824   6.7261   6.7399   6.7749
     6.8350   6.8718   6.8753   6.8783   6.9096   6.9413   6.9743   6.9949
     7.0023   7.1143   7.1327   7.1489   7.2013   7.2277   7.2981   7.3700
     7.3986   7.4047   7.4708   7.4755   7.5179   7.5488   7.5690   7.6036
     7.6045   7.6712   7.6741   7.7064   7.7352   7.7878   7.8033   7.8647
     7.8917   7.9029   7.9349   7.9825   7.9923   8.0123   8.1020   8.1156
     8.1783   8.1848   8.2030   8.2497   8.2718   8.3335   8.3583   8.3612
     8.4060   8.4184   8.5086   8.5405   8.5435   8.6930   8.7209   8.7463
     8.7731   8.7783   8.7881   8.8052   8.8230   8.8981   8.9554   8.9800
     9.1056   9.5745   9.5867   9.5873   9.6270   9.7099   9.8649  10.1341
    10.2061  10.5374  10.8079  11.0507  11.6180  11.6585  12.2983  12.3337
    13.0346  13.2862  13.7200  14.4374  14.6050  15.3343  16.2438  16.2543
    16.4110  16.6276  16.7203  16.8648  16.9602  17.1023  17.4130  17.5233
    17.7534  17.7617  17.9884  18.0937

          k =-0.3750 0.5774-0.0000 ( 23521 PWs)   bands (ev):

     3.8008   3.9188   4.0471   4.2213   4.2993   4.3441   4.3686   4.4108
     4.4785   4.4951   4.5680   4.5685   4.6599   4.6706   4.6822   4.7695
     4.8132   4.8235   4.8432   4.8627   4.8994   4.9235   4.9276   4.9890
     5.0108   5.0271   5.0761   5.0899   5.1161   5.1715   5.2214   5.2244
     5.3082   5.3389   5.3429   5.3963   5.4840   5.4892   5.6132   5.6792
     5.7652   5.8629   5.9145   6.0366   6.0659   6.1277   6.1408   6.1568
     6.2029   6.2916   6.3222   6.3579   6.3943   6.4559   6.4720   6.5305
     6.5317   6.5442   6.5623   6.5843   6.6080   6.6257   6.6897   6.7448
     6.7472   6.7812   6.8429   6.8657   6.9165   6.9210   6.9499   7.0182
     7.0357   7.0551   7.0994   7.1663   7.1731   7.2610   7.3296   7.3584
     7.3856   7.4495   7.4637   7.5164   7.5708   7.6623   7.7224   7.7302
     7.7355   7.7914   7.8330   7.8361   7.9123   7.9595   7.9605   7.9707
     8.0177   8.0872   8.1045   8.1166   8.1465   8.1548   8.2077   8.2093
     8.2391   8.2567   8.2647   8.2933   8.2977   8.3144   8.3290   8.3373
     8.3575   8.3944   8.4266   8.4508   8.4763   8.4980   8.5325   8.5554
     8.5983   8.5997   8.6302   8.6840   8.7141   8.7224   8.7514   8.7904
     8.8577   8.8631   8.8729   8.9052   8.9086   8.9770   9.0236   9.0709
     9.4063  10.0218  10.0930  10.1268  10.2306  10.3397  10.5341  10.7502
    10.8298  11.2468  11.4197  11.7701  12.2563  12.3905  12.9670  13.0395
    13.7293  13.8314  14.2958  14.4867  14.5931  14.8343  15.0012  15.2462
    15.2775  15.5994  15.7481  15.8541  16.2197  16.3990  16.5118  16.7020
    16.7697  16.9079  17.2284  17.2379

          k =-0.3750 0.7217-0.0000 ( 23544 PWs)   bands (ev):

     3.9368   4.0317   4.1571   4.1753   4.2023   4.2963   4.3346   4.3741
     4.3846   4.3942   4.4935   4.4975   4.5010   4.5171   4.5890   4.6379
     4.6602   4.6670   4.6885   4.6929   4.7016   4.7079   4.7694   4.8105
     4.8231   4.8641   4.8927   4.9345   4.9832   5.0273   5.0585   5.0741
     5.1543   5.1865   5.2047   5.2543   5.3767   5.3917   5.5914   5.6289
     5.8204   5.8440   5.9771   6.0508   6.0819   6.0951   6.1442   6.1614
     6.2531   6.2593   6.3364   6.3683   6.3821   6.4130   6.4556   6.4612
     6.4999   6.5059   6.6033   6.6786   6.6954   6.7432   6.7573   6.7647
     6.8803   6.8937   6.9544   7.0308   7.0397   7.0821   7.1793   7.1876
     7.3194   7.3367   7.4113   7.4635   7.4874   7.5060   7.6557   7.6688
     7.7283   7.7609   7.8046   7.9098   7.9640   7.9834   8.0473   8.0706
     8.0795   8.2160   8.2709   8.3034   8.3110   8.3359   8.3761   8.3973
     8.4355   8.4412   8.5103   8.5151   8.5372   8.5545   8.5706   8.5829
     8.5992   8.6042   8.6067   8.6300   8.6565   8.6647   8.6728   8.6919
     8.6971   8.7118   8.7195   8.7247   8.7467   8.7489   8.7698   8.7834
     8.8126   8.8687   8.8722   8.8846   8.9295   8.9805   8.9920   9.0072
     9.0339   9.0821   9.1157   9.1211   9.3573   9.4891   9.5814   9.7695
    10.2176  10.7935  10.8330  10.8623  11.0523  11.1946  11.3748  11.5865
    11.6127  11.9264  12.2766  12.2862  12.5851  12.7057  12.7777  12.9978
    13.0442  13.1045  13.7641  13.8197  13.9101  14.2696  14.3681  14.3735
    14.4757  14.5342  14.7107  14.7579  14.9953  15.0226  15.1282  15.3806
    15.5127  15.9240  15.9869  16.3093

     the Fermi energy is    10.7269 ev

!    total energy              =  -20153.48995407 Ry

     total all-electron energy =   -988623.488321 Ry
     estimated scf accuracy    <       0.00000074 Ry
     smearing contrib. (-TS)   =      -0.02237065 Ry
     internal energy E=F+TS    =  -20153.46758342 Ry

     The total energy is F=E-TS. E is the sum of the following terms:
     one-electron contribution =   -8805.44307291 Ry
     hartree contribution      =    4728.24855252 Ry
     xc contribution           =    -833.64386146 Ry
     ewald contribution        =    2762.72086865 Ry
     one-center paw contrib.   =  -18005.35007022 Ry

     convergence has been achieved in  34 iterations

     negative rho (up, down):  2.282E-03 0.000E+00

     Forces acting on atoms (cartesian axes, Ry/au):

     atom    1 type  1   force =    -0.00003037    0.00001868   -0.00335293
     atom    2 type  1   force =     0.00000756   -0.00005283    0.00361344
     atom    3 type  1   force =     0.00008821   -0.00001741    0.00093764
     atom    4 type  1   force =     0.02274894    0.00439845   -0.05414765
     atom    5 type  1   force =     0.00000225   -0.00000817   -0.00048419
     atom    6 type  1   force =     0.00012460    0.00001178    0.00440614
     atom    7 type  1   force =    -0.00007423   -0.00004514    0.00155955
     atom    8 type  1   force =    -0.02271062   -0.00443635    0.05396415
     atom    9 type  1   force =    -0.00002668   -0.00000207   -0.00058281
     atom   10 type  1   force =     0.00005116    0.00000780   -0.00154369
     atom   11 type  1   force =    -0.00014734   -0.00003119   -0.00420222
     atom   12 type  1   force =    -0.00023907    0.00027400    0.00191698
     atom   13 type  1   force =     0.00019938   -0.00029830   -0.00209425
     atom   14 type  1   force =     0.00012023    0.00000816    0.00441310
     atom   15 type  1   force =    -0.00007428    0.00001990    0.00155746
     atom   16 type  1   force =    -0.02270716   -0.00437189    0.05396132
     atom   17 type  1   force =    -0.00002306   -0.00000377   -0.00057951
     atom   18 type  1   force =     0.00004499    0.00000411   -0.00154961
     atom   19 type  1   force =    -0.00014212    0.00002709   -0.00419814
     atom   20 type  1   force =    -0.00023768    0.00033504    0.00192256
     atom   21 type  1   force =     0.00020056   -0.00030036   -0.00208366
     atom   22 type  1   force =    -0.00002666    0.00001190   -0.00334293
     atom   23 type  1   force =     0.00001379    0.00001896    0.00362149
     atom   24 type  1   force =     0.00009207    0.00004724    0.00094020
     atom   25 type  1   force =     0.02274760    0.00439753   -0.05415820
     atom   26 type  1   force =    -0.00000206   -0.00001314   -0.00049425

     Total force =     0.118258     Total SCF correction =     0.005752

     Writing all to output data dir ./pwscf.save/
 
     init_run     :     27.58s CPU     28.11s WALL (       1 calls)
     electrons    :   2291.46s CPU   2313.23s WALL (       1 calls)
     forces       :      8.37s CPU      8.45s WALL (       1 calls)

     Called by init_run:
     wfcinit      :     26.94s CPU     27.40s WALL (       1 calls)
     potinit      :      0.35s CPU      0.40s WALL (       1 calls)
     hinit0       :      0.19s CPU      0.22s WALL (       1 calls)

     Called by electrons:
     c_bands      :   2076.93s CPU   2096.51s WALL (      35 calls)
     sum_band     :    204.16s CPU    205.81s WALL (      35 calls)
     v_of_rho     :      0.77s CPU      1.03s WALL (      35 calls)
     newd         :      1.86s CPU      2.06s WALL (      35 calls)
     PAW_pot      :      7.89s CPU      7.94s WALL (      35 calls)
     mix_rho      :      0.13s CPU      0.14s WALL (      35 calls)

     Called by c_bands:
     init_us_2    :      5.48s CPU      5.59s WALL (    3600 calls)
     init_us_2:cp :      5.47s CPU      5.59s WALL (    3600 calls)
     cegterg      :   1998.38s CPU   2016.91s WALL (    1750 calls)

     Called by *egterg:
     cdiaghg      :    216.70s CPU    219.73s WALL (    9078 calls)
     h_psi        :   1199.23s CPU   1208.76s WALL (    9178 calls)
     s_psi        :    124.73s CPU    125.42s WALL (    9178 calls)
     g_psi        :      2.46s CPU      2.48s WALL (    7378 calls)

     Called by h_psi:
     h_psi:calbec :    161.03s CPU    161.73s WALL (    9178 calls)
     vloc_psi     :    907.47s CPU    913.72s WALL (    9178 calls)
     add_vuspsi   :    129.14s CPU    129.60s WALL (    9178 calls)

     General routines
     calbec       :    229.78s CPU    230.76s WALL (   11128 calls)
     fft          :      0.94s CPU      1.30s WALL (     397 calls)
     ffts         :      0.04s CPU      0.05s WALL (      35 calls)
     fftw         :   1009.44s CPU   1016.37s WALL ( 1755050 calls)
 
     Parallel routines
 
     PWSCF        :  38m55.64s CPU  39m40.06s WALL

 
   This run was terminated on:   1:19:19  16Feb2024            

=------------------------------------------------------------------------------=
   JOB DONE.
=------------------------------------------------------------------------------=
