MPI startup(): Warning: I_MPI_PMI_LIBRARY will be ignored since the hydra process manager was found
MPI startup(): Warning: I_MPI_PMI_LIBRARY will be ignored since the hydra process manager was found
MPI startup(): Warning: I_MPI_PMI_LIBRARY will be ignored since the hydra process manager was found
MPI startup(): Warning: I_MPI_PMI_LIBRARY will be ignored since the hydra process manager was found
MPI startup(): Warning: I_MPI_PMI_LIBRARY will be ignored since the hydra process manager was found
MPI startup(): Warning: I_MPI_PMI_LIBRARY will be ignored since the hydra process manager was found
MPI startup(): Warning: I_MPI_PMI_LIBRARY will be ignored since the hydra process manager was found
MPI startup(): Warning: I_MPI_PMI_LIBRARY will be ignored since the hydra process manager was found
MPI startup(): Warning: I_MPI_PMI_LIBRARY will be ignored since the hydra process manager was found
MPI startup(): Warning: I_MPI_PMI_LIBRARY will be ignored since the hydra process manager was found

     Program PWSCF v.7.0 starts on 15Feb2024 at 22: 9: 0 

     This program is part of the open-source Quantum ESPRESSO suite
     for quantum simulation of materials; please cite
         "P. Giannozzi et al., J. Phys.:Condens. Matter 21 395502 (2009);
         "P. Giannozzi et al., J. Phys.:Condens. Matter 29 465901 (2017);
         "P. Giannozzi et al., J. Chem. Phys. 152 154105 (2020);
          URL http://www.quantum-espresso.org", 
     in publications or presentations arising from this work. More details at
     http://www.quantum-espresso.org/quote

     Parallel version (MPI), running on    10 processors

     MPI processes distributed on     1 nodes
     R & G space division:  proc/nbgrp/npool/nimage =      10
     138005 MiB available memory on the printing compute node when the environment starts
 
     Reading input from GSF111_0.25.in
Warning: card &CELL ignored
Warning: card / ignored

     Current dimensions of program PWSCF are:
     Max number of different atomic species (ntypx) = 10
     Max number of k-points (npk) =  40000
     Max angular momentum in pseudopotentials (lmaxx) =  4

     File ./pwscf.bfgs deleted, as requested
     file Au.pbe-n-kjpaw_psl.1.0.0.UPF: wavefunction(s)  6S 5D renormalized
     Found identity + ( -0.5000  0.5000  0.0000) symmetry
     This is a supercell, fractional translations are disabled

     Subspace diagonalization in iterative solution of the eigenvalue problem:
     one sub-group per band group will be used
     scalapack distributed-memory algorithm (size of sub-group:  3*  3 procs)

 
     Parallelization info
     --------------------
     sticks:   dense  smooth     PW     G-vecs:    dense   smooth      PW
     Min          85      85     25                18799    18799    3045
     Max          87      87     26                18816    18816    3065
     Sum         859     859    251               188065   188065   30575
 
     Using Slab Decomposition
 


     bravais-lattice index     =            0
     lattice parameter (alat)  =       9.6360  a.u.
     unit-cell volume          =    3935.2145 (a.u.)^3
     number of atoms/cell      =           26
     number of atomic types    =            1
     number of electrons       =       286.00
     number of Kohn-Sham states=          172
     kinetic-energy cutoff     =      50.0000  Ry
     charge density cutoff     =     200.0000  Ry
     scf convergence threshold =      1.0E-06
     mixing beta               =       0.7000
     number of iterations used =            8  plain     mixing
     Exchange-correlation= SLA  PW   PBX  PBC
                           (   1   4   3   4   0   0   0)

     celldm(1)=   9.635999  celldm(2)=   0.000000  celldm(3)=   0.000000
     celldm(4)=   0.000000  celldm(5)=   0.000000  celldm(6)=   0.000000

     crystal axes: (cart. coord. in units of alat)
               a(1) = (   1.000000   0.000000   0.000000 )  
               a(2) = (   0.000000   0.577350   0.000000 )  
               a(3) = (  -0.000005   0.000000   7.617966 )  

     reciprocal axes: (cart. coord. in units 2 pi/alat)
               b(1) = (  1.000000  0.000000  0.000001 )  
               b(2) = (  0.000000  1.732052  0.000000 )  
               b(3) = (  0.000000  0.000000  0.131269 )  


     PseudoPot. # 1 for Au read from file:
     ./Au.pbe-n-kjpaw_psl.1.0.0.UPF
     MD5 check sum: 4db85c736373c707a97ce4c36c2a9d23
     Pseudo is Projector augmented-wave + core cor, Zval = 11.0
     Generated using &quot;atomic&quot; code by A. Dal Corso  v.6.3
     Shape of augmentation charge: PSQ
     Using radial grid of 1279 points,  6 beta functions with: 
                l(1) =   0
                l(2) =   0
                l(3) =   1
                l(4) =   1
                l(5) =   2
                l(6) =   2
     Q(r) pseudized with 0 coefficients 


     atomic species   valence    mass     pseudopotential
        Au            11.00   196.96657     Au( 1.00)

     No symmetry found



   Cartesian axes

     site n.     atom                  positions (alat units)
         1           Au  tau(   1) = (   0.0000000   0.0000000   0.0000000  )
         2           Au  tau(   2) = (   0.9999954   0.1443377   5.6568550  )
         3           Au  tau(   3) = (   0.9999966   0.1443377   4.2426411  )
         4           Au  tau(   4) = (   0.9999976   0.0000000   2.8284275  )
         5           Au  tau(   5) = (   0.9999988   0.0000000   1.4142138  )
         6           Au  tau(   6) = (   0.3333329   0.0000000   0.4714045  )
         7           Au  tau(   7) = (   0.3333296   0.1443377   4.7140455  )
         8           Au  tau(   8) = (   0.3333308   0.1443377   3.2998319  )
         9           Au  tau(   9) = (   0.3333318   0.0000000   1.8856185  )
        10           Au  tau(  10) = (   0.6666659   0.0000000   0.9428093  )
        11           Au  tau(  11) = (   0.6666625   0.1443377   5.1854506  )
        12           Au  tau(  12) = (   0.6666637   0.1443377   3.7712367  )
        13           Au  tau(  13) = (   0.6666649   0.0000000   2.3570234  )
        14           Au  tau(  14) = (   0.8333330   0.2886749   0.4714045  )
        15           Au  tau(  15) = (   0.8333294   0.4330127   4.7140455  )
        16           Au  tau(  16) = (   0.8333306   0.4330127   3.2998319  )
        17           Au  tau(  17) = (   0.8333318   0.2886749   1.8856185  )
        18           Au  tau(  18) = (   0.1666658   0.2886749   0.9428093  )
        19           Au  tau(  19) = (   0.1666624   0.4330127   5.1854506  )
        20           Au  tau(  20) = (   0.1666636   0.4330127   3.7712367  )
        21           Au  tau(  21) = (   0.1666648   0.2886749   2.3570234  )
        22           Au  tau(  22) = (   0.5000001   0.2886749   0.0000000  )
        23           Au  tau(  23) = (   0.4999955   0.4330127   5.6568550  )
        24           Au  tau(  24) = (   0.4999965   0.4330127   4.2426411  )
        25           Au  tau(  25) = (   0.4999977   0.2886749   2.8284275  )
        26           Au  tau(  26) = (   0.4999989   0.2886749   1.4142138  )

     number of k points=    50  Gaussian smearing, width (Ry)=  0.0200
                       cart. coord. in units 2pi/alat
        k(    1) = (   0.0000000   0.0000000   0.0000000), wk =   0.0208333
        k(    2) = (   0.0000000   0.1443376   0.0000000), wk =   0.0416667
        k(    3) = (   0.0000000   0.2886753   0.0000000), wk =   0.0416667
        k(    4) = (   0.0000000   0.4330129   0.0000000), wk =   0.0416667
        k(    5) = (   0.0000000   0.5773506   0.0000000), wk =   0.0416667
        k(    6) = (   0.0000000   0.7216882   0.0000000), wk =   0.0416667
        k(    7) = (   0.0000000  -0.8660259   0.0000000), wk =   0.0208333
        k(    8) = (   0.1250000   0.0000000   0.0000001), wk =   0.0416667
        k(    9) = (   0.1250000   0.1443376   0.0000001), wk =   0.0416667
        k(   10) = (   0.1250000   0.2886753   0.0000001), wk =   0.0416667
        k(   11) = (   0.1250000   0.4330129   0.0000001), wk =   0.0416667
        k(   12) = (   0.1250000   0.5773506   0.0000001), wk =   0.0416667
        k(   13) = (   0.1250000   0.7216882   0.0000001), wk =   0.0416667
        k(   14) = (   0.1250000  -0.8660259   0.0000001), wk =   0.0416667
        k(   15) = (   0.2500000   0.0000000   0.0000002), wk =   0.0416667
        k(   16) = (   0.2500000   0.1443376   0.0000002), wk =   0.0416667
        k(   17) = (   0.2500000   0.2886753   0.0000002), wk =   0.0416667
        k(   18) = (   0.2500000   0.4330129   0.0000002), wk =   0.0416667
        k(   19) = (   0.2500000   0.5773506   0.0000002), wk =   0.0416667
        k(   20) = (   0.2500000   0.7216882   0.0000002), wk =   0.0416667
        k(   21) = (   0.2500000  -0.8660259   0.0000002), wk =   0.0416667
        k(   22) = (   0.3750000   0.0000000   0.0000002), wk =   0.0416667
        k(   23) = (   0.3750000   0.1443376   0.0000002), wk =   0.0416667
        k(   24) = (   0.3750000   0.2886753   0.0000002), wk =   0.0416667
        k(   25) = (   0.3750000   0.4330129   0.0000002), wk =   0.0416667
        k(   26) = (   0.3750000   0.5773506   0.0000002), wk =   0.0416667
        k(   27) = (   0.3750000   0.7216882   0.0000002), wk =   0.0416667
        k(   28) = (   0.3750000  -0.8660259   0.0000002), wk =   0.0416667
        k(   29) = (  -0.5000000   0.0000000  -0.0000003), wk =   0.0208333
        k(   30) = (  -0.5000000   0.1443376  -0.0000003), wk =   0.0416667
        k(   31) = (  -0.5000000   0.2886753  -0.0000003), wk =   0.0416667
        k(   32) = (  -0.5000000   0.4330129  -0.0000003), wk =   0.0416667
        k(   33) = (  -0.5000000   0.5773506  -0.0000003), wk =   0.0416667
        k(   34) = (  -0.5000000   0.7216882  -0.0000003), wk =   0.0416667
        k(   35) = (  -0.5000000  -0.8660259  -0.0000003), wk =   0.0208333
        k(   36) = (  -0.1250000   0.1443376  -0.0000001), wk =   0.0416667
        k(   37) = (  -0.1250000   0.2886753  -0.0000001), wk =   0.0416667
        k(   38) = (  -0.1250000   0.4330129  -0.0000001), wk =   0.0416667
        k(   39) = (  -0.1250000   0.5773506  -0.0000001), wk =   0.0416667
        k(   40) = (  -0.1250000   0.7216882  -0.0000001), wk =   0.0416667
        k(   41) = (  -0.2500000   0.1443376  -0.0000002), wk =   0.0416667
        k(   42) = (  -0.2500000   0.2886753  -0.0000002), wk =   0.0416667
        k(   43) = (  -0.2500000   0.4330129  -0.0000002), wk =   0.0416667
        k(   44) = (  -0.2500000   0.5773506  -0.0000002), wk =   0.0416667
        k(   45) = (  -0.2500000   0.7216882  -0.0000002), wk =   0.0416667
        k(   46) = (  -0.3750000   0.1443376  -0.0000002), wk =   0.0416667
        k(   47) = (  -0.3750000   0.2886753  -0.0000002), wk =   0.0416667
        k(   48) = (  -0.3750000   0.4330129  -0.0000002), wk =   0.0416667
        k(   49) = (  -0.3750000   0.5773506  -0.0000002), wk =   0.0416667
        k(   50) = (  -0.3750000   0.7216882  -0.0000002), wk =   0.0416667

     Dense  grid:   188065 G-vectors     FFT dimensions: (  45,  25, 360)

     Estimated max dynamical RAM per process >     418.32 MB

     Estimated total dynamical RAM >       4.09 GB

     Initial potential from superposition of free atoms

     starting charge     285.9971, renormalised to     286.0000

     negative rho (up, down):  2.479E-03 0.000E+00
     Starting wfcs are  234 randomized atomic wfcs
     Checking if some PAW data can be deallocated... 

     total cpu time spent up to now is       28.4 secs

     Self-consistent Calculation

     iteration #  1     ecut=    50.00 Ry     beta= 0.70
     Davidson diagonalization with overlap
     ethr =  1.00E-02,  avg # of iterations =  4.9

     Threshold (ethr) on eigenvalues was too large:
     Diagonalizing with lowered threshold

     Davidson diagonalization with overlap
     ethr =  4.10E-04,  avg # of iterations =  4.5

     negative rho (up, down):  1.690E-03 0.000E+00

     total cpu time spent up to now is      177.4 secs

     total energy              =  -20152.79664833 Ry
     estimated scf accuracy    <       1.48362544 Ry

     iteration #  2     ecut=    50.00 Ry     beta= 0.70
     Davidson diagonalization with overlap
     c_bands:  1 eigenvalues not converged
     c_bands:  1 eigenvalues not converged
     c_bands:  2 eigenvalues not converged
     c_bands:  2 eigenvalues not converged
     c_bands:  1 eigenvalues not converged
     ethr =  5.19E-04,  avg # of iterations = 16.8

     negative rho (up, down):  1.690E-03 0.000E+00

     total cpu time spent up to now is      337.5 secs

     total energy              =  -20131.60039112 Ry
     estimated scf accuracy    <    2965.74152737 Ry

     iteration #  3     ecut=    50.00 Ry     beta= 0.70
     Davidson diagonalization with overlap
     ethr =  5.19E-04,  avg # of iterations = 11.0

     negative rho (up, down):  1.886E-03 0.000E+00

     total cpu time spent up to now is      457.9 secs

     total energy              =  -20152.40246850 Ry
     estimated scf accuracy    <       4.64595960 Ry

     iteration #  4     ecut=    50.00 Ry     beta= 0.70
     Davidson diagonalization with overlap
     c_bands:  1 eigenvalues not converged
     c_bands:  1 eigenvalues not converged
     ethr =  5.19E-04,  avg # of iterations = 11.4

     negative rho (up, down):  1.970E-03 0.000E+00

     total cpu time spent up to now is      554.0 secs

     total energy              =  -20149.43045528 Ry
     estimated scf accuracy    <     152.06025500 Ry

     iteration #  5     ecut=    50.00 Ry     beta= 0.70
     Davidson diagonalization with overlap
     ethr =  5.19E-04,  avg # of iterations =  9.5

     negative rho (up, down):  1.970E-03 0.000E+00

     total cpu time spent up to now is      646.0 secs

     total energy              =  -20152.41526321 Ry
     estimated scf accuracy    <      92.39883333 Ry

     iteration #  6     ecut=    50.00 Ry     beta= 0.70
     Davidson diagonalization with overlap
     ethr =  5.19E-04,  avg # of iterations = 10.1

     negative rho (up, down):  1.941E-03 0.000E+00

     total cpu time spent up to now is      717.9 secs

     total energy              =  -20153.35216317 Ry
     estimated scf accuracy    <       7.03387092 Ry

     iteration #  7     ecut=    50.00 Ry     beta= 0.70
     Davidson diagonalization with overlap
     ethr =  5.19E-04,  avg # of iterations =  2.3

     negative rho (up, down):  1.975E-03 0.000E+00

     total cpu time spent up to now is      771.1 secs

     total energy              =  -20153.48362180 Ry
     estimated scf accuracy    <       0.56442545 Ry

     iteration #  8     ecut=    50.00 Ry     beta= 0.70
     Davidson diagonalization with overlap
     ethr =  1.97E-04,  avg # of iterations =  3.2

     negative rho (up, down):  2.017E-03 0.000E+00

     total cpu time spent up to now is      824.5 secs

     total energy              =  -20153.48369067 Ry
     estimated scf accuracy    <       0.52124857 Ry

     iteration #  9     ecut=    50.00 Ry     beta= 0.70
     Davidson diagonalization with overlap
     ethr =  1.82E-04,  avg # of iterations =  2.0

     negative rho (up, down):  2.078E-03 0.000E+00

     total cpu time spent up to now is      880.9 secs

     total energy              =  -20153.48773360 Ry
     estimated scf accuracy    <       0.50153163 Ry

     iteration # 10     ecut=    50.00 Ry     beta= 0.70
     Davidson diagonalization with overlap
     ethr =  1.75E-04,  avg # of iterations =  1.3

     negative rho (up, down):  2.213E-03 0.000E+00

     total cpu time spent up to now is      933.5 secs

     total energy              =  -20153.50396716 Ry
     estimated scf accuracy    <       0.06387763 Ry

     iteration # 11     ecut=    50.00 Ry     beta= 0.70
     Davidson diagonalization with overlap
     c_bands:  1 eigenvalues not converged
     c_bands:  1 eigenvalues not converged
     c_bands:  1 eigenvalues not converged
     c_bands:  1 eigenvalues not converged
     c_bands:  1 eigenvalues not converged
     c_bands:  1 eigenvalues not converged
     c_bands:  1 eigenvalues not converged
     ethr =  2.23E-05,  avg # of iterations = 12.6

     negative rho (up, down):  2.282E-03 0.000E+00

     total cpu time spent up to now is     1002.5 secs

     total energy              =  -20153.50667589 Ry
     estimated scf accuracy    <       0.01360918 Ry

     iteration # 12     ecut=    50.00 Ry     beta= 0.70
     Davidson diagonalization with overlap
     c_bands:  1 eigenvalues not converged
     c_bands:  1 eigenvalues not converged
     ethr =  4.76E-06,  avg # of iterations = 11.2

     negative rho (up, down):  2.252E-03 0.000E+00

     total cpu time spent up to now is     1091.2 secs

     total energy              =  -20153.50069540 Ry
     estimated scf accuracy    <       0.41759215 Ry

     iteration # 13     ecut=    50.00 Ry     beta= 0.70
     Davidson diagonalization with overlap
     c_bands:  1 eigenvalues not converged
     c_bands:  1 eigenvalues not converged
     ethr =  4.76E-06,  avg # of iterations = 10.0

     negative rho (up, down):  2.287E-03 0.000E+00

     total cpu time spent up to now is     1160.2 secs

     total energy              =  -20153.50881937 Ry
     estimated scf accuracy    <       0.02118124 Ry

     iteration # 14     ecut=    50.00 Ry     beta= 0.70
     Davidson diagonalization with overlap
     ethr =  4.76E-06,  avg # of iterations =  2.1

     negative rho (up, down):  2.277E-03 0.000E+00

     total cpu time spent up to now is     1213.9 secs

     total energy              =  -20153.50904052 Ry
     estimated scf accuracy    <       0.01736132 Ry

     iteration # 15     ecut=    50.00 Ry     beta= 0.70
     Davidson diagonalization with overlap
     ethr =  4.76E-06,  avg # of iterations =  1.9

     negative rho (up, down):  2.278E-03 0.000E+00

     total cpu time spent up to now is     1267.9 secs

     total energy              =  -20153.50921831 Ry
     estimated scf accuracy    <       0.03833317 Ry

     iteration # 16     ecut=    50.00 Ry     beta= 0.70
     Davidson diagonalization with overlap
     ethr =  4.76E-06,  avg # of iterations =  1.0

     negative rho (up, down):  2.282E-03 0.000E+00

     total cpu time spent up to now is     1312.8 secs

     total energy              =  -20153.50967967 Ry
     estimated scf accuracy    <       0.01619020 Ry

     iteration # 17     ecut=    50.00 Ry     beta= 0.70
     Davidson diagonalization with overlap
     ethr =  4.76E-06,  avg # of iterations =  1.0

     negative rho (up, down):  2.285E-03 0.000E+00

     total cpu time spent up to now is     1362.0 secs

     total energy              =  -20153.50990684 Ry
     estimated scf accuracy    <       0.00012742 Ry

     iteration # 18     ecut=    50.00 Ry     beta= 0.70
     Davidson diagonalization with overlap
     ethr =  4.46E-08,  avg # of iterations =  4.8

     negative rho (up, down):  2.287E-03 0.000E+00

     total cpu time spent up to now is     1438.7 secs

     total energy              =  -20153.50986900 Ry
     estimated scf accuracy    <       0.00108718 Ry

     iteration # 19     ecut=    50.00 Ry     beta= 0.70
     Davidson diagonalization with overlap
     ethr =  4.46E-08,  avg # of iterations =  2.0

     negative rho (up, down):  2.288E-03 0.000E+00

     total cpu time spent up to now is     1495.9 secs

     total energy              =  -20153.50983704 Ry
     estimated scf accuracy    <       0.00236085 Ry

     iteration # 20     ecut=    50.00 Ry     beta= 0.70
     Davidson diagonalization with overlap
     ethr =  4.46E-08,  avg # of iterations =  2.0

     negative rho (up, down):  2.289E-03 0.000E+00

     total cpu time spent up to now is     1552.8 secs

     total energy              =  -20153.50991538 Ry
     estimated scf accuracy    <       0.00038584 Ry

     iteration # 21     ecut=    50.00 Ry     beta= 0.70
     Davidson diagonalization with overlap
     ethr =  4.46E-08,  avg # of iterations =  2.0

     negative rho (up, down):  2.290E-03 0.000E+00

     total cpu time spent up to now is     1608.2 secs

     total energy              =  -20153.50994191 Ry
     estimated scf accuracy    <       0.00014218 Ry

     iteration # 22     ecut=    50.00 Ry     beta= 0.70
     Davidson diagonalization with overlap
     ethr =  4.46E-08,  avg # of iterations =  1.1

     negative rho (up, down):  2.290E-03 0.000E+00

     total cpu time spent up to now is     1654.9 secs

     total energy              =  -20153.50994818 Ry
     estimated scf accuracy    <       0.00002264 Ry

     iteration # 23     ecut=    50.00 Ry     beta= 0.70
     Davidson diagonalization with overlap
     ethr =  7.92E-09,  avg # of iterations =  2.0

     negative rho (up, down):  2.291E-03 0.000E+00

     total cpu time spent up to now is     1711.0 secs

     total energy              =  -20153.50993743 Ry
     estimated scf accuracy    <       0.00079178 Ry

     iteration # 24     ecut=    50.00 Ry     beta= 0.70
     Davidson diagonalization with overlap
     ethr =  7.92E-09,  avg # of iterations =  2.1

     negative rho (up, down):  2.290E-03 0.000E+00

     total cpu time spent up to now is     1773.0 secs

     total energy              =  -20153.50993115 Ry
     estimated scf accuracy    <       0.00048168 Ry

     iteration # 25     ecut=    50.00 Ry     beta= 0.70
     Davidson diagonalization with overlap
     ethr =  7.92E-09,  avg # of iterations =  2.0

     negative rho (up, down):  2.291E-03 0.000E+00

     total cpu time spent up to now is     1825.2 secs

     total energy              =  -20153.50995043 Ry
     estimated scf accuracy    <       0.00003533 Ry

     iteration # 26     ecut=    50.00 Ry     beta= 0.70
     Davidson diagonalization with overlap
     ethr =  7.92E-09,  avg # of iterations =  1.0

     negative rho (up, down):  2.291E-03 0.000E+00

     total cpu time spent up to now is     1875.2 secs

     total energy              =  -20153.50994993 Ry
     estimated scf accuracy    <       0.00018925 Ry

     iteration # 27     ecut=    50.00 Ry     beta= 0.70
     Davidson diagonalization with overlap
     ethr =  7.92E-09,  avg # of iterations =  1.0

     negative rho (up, down):  2.290E-03 0.000E+00

     total cpu time spent up to now is     1924.1 secs

     total energy              =  -20153.50995192 Ry
     estimated scf accuracy    <       0.00000408 Ry

     iteration # 28     ecut=    50.00 Ry     beta= 0.70
     Davidson diagonalization with overlap
     ethr =  1.43E-09,  avg # of iterations =  1.5

     negative rho (up, down):  2.290E-03 0.000E+00

     total cpu time spent up to now is     1973.0 secs

     total energy              =  -20153.50995209 Ry
     estimated scf accuracy    <       0.00000139 Ry

     iteration # 29     ecut=    50.00 Ry     beta= 0.70
     Davidson diagonalization with overlap
     ethr =  4.88E-10,  avg # of iterations =  1.9

     negative rho (up, down):  2.290E-03 0.000E+00

     total cpu time spent up to now is     2021.2 secs

     total energy              =  -20153.50995213 Ry
     estimated scf accuracy    <       0.00000346 Ry

     iteration # 30     ecut=    50.00 Ry     beta= 0.70
     Davidson diagonalization with overlap
     ethr =  4.88E-10,  avg # of iterations =  1.0

     negative rho (up, down):  2.290E-03 0.000E+00

     total cpu time spent up to now is     2069.9 secs

     End of self-consistent calculation

          k = 0.0000 0.0000 0.0000 ( 23605 PWs)   bands (ev):

     1.5093   1.6504   1.8862   2.1897   2.5545   2.9453   3.3220   3.6243
     3.8177   3.8933   3.9446   3.9479   4.0652   4.0701   4.0712   4.2070
     4.2256   4.2848   4.4058   4.4273   4.5091   4.5402   4.5639   4.6007
     4.6518   4.6869   4.7803   4.8823   4.9829   5.0025   5.1651   5.4368
     5.5626   5.7063   5.7560   5.9666   6.1381   6.1414   6.1764   6.2282
     6.2496   6.2680   6.3053   6.3157   6.3164   6.3313   6.3381   6.3527
     6.3532   6.3749   6.3887   6.3985   6.4025   6.4048   6.4224   6.4355
     6.4380   6.4503   6.4697   6.4807   6.5044   6.5234   6.5330   6.5417
     6.5588   6.5599   6.5744   6.5883   6.6318   6.6501   6.6858   6.7091
     6.7520   6.7668   6.8590   6.8690   6.8695   6.8701   6.8706   7.0398
     7.0828   7.1460   7.1806   7.2976   7.4599   7.4709   7.5358   7.5636
     7.6244   7.6848   7.6859   7.6944   7.6991   7.7188   7.7262   7.7657
     7.7908   7.8133   7.8773   7.8926   7.8991   7.9411   8.0181   8.0225
     8.0238   8.1030   8.1760   8.1926   8.3262   8.3632   8.3817   8.3875
     8.4855   8.5122   8.5301   8.5508   8.5711   8.6080   8.6939   8.7035
     8.7100   8.7220   8.7579   8.7601   8.7688   8.7985   8.8050   8.8218
     8.8242   8.8351   8.8403   8.8621   8.8815   8.9020   8.9372   8.9568
     9.0159   9.0306   9.1165   9.2190   9.2197   9.4128  10.2070  10.5098
    10.5655  10.6295  10.9342  11.2500  11.4708  11.6272  11.7292  11.7942
    11.8541  11.8828  11.9287  12.1199  12.1209  13.5358  13.7331  13.9786
    13.9863  14.2898  14.5480  14.8669  14.8883  15.0696  15.3489  15.9002
    16.2331  16.3945  16.4606  16.4705

          k = 0.0000 0.1443 0.0000 ( 23551 PWs)   bands (ev):

     1.6613   1.8018   2.0352   2.3372   2.7001   3.0902   3.4670   3.7682
     3.9559   4.0243   4.0645   4.0725   4.1879   4.2057   4.2069   4.2988
     4.3447   4.3884   4.5146   4.5531   4.6095   4.6392   4.6556   4.7362
     4.7799   4.7979   4.8812   4.9485   5.1061   5.1264   5.2204   5.4687
     5.5685   5.6778   5.7627   5.9319   6.0428   6.0892   6.1188   6.1304
     6.1484   6.1857   6.2517   6.2544   6.2707   6.2827   6.3292   6.3297
     6.3594   6.3771   6.3914   6.4193   6.4212   6.4365   6.4469   6.4551
     6.4643   6.4713   6.4919   6.5080   6.5275   6.5375   6.5564   6.5719
     6.5921   6.5979   6.6220   6.6308   6.6488   6.6578   6.6775   6.7152
     6.7169   6.7525   6.8136   6.8334   6.8407   6.8694   6.9502   6.9541
     6.9589   6.9864   7.1843   7.2277   7.2979   7.3416   7.4235   7.4818
     7.4872   7.5696   7.5766   7.6158   7.6182   7.6622   7.6987   7.7277
     7.7585   7.7673   7.7806   7.8083   7.8382   7.9175   7.9442   7.9493
     8.0312   8.0608   8.0919   8.1375   8.1426   8.2386   8.2514   8.3020
     8.3053   8.4098   8.4528   8.4682   8.4768   8.4977   8.5231   8.5723
     8.6103   8.6168   8.6198   8.6975   8.7003   8.7212   8.7307   8.7411
     8.7507   8.7682   8.7699   8.7990   8.8453   8.8676   8.8918   8.9184
     8.9194   9.0332   9.0493   9.1272   9.4148  10.0208  10.8550  10.9193
    11.0727  11.1043  11.3163  11.5283  11.6812  11.8021  11.9026  11.9967
    12.1087  12.2321  12.3708  12.5039  12.5311  13.5377  13.7727  14.0101
    14.0609  14.3827  14.6513  14.9290  15.0218  15.1794  15.5066  16.0563
    16.1562  16.4841  16.5386  16.5638

          k = 0.0000 0.2887 0.0000 ( 23495 PWs)   bands (ev):

     2.1017   2.2397   2.4633   2.7574   3.1100   3.4939   3.8682   4.1652
     4.3348   4.3832   4.3838   4.4138   4.5092   4.5216   4.5793   4.5803
     4.6092   4.6510   4.7535   4.8634   4.8978   4.9202   4.9426   5.0480
     5.0837   5.1092   5.1597   5.2232   5.3503   5.4102   5.4608   5.5838
     5.5975   5.6230   5.7537   5.8078   5.8281   5.8883   5.9162   5.9575
     5.9848   5.9871   6.0450   6.0686   6.0754   6.0866   6.1434   6.1473
     6.1850   6.2022   6.2255   6.2660   6.3746   6.3979   6.4026   6.4735
     6.4899   6.5065   6.5658   6.6001   6.6065   6.6180   6.6199   6.6498
     6.6667   6.6810   6.6858   6.6943   6.7438   6.7464   6.7720   6.7994
     6.8022   6.8099   6.8393   6.8788   6.8800   6.8993   6.9309   6.9692
     6.9720   6.9987   7.0569   7.0990   7.1325   7.1870   7.2091   7.2195
     7.2488   7.3047   7.3280   7.3743   7.4139   7.4430   7.4603   7.4694
     7.5200   7.5771   7.6148   7.6694   7.7122   7.7686   7.7802   7.7982
     7.8644   7.9148   7.9335   7.9447   7.9671   7.9674   8.0540   8.0722
     8.1207   8.1837   8.2218   8.2251   8.3144   8.3212   8.3332   8.4626
     8.4913   8.5030   8.5298   8.5542   8.5732   8.6008   8.6140   8.6534
     8.6861   8.7076   8.7176   8.7180   8.7904   8.8010   8.8528   8.9317
     8.9432   9.0462   9.1403   9.5426  10.1834  10.8598  11.7504  11.9660
    11.9863  12.0034  12.0500  12.1252  12.1431  12.2251  12.3532  12.5170
    12.7084  12.9347  13.1446  13.3779  13.5863  13.6217  14.0080  14.1533
    14.3771  14.7055  14.9649  15.1471  15.4222  15.5112  15.7369  16.0484
    16.1831  16.6745  16.7671  16.8048

          k = 0.0000 0.4330 0.0000 ( 23423 PWs)   bands (ev):

     2.7806   2.9104   3.1071   3.3757   3.6919   4.0452   4.3999   4.6919
     4.7458   4.7822   4.8414   4.8552   4.8703   4.8753   4.9271   4.9723
     5.0016   5.0709   5.0722   5.1119   5.1722   5.2321   5.3351   5.3515
     5.3702   5.4061   5.4515   5.4557   5.4910   5.5536   5.5576   5.6020
     5.6526   5.6801   5.6901   5.7393   5.7567   5.7850   5.7888   5.7933
     5.8078   5.8124   5.8359   5.8374   5.8978   5.9071   5.9118   5.9408
     5.9862   6.0454   6.0609   6.0848   6.1130   6.1981   6.2662   6.2871
     6.3114   6.3348   6.4274   6.4655   6.4994   6.5434   6.5494   6.6123
     6.6204   6.6330   6.6776   6.6981   6.7068   6.7329   6.7359   6.7483
     6.7630   6.7876   6.8234   6.8785   6.9057   6.9594   7.0189   7.0353
     7.1143   7.1395   7.1794   7.1866   7.1952   7.2734   7.2815   7.3119
     7.3569   7.3840   7.3974   7.4014   7.4033   7.4276   7.4383   7.4553
     7.5005   7.5020   7.5280   7.5518   7.5824   7.6227   7.6524   7.7021
     7.7609   7.8241   7.8371   7.8397   7.8973   7.9139   7.9690   7.9844
     7.9965   8.0575   8.0808   8.1281   8.1805   8.2813   8.3510   8.4002
     8.4195   8.4447   8.4945   8.4973   8.5319   8.5659   8.6038   8.6166
     8.6576   8.6578   8.6702   8.7298   8.7734   8.7852   8.8035   8.8430
     8.9271   9.2029   9.6808  10.2003  10.9217  11.6533  12.5094  12.5366
    12.5939  12.6412  12.6515  12.8366  12.8997  13.1141  13.2072  13.4085
    13.4816  13.5472  13.8436  13.9971  14.2603  14.3485  14.5683  14.5773
    14.8505  15.2454  15.3324  15.5986  15.6011  15.6735  15.9676  16.0734
    16.1588  16.5053  16.7079  16.9716

          k = 0.0000 0.5774 0.0000 ( 23470 PWs)   bands (ev):

     3.6006   3.7105   3.8419   4.0433   4.2597   4.5123   4.7744   4.8476
     5.0254   5.0393   5.0651   5.1058   5.1108   5.1136   5.1821   5.2302
     5.2368   5.2571   5.2835   5.3076   5.3561   5.3655   5.3685   5.3890
     5.4168   5.4224   5.4450   5.5041   5.5076   5.5161   5.5449   5.5493
     5.5734   5.5830   5.6420   5.6454   5.6720   5.6795   5.7016   5.7129
     5.7609   5.7855   5.7897   5.7958   5.8088   5.8473   5.8499   5.9608
     5.9620   5.9713   6.0419   6.0673   6.1321   6.1891   6.2412   6.2526
     6.3256   6.3395   6.3716   6.3902   6.3984   6.4032   6.4212   6.4472
     6.4593   6.4738   6.5203   6.5419   6.5780   6.5835   6.5835   6.5880
     6.6349   6.6533   6.8496   6.9700   6.9963   7.0500   7.0507   7.0550
     7.0556   7.0564   7.1763   7.2038   7.2454   7.3450   7.3587   7.4430
     7.4787   7.5167   7.5228   7.5392   7.5461   7.5478   7.5561   7.5696
     7.5890   7.6002   7.6423   7.6933   7.7790   7.8167   7.8206   7.8225
     7.8328   7.9491   8.0281   8.0671   8.1847   8.2081   8.2506   8.3125
     8.3714   8.4068   8.4162   8.4354   8.4523   8.4543   8.4900   8.4956
     8.5103   8.5175   8.5455   8.5578   8.5953   8.5978   8.6254   8.6357
     8.6452   8.6781   8.6793   8.6817   8.7006   8.7052   8.8287   8.8539
     9.2649   9.7510  10.3318  10.9385  11.6993  12.4412  12.9241  13.1419
    13.2086  13.2643  13.2787  13.2924  13.3216  13.4169  13.5314  13.6155
    13.7281  13.8242  13.8670  14.0516  14.7721  14.9075  14.9338  15.0407
    15.3050  15.3271  15.3959  15.5536  15.8621  15.8783  16.1490  16.3275
    16.4104  16.5479  16.8656  16.9113

          k = 0.0000 0.7217 0.0000 ( 23446 PWs)   bands (ev):

     4.3514   4.4624   4.4847   4.5515   4.6206   4.7208   4.7537   4.8489
     4.8921   4.9595   4.9614   4.9803   5.0423   5.0779   5.1367   5.1846
     5.1910   5.2297   5.2425   5.2516   5.2765   5.2843   5.3569   5.3585
     5.4163   5.4479   5.4848   5.5205   5.5286   5.5716   5.5906   5.6001
     5.6097   5.6298   5.6342   5.6661   5.6990   5.7163   5.7329   5.7362
     5.7672   5.7739   5.7842   5.7998   5.8162   5.8427   5.8783   5.9198
     6.0131   6.0319   6.1087   6.1264   6.1568   6.1968   6.2050   6.2439
     6.2530   6.3128   6.3195   6.3422   6.3502   6.3529   6.3709   6.3976
     6.4131   6.4233   6.4951   6.5880   6.5897   6.6175   6.6640   6.7116
     6.7125   6.7621   6.9670   6.9718   6.9730   7.0115   7.0167   7.1280
     7.1740   7.1749   7.1810   7.2322   7.2874   7.3027   7.3659   7.3770
     7.3971   7.4313   7.4721   7.5225   7.5295   7.5789   7.6180   7.6395
     7.6546   7.6607   7.7192   7.7943   7.8079   7.8515   7.8569   7.8683
     7.9662   8.0580   8.1075   8.1300   8.2430   8.3083   8.3601   8.5156
     8.5404   8.5966   8.6731   8.6786   8.6921   8.6960   8.7096   8.7224
     8.7290   8.7465   8.7688   8.7763   8.8399   8.8655   8.8924   8.9019
     8.9129   8.9159   9.3270   9.3465   9.3609   9.4291   9.5556   9.8015
    10.2018  10.7165  11.3275  11.7198  11.8003  11.9647  12.0082  12.2570
    12.5908  12.7092  12.9930  13.4141  13.4149  13.7627  13.9888  14.0485
    14.1517  14.1644  14.3161  14.4277  14.6708  14.7596  14.9848  15.1428
    15.5194  15.6372  15.9613  16.1197  16.1691  16.4258  16.4576  16.6060
    16.7025  16.8123  17.0573  17.1187

          k = 0.0000-0.8660 0.0000 ( 23420 PWs)   bands (ev):

     4.6350   4.6350   4.7619   4.7620   4.8205   4.8205   4.8258   4.8258
     4.8965   4.8965   4.9329   4.9329   5.0248   5.0248   5.0434   5.0434
     5.1115   5.1115   5.1848   5.1849   5.2460   5.2460   5.2480   5.2481
     5.4564   5.4564   5.4833   5.4833   5.5214   5.5214   5.5451   5.5451
     5.6182   5.6182   5.6703   5.6703   5.7461   5.7461   5.7570   5.7570
     5.8519   5.8519   5.8931   5.8931   5.9165   5.9165   5.9942   5.9943
     5.9998   5.9998   6.0608   6.0608   6.1063   6.1064   6.1303   6.1303
     6.2140   6.2140   6.2805   6.2805   6.3470   6.3470   6.4307   6.4307
     6.5467   6.5467   6.5770   6.5771   6.6129   6.6129   6.7460   6.7460
     6.9822   6.9822   6.9842   6.9843   7.0292   7.0292   7.0313   7.0313
     7.1288   7.1288   7.2337   7.2338   7.2951   7.2951   7.3369   7.3370
     7.3822   7.3822   7.4558   7.4558   7.5418   7.5418   7.6496   7.6496
     7.6800   7.6800   7.7792   7.7792   7.8421   7.8421   7.8721   7.8721
     7.9597   7.9597   8.0318   8.0318   8.1980   8.1980   8.4293   8.4293
     8.6111   8.6112   8.7711   8.7712   8.8159   8.8159   8.8366   8.8367
     8.8677   8.8677   8.9110   8.9111   8.9863   8.9863   9.0350   9.0351
     9.0480   9.0481  10.4227  10.4228  10.4541  10.4541  10.5622  10.5622
    10.7062  10.7062  10.9449  10.9449  11.2773  11.2773  11.7059  11.7059
    12.2133  12.2134  12.7955  12.7956  13.3863  13.3864  14.0339  14.0339
    14.5841  14.5842  15.0329  15.0329  15.7420  15.7420  15.7564  15.7564
    15.8791  15.8791  15.9505  15.9505  16.1804  16.1805  16.2537  16.2537
    16.4625  16.4626  16.5983  16.5983

          k = 0.1250 0.0000 0.0000 ( 23563 PWs)   bands (ev):

     1.6239   1.7642   1.9985   2.3006   2.6642   3.0545   3.4315   3.7330
     3.9226   3.9414   3.9919   4.0446   4.0616   4.1722   4.1734   4.2217
     4.2504   4.3229   4.4175   4.4414   4.5302   4.5732   4.5988   4.6163
     4.6654   4.7394   4.8232   4.9248   5.0105   5.0357   5.2002   5.4638
     5.5766   5.6958   5.7675   5.9790   6.0674   6.1427   6.1532   6.1711
     6.2094   6.2117   6.2602   6.2791   6.2992   6.3336   6.3341   6.3409
     6.3570   6.3693   6.4097   6.4156   6.4207   6.4224   6.4402   6.4469
     6.4571   6.4687   6.4751   6.5041   6.5282   6.5461   6.5496   6.5639
     6.5865   6.5925   6.6160   6.6254   6.6288   6.6619   6.6888   6.7273
     6.7632   6.7635   6.8276   6.8501   6.8610   6.9264   6.9322   6.9334
     7.0145   7.0654   7.1269   7.2964   7.3686   7.3792   7.4194   7.5134
     7.5446   7.5835   7.5939   7.5948   7.6402   7.6678   7.7369   7.7508
     7.8075   7.8149   7.8157   7.8719   7.8939   7.9217   7.9389   7.9400
     8.0512   8.0710   8.1001   8.1845   8.2398   8.2544   8.2992   8.3525
     8.3966   8.4385   8.4757   8.4823   8.5652   8.5857   8.5873   8.6351
     8.6625   8.6697   8.6894   8.6968   8.7195   8.7336   8.7484   8.7644
     8.7727   8.7778   8.8022   8.8241   8.8464   8.8552   8.8627   8.9319
     8.9596   8.9988   9.1215   9.1221   9.2946   9.3452   9.6674   9.9344
     9.9449  10.1326  10.2101  10.3319  10.6910  10.8271  10.9989  11.2727
    11.9583  12.6639  13.2791  13.4564  13.5320  13.6621  13.9207  14.0014
    14.2122  14.5211  14.8293  14.9130  15.1518  15.2142  15.5903  15.9081
    16.3758  16.4605  16.5377  16.9277

          k = 0.1250 0.1443 0.0000 ( 23537 PWs)   bands (ev):

     1.7753   1.9135   2.1460   2.4452   2.8067   3.1959   3.5731   3.8734
     4.0579   4.0653   4.1179   4.1752   4.1866   4.3036   4.3048   4.3392
     4.3479   4.4278   4.5392   4.5566   4.6438   4.6743   4.6938   4.7420
     4.7901   4.8347   4.9317   4.9891   5.1325   5.1613   5.2530   5.4880
     5.6025   5.6247   5.7516   5.9222   5.9912   6.0315   6.0910   6.0940
     6.1194   6.1753   6.2011   6.2182   6.2415   6.2694   6.2832   6.3022
     6.3099   6.3447   6.3829   6.4208   6.4456   6.4662   6.4688   6.4839
     6.4934   6.5012   6.5093   6.5153   6.5339   6.5699   6.5801   6.6044
     6.6081   6.6225   6.6473   6.6582   6.6826   6.6902   6.7002   6.7181
     6.7381   6.7599   6.7714   6.8167   6.8260   6.8797   6.9208   6.9215
     7.0131   7.0148   7.1334   7.1697   7.2008   7.2518   7.3684   7.4324
     7.4519   7.5054   7.5319   7.5540   7.5590   7.5624   7.5990   7.6357
     7.7042   7.7245   7.7483   7.8078   7.8339   7.8587   7.8605   7.9147
     7.9457   7.9795   8.0484   8.0726   8.1429   8.1565   8.1983   8.2064
     8.2992   8.3257   8.3524   8.3524   8.3996   8.4509   8.4843   8.5212
     8.5388   8.5448   8.5612   8.5803   8.6136   8.6288   8.6587   8.7024
     8.7201   8.7436   8.7507   8.7687   8.7842   8.7868   8.8396   8.8865
     9.0048   9.0319   9.1384   9.1402   9.6667   9.9784  10.1398  10.3060
    10.3469  10.4416  10.5682  10.7883  11.1662  11.1677  11.4128  11.6954
    12.3274  12.9943  13.4741  13.5552  13.6471  13.7342  14.0145  14.0324
    14.3210  14.6294  14.9325  14.9795  15.2599  15.3362  15.7229  15.9628
    16.4224  16.5452  16.6406  16.9797

          k = 0.1250 0.2887 0.0000 ( 23467 PWs)   bands (ev):

     2.2102   2.3427   2.5657   2.8533   3.2025   3.5815   3.9529   4.2449
     4.3954   4.4087   4.4500   4.5172   4.5223   4.5576   4.6419   4.6546
     4.6558   4.6571   4.7766   4.8602   4.9288   4.9548   4.9736   5.0727
     5.0844   5.1357   5.1789   5.2464   5.3538   5.4196   5.4748   5.4767
     5.5884   5.6560   5.7388   5.7609   5.8178   5.8563   5.8651   5.9711
     5.9819   6.0233   6.0292   6.0423   6.0608   6.0774   6.0875   6.1219
     6.1506   6.2022   6.2173   6.2466   6.3213   6.3382   6.4579   6.4720
     6.4932   6.5293   6.5782   6.5933   6.6094   6.6207   6.6389   6.6474
     6.6491   6.6731   6.7240   6.7457   6.7712   6.7862   6.7896   6.7946
     6.8324   6.8428   6.8638   6.8874   6.8889   6.9020   6.9170   6.9733
     6.9897   7.0230   7.0252   7.0435   7.0646   7.0896   7.1568   7.1883
     7.1941   7.2234   7.2566   7.3165   7.3551   7.3758   7.4037   7.4804
     7.5208   7.5239   7.5642   7.6110   7.6752   7.6935   7.7415   7.7778
     7.7893   7.7914   7.8580   7.8627   7.9349   7.9607   7.9700   8.0594
     8.1020   8.1217   8.1336   8.2104   8.2309   8.2321   8.2507   8.2760
     8.3355   8.3967   8.4221   8.4931   8.5555   8.6290   8.6433   8.6933
     8.7471   8.7500   8.7786   8.7852   8.8190   8.8231   8.8764   8.9823
     9.0149   9.1495   9.1995   9.6866  10.3237  10.7485  10.8164  10.9340
    11.0505  11.0953  11.3292  11.6554  11.9061  12.0792  12.3719  12.5941
    13.1904  13.5946  13.7133  13.8265  13.9384  14.1780  14.1887  14.4392
    14.6828  14.9714  15.2092  15.2642  15.5916  15.6354  15.9911  16.1173
    16.4429  16.8150  16.9623  16.9672

          k = 0.1250 0.4330 0.0000 ( 23435 PWs)   bands (ev):

     2.8729   2.9895   3.1861   3.4387   3.7444   4.0782   4.4101   4.6645
     4.7778   4.7936   4.8101   4.8573   4.8607   4.8861   4.9455   4.9770
     4.9971   5.0857   5.0874   5.0961   5.1239   5.1836   5.2392   5.2980
     5.3456   5.3608   5.3982   5.4307   5.4660   5.5246   5.5733   5.5997
     5.6526   5.6868   5.6961   5.7308   5.7515   5.7746   5.7972   5.8111
     5.8348   5.8394   5.8608   5.8823   5.9074   5.9361   5.9558   5.9572
     6.0147   6.0320   6.0635   6.1179   6.1768   6.2496   6.2750   6.3221
     6.3785   6.4213   6.4565   6.4792   6.5014   6.5170   6.5546   6.5816
     6.5972   6.6351   6.6466   6.6518   6.6728   6.7061   6.7275   6.7397
     6.7481   6.8117   6.8783   6.8928   6.9506   6.9623   6.9848   7.0484
     7.1339   7.1350   7.1775   7.2006   7.2041   7.2247   7.2553   7.2982
     7.3062   7.3227   7.3403   7.3604   7.4016   7.4215   7.4535   7.4817
     7.4915   7.5318   7.5327   7.5625   7.5903   7.6158   7.6341   7.6563
     7.6792   7.7376   7.7919   7.8044   7.8495   7.9164   7.9279   7.9296
     7.9489   8.0444   8.0846   8.1205   8.1525   8.1953   8.2065   8.2887
     8.3757   8.4274   8.4987   8.5036   8.6017   8.6022   8.6743   8.7141
     8.7256   8.7412   8.7455   8.7707   8.8044   8.8387   8.8934   8.9371
     9.0775   9.2191   9.7310  10.3015  11.0107  11.3777  11.4586  11.6316
    11.7746  11.8655  12.1764  12.5673  12.6742  13.0151  13.4824  13.5763
    13.7715  13.9192  14.2021  14.2994  14.5170  14.6266  14.6733  14.8465
    15.1581  15.3750  15.5418  15.6480  15.6727  15.8607  16.1421  16.1573
    16.3496  16.6332  16.7915  17.2779

          k = 0.1250 0.5774 0.0000 ( 23447 PWs)   bands (ev):

     3.6479   3.7251   3.8710   4.0419   4.2437   4.4593   4.6778   4.8483
     4.8605   4.8760   4.9453   4.9719   4.9756   5.0160   5.0576   5.0699
     5.1079   5.1176   5.1840   5.2031   5.2241   5.2315   5.2788   5.3276
     5.3879   5.4168   5.4216   5.4546   5.4551   5.4872   5.5358   5.5386
     5.5910   5.6051   5.6559   5.6907   5.7002   5.7395   5.7431   5.7547
     5.7672   5.7808   5.7865   5.8756   5.8765   5.9194   5.9317   5.9697
     6.0060   6.0645   6.0676   6.1083   6.1606   6.1717   6.2074   6.2470
     6.3171   6.3735   6.4032   6.4506   6.5038   6.5353   6.5354   6.5705
     6.5889   6.5967   6.6054   6.6117   6.6446   6.6763   6.7093   6.7292
     6.7530   6.7605   6.8668   6.9029   6.9511   6.9665   6.9665   7.0958
     7.1777   7.2323   7.2544   7.2629   7.3055   7.3322   7.3740   7.4169
     7.4407   7.4680   7.4875   7.5310   7.5496   7.5500   7.6110   7.6323
     7.6579   7.6830   7.7203   7.7344   7.7686   7.7864   7.8983   7.9059
     7.9173   7.9812   8.0658   8.1183   8.1781   8.2019   8.2296   8.2363
     8.3339   8.3543   8.3877   8.4271   8.4346   8.4530   8.4800   8.4950
     8.5090   8.5494   8.5609   8.5962   8.6105   8.6272   8.6381   8.6575
     8.7004   8.7242   8.7372   8.7446   8.7827   8.8223   8.8310   8.9694
     9.2503   9.7623  10.3666  11.0109  11.7592  12.0769  12.1903  12.4025
    12.5244  12.6877  13.0121  13.2828  13.3610  13.4031  13.4463  13.6699
    13.9247  13.9951  14.1819  14.2706  14.4824  14.6190  14.8698  15.0561
    15.2392  15.4296  15.4495  15.6007  15.8925  16.0144  16.1990  16.2946
    16.3965  16.7158  16.9026  16.9495

          k = 0.1250 0.7217 0.0000 ( 23455 PWs)   bands (ev):

     4.2715   4.3011   4.4290   4.5101   4.6045   4.6650   4.6785   4.7280
     4.7489   4.8032   4.8192   4.8611   4.9064   4.9471   4.9812   5.0251
     5.0632   5.0920   5.1016   5.1136   5.1929   5.2031   5.2451   5.2611
     5.2613   5.2882   5.3019   5.3378   5.4073   5.4279   5.4456   5.4562
     5.4960   5.5773   5.5859   5.6262   5.6633   5.7087   5.7208   5.7368
     5.7812   5.8288   5.8296   5.8746   5.8983   5.9299   5.9576   5.9891
     5.9968   6.0504   6.1015   6.1474   6.2138   6.2337   6.2629   6.3030
     6.3337   6.3627   6.3672   6.4352   6.4688   6.5163   6.5522   6.6090
     6.6114   6.6356   6.7158   6.7673   6.7803   6.7877   6.8289   6.8417
     6.9042   6.9229   6.9521   7.0052   7.0259   7.0395   7.0697   7.1092
     7.1759   7.1969   7.2545   7.2667   7.3884   7.4044   7.4830   7.4865
     7.4967   7.5570   7.5649   7.6428   7.6644   7.6811   7.7167   7.7637
     7.7793   7.8006   7.8513   7.8704   7.9046   7.9409   8.0365   8.0483
     8.0709   8.1777   8.2328   8.2354   8.3355   8.3359   8.4133   8.5399
     8.5442   8.5758   8.6211   8.6488   8.6550   8.6626   8.6957   8.7389
     8.7552   8.7700   8.7898   8.8001   8.8181   8.8843   8.8947   8.9078
     8.9227   8.9602   9.2788   9.3056   9.3480   9.4036   9.5225   9.7605
    10.1704  10.7081  11.3406  11.7995  11.8737  12.0131  12.0734  12.3046
    12.6288  12.7515  13.0058  13.0874  13.2189  13.4022  13.4797  13.5157
    13.7214  13.9507  14.1005  14.1943  14.4780  14.5787  14.8459  15.0857
    15.2893  15.5585  15.7688  15.9282  15.9779  16.2944  16.3049  16.5171
    16.5215  16.6406  16.7926  16.9804

          k = 0.1250-0.8660 0.0000 ( 23492 PWs)   bands (ev):

     4.4650   4.5285   4.5543   4.6008   4.6253   4.6700   4.7004   4.7188
     4.7514   4.7737   4.8187   4.8546   4.9301   4.9302   4.9975   4.9976
     5.0575   5.0780   5.1062   5.1122   5.1345   5.1377   5.1522   5.1623
     5.2200   5.2417   5.2887   5.2914   5.3301   5.3354   5.3613   5.3742
     5.4717   5.4784   5.5666   5.5883   5.6382   5.6414   5.7304   5.7313
     5.8112   5.8360   5.8984   5.9142   5.9260   5.9477   5.9963   6.0070
     6.0489   6.0515   6.0863   6.0957   6.1456   6.1738   6.2508   6.2684
     6.4098   6.4103   6.4373   6.4642   6.5818   6.5839   6.6165   6.6334
     6.6901   6.7121   6.7631   6.7677   6.8441   6.8468   6.8535   6.8731
     6.8993   6.9145   6.9951   7.0029   7.0668   7.0671   7.1244   7.1726
     7.2070   7.2580   7.3300   7.3628   7.4242   7.4542   7.4840   7.4933
     7.5213   7.5618   7.5988   7.6705   7.7013   7.7100   7.7644   7.8161
     7.8508   7.8611   7.8982   7.9391   7.9949   8.0054   8.0238   8.0435
     8.0786   8.1109   8.1400   8.1776   8.2487   8.2532   8.4363   8.4429
     8.5994   8.6162   8.7341   8.7529   8.7834   8.7847   8.8020   8.8297
     8.8600   8.8814   8.9161   8.9246   8.9788   9.0065   9.0294   9.0363
     9.0487   9.0518  10.4151  10.4271  10.4525  10.4626  10.5643  10.5652
    10.6948  10.7108  10.9262  10.9355  11.2485  11.2632  11.6775  11.6902
    12.1976  12.2018  12.7983  12.7992  13.3774  13.4300  13.9984  14.0233
    14.4455  14.4631  14.6532  14.6581  14.7724  14.8430  14.9717  15.0260
    15.2651  15.2917  15.4244  15.4655  15.7976  15.8296  15.9056  15.9737
    16.2418  16.2497  16.5840  16.6153

          k = 0.2500 0.0000 0.0000 ( 23536 PWs)   bands (ev):

     1.9584   2.0959   2.3243   2.6201   2.9775   3.3636   3.7394   3.8931
     4.0099   4.0372   4.1669   4.2139   4.2672   4.3146   4.3495   4.3588
     4.4078   4.4578   4.4590   4.4760   4.5078   4.6054   4.7020   4.7417
     4.7734   4.8562   4.9436   5.0344   5.1059   5.1308   5.3056   5.5365
     5.6298   5.6477   5.8034   5.8601   5.9249   6.0151   6.0219   6.0561
     6.1120   6.1258   6.1542   6.1616   6.1894   6.2234   6.2728   6.2895
     6.2986   6.3447   6.3788   6.4083   6.4463   6.4718   6.5012   6.5062
     6.5304   6.5416   6.5633   6.5787   6.5920   6.6132   6.6186   6.6325
     6.6470   6.6676   6.7009   6.7033   6.7170   6.7369   6.7517   6.7609
     6.7971   6.8046   6.8245   6.8362   6.8735   6.8951   6.9099   6.9119
     6.9853   7.0294   7.1033   7.1067   7.1433   7.2341   7.2559   7.3011
     7.3641   7.3933   7.4286   7.4507   7.4778   7.5096   7.5690   7.5708
     7.6479   7.6547   7.6956   7.7276   7.7373   7.8345   7.8445   7.8565
     7.9439   7.9725   7.9784   8.0335   8.0599   8.1203   8.2193   8.2315
     8.2378   8.2788   8.2953   8.3273   8.3718   8.3936   8.4087   8.4181
     8.4555   8.4732   8.4930   8.5262   8.5295   8.5448   8.5674   8.6065
     8.6087   8.6116   8.6294   8.6440   8.6767   8.7023   8.7824   8.7873
     8.7938   8.8096   8.8386   8.8777   8.9156   8.9233   8.9304   8.9506
     9.1117   9.3855   9.7005   9.9685  10.3999  10.6646  11.1445  11.5120
    11.8410  11.9008  12.6685  13.3999  14.0965  14.1480  15.0691  15.1148
    15.3348  15.4008  15.5076  15.6101  15.9150  16.3533  16.6622  16.7752
    16.8140  17.1117  17.4021  17.7949

          k = 0.2500 0.1443 0.0000 ( 23484 PWs)   bands (ev):

     2.1060   2.2395   2.4660   2.7569   3.1110   3.4948   3.8709   4.0256
     4.1426   4.1685   4.2953   4.3399   4.3824   4.4459   4.4528   4.4881
     4.5182   4.5789   4.5801   4.6001   4.6380   4.7190   4.7902   4.8183
     4.8745   4.9466   5.0392   5.1092   5.2278   5.2368   5.3518   5.5381
     5.5510   5.6580   5.7644   5.8121   5.8887   5.9170   5.9506   5.9849
     6.0456   6.0566   6.0771   6.0878   6.1470   6.1644   6.2085   6.2356
     6.2509   6.3418   6.3419   6.3797   6.3980   6.4002   6.4387   6.4532
     6.5150   6.5306   6.5683   6.5733   6.5959   6.6048   6.6206   6.6238
     6.6464   6.6690   6.6842   6.7002   6.7300   6.7477   6.7582   6.7899
     6.8100   6.8248   6.8281   6.8406   6.8777   6.8922   6.9113   6.9382
     6.9651   7.0159   7.0517   7.1035   7.1123   7.1892   7.2159   7.2280
     7.2702   7.3039   7.3044   7.3451   7.3900   7.4417   7.4582   7.4730
     7.5194   7.5733   7.6205   7.6756   7.7082   7.7395   7.7593   7.8089
     7.8542   7.8675   7.8994   7.9226   7.9272   7.9988   8.0170   8.0326
     8.1376   8.1645   8.1874   8.2054   8.2166   8.2336   8.2549   8.3132
     8.3140   8.3885   8.4517   8.4676   8.5255   8.5424   8.5542   8.5834
     8.6180   8.6668   8.7088   8.7175   8.7379   8.7566   8.7986   8.8594
     8.9064   8.9809   9.1118   9.1361   9.2302   9.3209   9.3714   9.4537
     9.5969   9.6674  10.1013  10.1894  10.6981  10.9210  11.3843  11.7519
    12.1048  12.1650  12.8574  13.5665  14.1416  14.3137  15.1490  15.2901
    15.3843  15.5066  15.5673  15.7163  16.0055  16.4402  16.7526  16.8722
    16.9061  17.1975  17.4592  17.8269

          k = 0.2500 0.2887 0.0000 ( 23496 PWs)   bands (ev):

     2.5212   2.6448   2.8594   3.1317   3.4661   3.8295   4.1898   4.3765
     4.4698   4.4889   4.6105   4.6152   4.6552   4.6560   4.7176   4.7708
     4.7925   4.8284   4.8755   4.8783   4.9243   4.9828   5.0590   5.0821
     5.1139   5.1908   5.2630   5.2989   5.3610   5.3722   5.4427   5.5539
     5.6126   5.6380   5.6983   5.7176   5.7642   5.7878   5.8747   5.9154
     5.9177   5.9286   5.9535   5.9546   6.0043   6.0556   6.0872   6.0982
     6.1166   6.1257   6.1789   6.2046   6.2459   6.2781   6.3647   6.3657
     6.4202   6.4410   6.4767   6.4946   6.5367   6.5595   6.5662   6.6086
     6.6197   6.6652   6.6709   6.6795   6.6979   6.7269   6.7738   6.7786
     6.8236   6.8326   6.8555   6.8772   6.8922   6.9427   6.9586   6.9643
     6.9814   7.0123   7.0265   7.0486   7.1031   7.1215   7.1559   7.1620
     7.1726   7.2159   7.2481   7.3016   7.3046   7.3373   7.3564   7.3599
     7.4445   7.4471   7.4786   7.5307   7.5350   7.5861   7.6233   7.6793
     7.7150   7.7438   7.7445   7.8165   7.8222   7.8381   7.8954   7.8968
     7.9395   7.9622   8.0015   8.0757   8.0974   8.1554   8.1655   8.2439
     8.2515   8.3887   8.3894   8.4717   8.5904   8.6015   8.6587   8.6968
     8.7601   8.7614   8.7807   8.7919   8.8257   8.8645   8.9539   8.9891
     9.0078   9.1121   9.4623   9.8024   9.8504   9.9110  10.0099  10.0116
    10.1814  10.4625  10.6706  10.8717  11.3927  11.4389  12.0038  12.3028
    12.6517  12.9666  13.3641  14.0083  14.3522  14.7176  15.4091  15.5293
    15.6685  15.8405  15.8498  16.0023  16.2486  16.6422  17.0138  17.0622
    17.2055  17.2813  17.5674  17.6404

          k = 0.2500 0.4330 0.0000 ( 23431 PWs)   bands (ev):

     3.1253   3.2229   3.4081   3.6281   3.8993   4.1849   4.4618   4.6595
     4.7288   4.7808   4.7841   4.8060   4.8208   4.8782   4.8804   4.9458
     4.9958   5.0117   5.0199   5.1001   5.1029   5.1363   5.1454   5.2179
     5.2465   5.2487   5.3058   5.4136   5.4634   5.4962   5.5231   5.5595
     5.5760   5.6278   5.6768   5.7005   5.7421   5.7753   5.8000   5.8267
     5.8495   5.8807   5.9044   5.9312   5.9553   5.9810   6.0034   6.0397
     6.0700   6.1034   6.1058   6.1386   6.1655   6.1910   6.2511   6.2916
     6.3417   6.3638   6.4153   6.4325   6.5198   6.5385   6.5678   6.5704
     6.6181   6.6200   6.6624   6.6741   6.6962   6.7187   6.7364   6.7610
     6.8175   6.8793   6.9062   6.9358   6.9819   6.9837   6.9844   7.0278
     7.0311   7.1283   7.1383   7.1818   7.1841   7.2172   7.2659   7.2729
     7.3099   7.3419   7.3581   7.4067   7.4076   7.4316   7.4788   7.5019
     7.5336   7.5608   7.5845   7.5977   7.6284   7.6390   7.6611   7.6950
     7.6962   7.7105   7.7898   7.8211   7.8283   7.8688   7.8843   7.9470
     7.9637   8.0315   8.0405   8.0610   8.1090   8.1694   8.2356   8.2583
     8.3604   8.4119   8.4342   8.5792   8.6087   8.6560   8.7495   8.8026
     8.8192   8.8253   8.8375   8.8513   8.8532   8.8748   8.9792   9.0220
     9.1567   9.3316   9.9063  10.4119  10.4535  10.5345  10.5541  10.7123
    10.9502  11.2489  11.2839  11.7081  12.0369  12.2089  12.7830  12.8978
    13.3597  14.0146  14.0235  14.5416  14.8528  15.1000  15.6795  15.8297
    15.8916  15.9009  15.9746  16.1732  16.2838  16.4198  16.4901  16.6916
    16.8962  17.0585  17.4136  17.4323

          k = 0.2500 0.5774 0.0000 ( 23466 PWs)   bands (ev):

     3.7354   3.7875   3.9545   4.0816   4.2448   4.3895   4.5297   4.6039
     4.6490   4.6878   4.7199   4.7496   4.7664   4.8251   4.8698   4.8944
     4.8994   4.9935   4.9994   5.0426   5.0454   5.1195   5.1340   5.1760
     5.1834   5.2162   5.2225   5.2534   5.2874   5.3357   5.3526   5.3857
     5.4437   5.4841   5.5184   5.6176   5.6599   5.6631   5.7500   5.7691
     5.8210   5.8534   5.8903   5.8910   5.9541   5.9648   5.9931   6.0818
     6.1281   6.1646   6.2271   6.2294   6.2895   6.3992   6.4102   6.4569
     6.4658   6.5074   6.5268   6.5762   6.5914   6.6168   6.6231   6.6340
     6.6504   6.7100   6.7550   6.7937   6.7963   6.8445   6.8451   6.9191
     6.9396   6.9814   6.9868   7.0188   7.0788   7.1103   7.1811   7.1823
     7.2797   7.2878   7.3326   7.3586   7.3769   7.4864   7.4959   7.5131
     7.5226   7.5433   7.5621   7.6690   7.6711   7.7545   7.7791   7.8025
     7.8619   7.8691   7.9210   7.9328   7.9348   7.9659   8.0022   8.0557
     8.0618   8.0675   8.0937   8.1307   8.1326   8.1385   8.1906   8.2088
     8.2681   8.3116   8.3405   8.3503   8.4019   8.4275   8.4504   8.4905
     8.5042   8.5387   8.5790   8.5929   8.6697   8.7070   8.7413   8.7514
     8.7521   8.8209   8.8236   8.8506   8.8508   8.9441   8.9831   9.1209
     9.2342   9.8236  10.4873  11.0698  11.1380  11.1853  11.2817  11.4855
    11.7648  11.9339  12.1322  12.5726  12.7171  13.0675  13.5008  13.5625
    13.7849  13.8406  14.0621  14.2801  14.4371  14.7541  15.0236  15.0843
    15.1446  15.4523  15.6251  15.7452  15.9201  16.1977  16.4060  16.5628
    16.6603  17.0311  17.1713  17.4518

          k = 0.2500 0.7217 0.0000 ( 23545 PWs)   bands (ev):

     4.0860   4.1271   4.3088   4.3691   4.3842   4.4955   4.4991   4.5160
     4.5485   4.5791   4.5967   4.6468   4.6601   4.7396   4.7558   4.7629
     4.8209   4.8632   4.8719   4.8721   4.9203   4.9298   4.9356   5.0115
     5.0473   5.0797   5.0939   5.1265   5.1437   5.2243   5.2420   5.2517
     5.2935   5.3460   5.4059   5.4877   5.5328   5.5843   5.6743   5.6934
     5.7786   5.8326   5.8453   5.9302   5.9804   6.0075   6.0122   6.1086
     6.1268   6.2489   6.2792   6.3287   6.3605   6.3798   6.3987   6.4513
     6.5397   6.5460   6.5663   6.5951   6.6177   6.6611   6.6979   6.7198
     6.7648   6.8034   6.8173   6.8554   6.9191   6.9656   7.0407   7.0785
     7.1154   7.1228   7.2071   7.2136   7.2640   7.3119   7.3228   7.3578
     7.4238   7.4417   7.5669   7.6056   7.6514   7.6638   7.7146   7.8239
     7.8355   7.9004   7.9166   7.9210   7.9455   7.9752   8.0020   8.1079
     8.1284   8.1722   8.1981   8.1987   8.2210   8.2304   8.2745   8.3122
     8.3123   8.3253   8.4140   8.4218   8.4751   8.5359   8.5480   8.5561
     8.5788   8.5842   8.5970   8.6137   8.6578   8.6846   8.7077   8.7154
     8.7625   8.7726   8.7964   8.8146   8.8668   8.9080   8.9309   8.9352
     8.9410   9.0628   9.1440   9.2132   9.3162   9.3562   9.4505   9.6663
    10.1060  10.7058  11.3968  11.9170  11.9810  12.0052  12.0646  12.1297
    12.1462  12.2571  12.4059  12.5582  12.7945  12.8775  12.9669  13.1632
    13.2956  13.4181  13.6335  13.9291  13.9788  14.2730  14.2972  14.6753
    14.8657  15.3087  15.3157  15.3782  15.5533  15.7516  15.7597  15.9855
    16.0311  16.2091  16.4386  16.5661

          k = 0.2500-0.8660 0.0000 ( 23532 PWs)   bands (ev):

     4.1894   4.2631   4.3035   4.3236   4.3952   4.4511   4.4722   4.4973
     4.5436   4.5533   4.6144   4.6417   4.7154   4.7168   4.7376   4.7472
     4.7901   4.7955   4.8031   4.8050   4.8905   4.9019   4.9020   4.9215
     4.9483   4.9511   5.0393   5.0421   5.0890   5.0917   5.2137   5.2348
     5.2956   5.3050   5.3326   5.3340   5.5043   5.5072   5.6532   5.6748
     5.7925   5.8344   5.9201   5.9581   6.0454   6.0484   6.0870   6.1194
     6.1514   6.1534   6.2269   6.2419   6.3986   6.4081   6.4398   6.4440
     6.5157   6.5430   6.5691   6.5742   6.6470   6.6481   6.7113   6.7405
     6.7856   6.8158   6.8869   6.9126   6.9629   6.9847   7.0966   7.1314
     7.1757   7.1914   7.2861   7.2947   7.3781   7.3871   7.4399   7.4608
     7.5157   7.5275   7.6740   7.7022   7.7029   7.7210   7.8630   7.8986
     7.9230   7.9923   8.0589   8.0593   8.0760   8.0833   8.0967   8.1516
     8.2152   8.2454   8.2921   8.3414   8.3555   8.3675   8.3872   8.3931
     8.3988   8.4111   8.4276   8.4419   8.4726   8.4802   8.5254   8.5364
     8.6173   8.6444   8.7139   8.7295   8.7503   8.7563   8.7805   8.8056
     8.8364   8.8805   8.9044   8.9461   8.9667   9.0137   9.0324   9.0443
     9.0562   9.0622  10.3876  10.4259  10.4682  10.4865  10.6059  10.6156
    10.7169  10.7545  10.9139  10.9343  11.1923  11.2280  11.5958  11.6317
    12.1109  12.1375  12.7108  12.7581  13.3299  13.3319  13.5215  13.5550
    13.6430  13.6432  13.7366  13.8013  13.9684  14.0837  14.1930  14.2166
    14.3578  14.5829  14.7212  14.8179  14.9825  15.1432  15.4181  15.4492
    15.7390  15.7785  15.9853  15.9969

          k = 0.3750 0.0000 0.0000 ( 23492 PWs)   bands (ev):

     2.4806   2.6103   2.8232   3.1000   3.4347   3.6554   3.7606   3.7987
     3.9082   4.0780   4.1567   4.2382   4.3682   4.4355   4.4949   4.5816
     4.6171   4.6374   4.6913   4.7257   4.8448   4.8466   4.8503   4.9301
     4.9710   5.0127   5.1213   5.1802   5.2327   5.3204   5.4789   5.5062
     5.5945   5.6508   5.6964   5.7340   5.7876   5.8724   5.8806   5.9174
     5.9355   5.9733   6.0180   6.0682   6.0699   6.1182   6.1365   6.1658
     6.2233   6.2515   6.3310   6.4115   6.4157   6.4511   6.4900   6.5136
     6.5139   6.5577   6.5603   6.5865   6.5907   6.6156   6.6416   6.6419
     6.6596   6.6877   6.6981   6.6993   6.7430   6.7774   6.8096   6.8207
     6.8457   6.8603   6.8890   6.9182   6.9266   6.9318   6.9454   6.9782
     7.0001   7.0138   7.0232   7.0665   7.1244   7.1513   7.1674   7.1823
     7.2048   7.2064   7.2956   7.3108   7.3385   7.3518   7.4006   7.4701
     7.4831   7.5093   7.5272   7.5279   7.6149   7.6229   7.6485   7.6951
     7.6994   7.7275   7.7716   7.7919   7.8702   7.9054   7.9449   7.9581
     7.9707   7.9765   8.0133   8.0294   8.0373   8.0545   8.0693   8.0721
     8.1142   8.1316   8.1723   8.1925   8.2273   8.2634   8.2746   8.3131
     8.3227   8.3338   8.3734   8.4359   8.4505   8.5342   8.5696   8.5872
     8.6355   8.6372   8.6806   8.7996   8.8092   8.8504   8.8614   8.9500
     9.1732   9.4106   9.7760   9.9479  10.4361  10.6110  11.1267  11.3578
    11.8761  12.2579  12.6356  12.8800  13.4748  14.3523  14.9649  15.3791
    15.6253  15.8269  16.4934  16.9940  17.1974  17.2711  17.4335  17.6075
    17.7945  17.9660  18.2581  18.7129

          k = 0.3750 0.1443 0.0000 ( 23495 PWs)   bands (ev):

     2.6230   2.7470   2.9571   3.2265   3.5566   3.7942   3.9005   3.9173
     4.0369   4.2014   4.2792   4.3506   4.4778   4.5691   4.6090   4.7145
     4.7374   4.7575   4.8149   4.8454   4.9504   4.9574   4.9587   5.0078
     5.0478   5.1066   5.2097   5.2760   5.3494   5.4063   5.4679   5.5033
     5.5681   5.6387   5.6611   5.7488   5.7696   5.8042   5.8165   5.8519
     5.8673   5.9077   5.9403   5.9898   6.0088   6.0365   6.0684   6.0757
     6.1244   6.1705   6.2040   6.2500   6.2851   6.3208   6.3387   6.4164
     6.4277   6.4461   6.4570   6.5023   6.5238   6.5484   6.5602   6.5820
     6.5974   6.6423   6.6754   6.6846   6.6933   6.6978   6.7089   6.7380
     6.7731   6.7944   6.8256   6.8463   6.8830   6.9280   6.9517   7.0004
     7.0170   7.0448   7.0743   7.0930   7.1414   7.1562   7.1855   7.2070
     7.2462   7.2699   7.2936   7.2982   7.3327   7.3719   7.3801   7.4005
     7.4178   7.4574   7.4746   7.4803   7.5355   7.5808   7.6505   7.6863
     7.6986   7.7294   7.7524   7.7665   7.7805   7.8545   7.8802   7.9158
     7.9529   7.9793   8.0192   8.0497   8.1062   8.1147   8.1467   8.1556
     8.2323   8.2650   8.2946   8.3139   8.3933   8.4124   8.4405   8.4822
     8.4911   8.5082   8.5130   8.5467   8.6124   8.6344   8.6464   8.6933
     8.6996   8.7154   8.7442   8.7601   8.7906   8.8153   8.9504   9.1168
     9.3910   9.5625   9.9474  10.1075  10.5825  10.7698  11.2600  11.5353
    12.0143  12.4202  12.7640  13.1455  13.6077  14.4305  15.1794  15.4799
    15.7900  15.9279  16.6203  17.1060  17.2755  17.3588  17.4702  17.6391
    17.8985  18.0440  18.2941  18.7641

          k = 0.3750 0.2887 0.0000 ( 23497 PWs)   bands (ev):

     3.0109   3.1197   3.3129   3.5544   3.8541   4.1611   4.1820   4.2660
     4.3431   4.4591   4.5192   4.5582   4.6759   4.7987   4.8154   4.9310
     4.9574   4.9713   5.0993   5.1070   5.1799   5.1833   5.1895   5.2462
     5.2608   5.3060   5.3174   5.3672   5.4288   5.4812   5.5049   5.5787
     5.5839   5.6167   5.6205   5.6911   5.7067   5.7342   5.7440   5.7684
     5.7724   5.8224   5.8490   5.8610   5.9035   5.9064   5.9540   5.9649
     5.9796   5.9830   6.0491   6.0651   6.0918   6.1703   6.1830   6.2153
     6.2769   6.3040   6.3113   6.3609   6.3976   6.3995   6.4272   6.4362
     6.4772   6.5128   6.5358   6.5668   6.5944   6.6064   6.6332   6.6954
     6.7099   6.7344   6.7350   6.7383   6.8214   6.8517   6.8803   6.9472
     6.9621   6.9865   7.0336   7.1399   7.1776   7.2365   7.2430   7.2493
     7.2932   7.3250   7.3361   7.3686   7.3755   7.4148   7.4347   7.4534
     7.4857   7.5243   7.5409   7.5861   7.6014   7.6259   7.6464   7.6577
     7.6861   7.7202   7.7457   7.7658   7.8853   7.9157   7.9487   7.9575
     7.9711   8.0610   8.1055   8.1195   8.1483   8.1539   8.1929   8.2266
     8.2858   8.3305   8.4084   8.4715   8.5031   8.5612   8.5886   8.6152
     8.6361   8.6706   8.6754   8.6874   8.6950   8.7800   8.8293   8.9060
     8.9342   9.0538   9.1004   9.1090   9.1664   9.2730   9.3534   9.4916
     9.8570   9.8916  10.4093  10.4502  11.0140  11.1432  11.6629  11.9281
    12.4145  12.7975  13.1351  13.8169  13.9531  14.7306  15.7516  15.7851
    16.2202  16.2567  16.9409  17.3921  17.4948  17.5341  17.5809  17.7810
    18.0643  18.1524  18.3498  18.6579

          k = 0.3750 0.4330 0.0000 ( 23475 PWs)   bands (ev):

     3.5199   3.5916   3.7562   3.9271   4.1432   4.3618   4.4044   4.5221
     4.5768   4.5905   4.6818   4.7122   4.7404   4.7526   4.8545   4.8661
     4.9440   4.9608   5.0024   5.0728   5.1193   5.1311   5.1708   5.2162
     5.2266   5.2398   5.2916   5.3215   5.3282   5.3543   5.4065   5.4613
     5.5131   5.5858   5.5925   5.6291   5.6818   5.7086   5.7331   5.7653
     5.8180   5.8609   5.8849   5.9394   5.9708   5.9752   6.0619   6.0710
     6.0908   6.1183   6.1656   6.1841   6.2181   6.2260   6.2725   6.2809
     6.2941   6.3239   6.3583   6.3805   6.4102   6.4445   6.5140   6.5265
     6.5974   6.6157   6.6344   6.6348   6.6889   6.7071   6.7787   6.7904
     6.8188   6.8745   6.8808   6.9019   6.9369   6.9413   6.9519   6.9778
     7.0160   7.0188   7.1257   7.1395   7.1856   7.2531   7.2773   7.3539
     7.3780   7.4219   7.4541   7.5045   7.5164   7.5410   7.5600   7.5843
     7.6392   7.6493   7.6640   7.7021   7.7236   7.7765   7.7988   7.8339
     7.8858   7.9077   7.9262   7.9826   7.9836   8.0126   8.0475   8.0966
     8.1642   8.1782   8.1895   8.2331   8.2873   8.3506   8.3596   8.3966
     8.4165   8.4232   8.4952   8.5461   8.5929   8.6958   8.6977   8.7533
     8.7699   8.7772   8.7865   8.7892   8.8202   8.9054   8.9464   9.0565
     9.1223   9.5654   9.5905   9.6248   9.6464   9.7142   9.8667  10.1339
    10.2514  10.5310  10.9156  11.0355  11.6350  11.6418  12.2621  12.4329
    13.0040  13.2423  13.6791  14.4462  14.6840  15.2877  16.2415  16.2804
    16.5382  16.6167  16.7197  16.8354  17.0312  17.1108  17.4384  17.5095
    17.6984  17.7802  17.9536  18.0424

          k = 0.3750 0.5774 0.0000 ( 23521 PWs)   bands (ev):

     3.8775   3.9195   4.1076   4.1984   4.2790   4.3246   4.4016   4.4068
     4.4739   4.5306   4.5665   4.5763   4.6385   4.6864   4.7215   4.7589
     4.7994   4.8121   4.8569   4.8669   4.8917   4.9294   4.9401   4.9618
     5.0289   5.0290   5.0491   5.1061   5.1398   5.1699   5.1979   5.2222
     5.3081   5.3734   5.3796   5.4196   5.5234   5.5847   5.6623   5.7137
     5.8067   5.8791   5.8973   6.0030   6.0788   6.1095   6.1466   6.1732
     6.1856   6.3133   6.3177   6.3584   6.4024   6.4582   6.4804   6.5320
     6.5325   6.5438   6.5641   6.5739   6.6124   6.6393   6.7021   6.7402
     6.7468   6.7992   6.8132   6.8396   6.8910   6.8931   6.9773   7.0141
     7.0190   7.0830   7.1055   7.1281   7.1458   7.2969   7.3104   7.3186
     7.3750   7.3824   7.4892   7.5360   7.5839   7.6764   7.6889   7.7343
     7.7550   7.7588   7.7877   7.8474   7.9195   7.9429   7.9447   7.9810
     8.0086   8.0727   8.0844   8.1154   8.1545   8.1878   8.1994   8.2005
     8.2353   8.2493   8.2575   8.2680   8.3097   8.3149   8.3263   8.3319
     8.3470   8.3610   8.4203   8.4361   8.4679   8.5041   8.5378   8.5681
     8.5814   8.6079   8.6264   8.6860   8.7137   8.7217   8.7580   8.7787
     8.8376   8.8594   8.8714   8.8897   8.8914   8.9813   9.0167   9.1380
     9.4238  10.0707  10.0804  10.1380  10.2245  10.3546  10.5388  10.7899
    10.8394  11.2514  11.5294  11.7655  12.2822  12.3856  13.0008  13.0695
    13.6988  13.7929  14.2471  14.4985  14.6102  14.8823  14.9724  15.2891
    15.3385  15.5069  15.7613  15.8385  16.2341  16.3944  16.4775  16.7093
    16.7944  16.9461  17.1566  17.2726

          k = 0.3750 0.7217 0.0000 ( 23544 PWs)   bands (ev):

     3.9941   4.0414   4.1150   4.2207   4.2450   4.2716   4.3739   4.3740
     4.3892   4.3958   4.4605   4.4705   4.5370   4.5624   4.6032   4.6177
     4.6258   4.6539   4.6766   4.7014   4.7064   4.7171   4.7918   4.7944
     4.8189   4.8635   4.8689   4.9549   4.9715   4.9912   5.0561   5.0836
     5.1463   5.1996   5.2365   5.2590   5.4683   5.4701   5.6560   5.7020
     5.8639   5.8682   5.9120   6.0386   6.0420   6.1217   6.1672   6.1788
     6.2717   6.2984   6.3506   6.3710   6.4298   6.4443   6.4511   6.4573
     6.4969   6.5049   6.6153   6.6605   6.6746   6.7102   6.7611   6.7962
     6.8610   6.8725   6.9131   7.0178   7.0681   7.1040   7.1861   7.1909
     7.2872   7.3017   7.3937   7.4437   7.4925   7.5509   7.6057   7.6505
     7.7475   7.7851   7.7919   7.8623   7.9347   7.9901   8.0388   8.0716
     8.1625   8.2173   8.2354   8.3104   8.3228   8.3587   8.3864   8.3984
     8.4573   8.4620   8.4863   8.4872   8.5357   8.5465   8.5678   8.5708
     8.5935   8.6071   8.6107   8.6188   8.6402   8.6534   8.6832   8.6939
     8.6952   8.7097   8.7113   8.7272   8.7396   8.7450   8.7691   8.7793
     8.7959   8.8486   8.8682   8.8952   8.9032   8.9588   8.9916   9.0003
     9.0288   9.0301   9.1482   9.1597   9.3928   9.4565   9.5523   9.7142
    10.1832  10.7256  10.8485  10.8858  11.0374  11.2207  11.3862  11.5894
    11.6328  11.9487  12.2922  12.3723  12.6162  12.7535  12.9687  13.0337
    13.1291  13.1380  13.5230  13.8093  13.8917  14.0284  14.2873  14.3428
    14.4505  14.5042  14.6650  14.6845  14.9311  15.0852  15.2788  15.5151
    15.6150  16.0235  16.0402  16.2762

          k = 0.3750-0.8660 0.0000 ( 23556 PWs)   bands (ev):

     3.9916   4.0641   4.1146   4.1264   4.2338   4.2622   4.2954   4.3142
     4.3624   4.3713   4.4278   4.4535   4.5156   4.5253   4.5552   4.5572
     4.5945   4.6061   4.6158   4.6164   4.6761   4.6989   4.7104   4.7174
     4.7332   4.7540   4.8313   4.8380   4.9246   4.9271   5.0490   5.0577
     5.0802   5.0812   5.1862   5.1932   5.4274   5.4432   5.6342   5.7090
     5.8576   5.8698   5.9936   6.0008   6.1135   6.1282   6.1583   6.1746
     6.2509   6.2869   6.3157   6.3481   6.4086   6.4136   6.4316   6.4434
     6.4928   6.5014   6.6586   6.6919   6.7047   6.7131   6.7852   6.7935
     6.9125   6.9220   7.0160   7.0463   7.1318   7.1335   7.2127   7.2536
     7.3856   7.3904   7.4654   7.4788   7.5879   7.6162   7.7400   7.7692
     7.8419   7.8612   7.9131   7.9381   8.1173   8.1294   8.1935   8.1936
     8.2387   8.2690   8.3973   8.4127   8.4440   8.4923   8.5369   8.5526
     8.5593   8.5855   8.6025   8.6168   8.6299   8.6459   8.6583   8.6753
     8.6906   8.7019   8.7350   8.7427   8.7562   8.7621   8.7710   8.7826
     8.7914   8.8146   8.8250   8.8499   8.8508   8.8644   8.8717   8.8957
     8.9150   8.9329   8.9548   8.9627   9.0063   9.0483   9.0830   9.0851
     9.0923   9.1096  10.2927  10.3921  10.4992  10.5248  10.7508  10.8037
    10.9090  10.9732  11.0843  11.1143  11.2444  11.2987  11.5034  11.5716
    11.8637  11.9158  12.2290  12.3388  12.5088  12.5467  12.6289  12.7629
    12.7867  12.7978  12.8147  13.0826  13.3028  13.6858  13.7565  13.8171
    13.9348  14.2293  14.3505  14.4474  14.5729  14.8050  14.9588  15.1491
    15.3631  15.4648  15.6901  15.8953

          k =-0.5000 0.0000-0.0000 ( 23442 PWs)   bands (ev):

     3.1110   3.1110   3.2245   3.2245   3.4035   3.4035   3.6327   3.6327
     3.9032   3.9032   4.1883   4.1883   4.4616   4.4616   4.6635   4.6635
     4.7758   4.7758   4.8868   4.8868   4.9928   4.9928   5.1282   5.1283
     5.1555   5.1555   5.2392   5.2392   5.3080   5.3080   5.4512   5.4512
     5.5664   5.5664   5.6874   5.6874   5.7527   5.7527   5.8220   5.8220
     5.9247   5.9247   5.9696   5.9696   6.0368   6.0369   6.0757   6.0757
     6.1673   6.1673   6.2383   6.2384   6.3335   6.3335   6.4183   6.4183
     6.5280   6.5280   6.5829   6.5829   6.6254   6.6254   6.6695   6.6695
     6.6820   6.6821   6.6969   6.6969   6.7112   6.7112   6.7393   6.7393
     6.8017   6.8017   6.8816   6.8816   6.9058   6.9059   6.9462   6.9463
     7.0088   7.0088   7.1688   7.1689   7.1831   7.1832   7.1880   7.1881
     7.2502   7.2503   7.2872   7.2872   7.3833   7.3833   7.4078   7.4079
     7.4270   7.4270   7.5281   7.5281   7.5471   7.5471   7.5541   7.5541
     7.6116   7.6116   7.6278   7.6278   7.6777   7.6777   7.7439   7.7439
     7.7795   7.7795   7.8406   7.8406   7.8934   7.8934   7.9514   7.9515
     8.0220   8.0221   8.0819   8.0819   8.0974   8.0974   8.1574   8.1574
     8.2404   8.2404   8.3379   8.3380   8.4177   8.4177   8.5738   8.5738
     8.6335   8.6335   8.8159   8.8159   8.8289   8.8289   8.8539   8.8539
     9.3322   9.3322   9.8927   9.8927  10.5093  10.5094  11.2255  11.2255
    11.9930  11.9930  12.8996  12.8997  13.9793  13.9793  14.8828  14.8828
    15.8738  15.8739  16.4521  16.4529  17.4246  17.4250  17.8173  17.8178
    19.1473  19.1474  19.3176  19.3177

          k =-0.5000 0.1443-0.0000 ( 23476 PWs)   bands (ev):

     3.2429   3.2519   3.3586   3.3597   3.5280   3.5316   3.7512   3.7548
     4.0153   4.0170   4.2978   4.3013   4.5807   4.5813   4.7983   4.8091
     4.9142   4.9183   5.0144   5.0208   5.1121   5.1224   5.2152   5.2269
     5.2663   5.2702   5.2951   5.3183   5.3664   5.3703   5.4792   5.4953
     5.5739   5.5810   5.6529   5.6556   5.6967   5.7169   5.7524   5.7612
     5.8350   5.8406   5.8598   5.8623   5.9303   5.9428   5.9563   5.9680
     6.0357   6.0548   6.0695   6.0720   6.1714   6.2050   6.2858   6.3140
     6.3952   6.4486   6.4564   6.4825   6.5053   6.5128   6.5504   6.5686
     6.5926   6.5986   6.6206   6.6293   6.6583   6.6645   6.6803   6.6830
     6.6975   6.7048   6.7205   6.7238   6.7624   6.7976   6.9185   6.9186
     6.9828   6.9884   7.0962   7.0998   7.1762   7.1831   7.2615   7.2995
     7.3583   7.3647   7.3676   7.3781   7.3893   7.3981   7.4154   7.4324
     7.4614   7.4912   7.5313   7.5595   7.5842   7.5861   7.6666   7.6968
     7.7015   7.7093   7.7577   7.7622   7.7694   7.8089   7.8467   7.8575
     7.8713   7.9064   7.9606   7.9796   8.0600   8.0756   8.0892   8.0954
     8.1154   8.1203   8.2022   8.2061   8.2216   8.2405   8.2827   8.2889
     8.3030   8.3044   8.3533   8.3672   8.4371   8.4421   8.5028   8.5178
     8.6410   8.6819   8.7123   8.7183   8.7284   8.7300   9.0152   9.0232
     9.4550   9.4901   9.9976  10.0378  10.6055  10.6546  11.3399  11.3667
    12.1004  12.1394  13.0159  13.0223  14.1915  14.2148  15.0007  15.0234
    15.9915  15.9961  16.5440  16.5583  17.5548  17.5838  17.8711  17.8840
    19.2009  19.2145  19.3874  19.4224

          k =-0.5000 0.2887-0.0000 ( 23540 PWs)   bands (ev):

     3.5900   3.6220   3.7073   3.7112   3.8417   3.8516   4.0332   4.0466
     4.2563   4.2660   4.5016   4.5207   4.7636   4.7843   5.0264   5.0289
     5.2190   5.2345   5.2603   5.3099   5.3208   5.3314   5.3540   5.3685
     5.3926   5.3959   5.4194   5.4241   5.4549   5.4725   5.4908   5.4930
     5.5171   5.5281   5.5361   5.5580   5.6017   5.6026   5.6554   5.6614
     5.7103   5.7206   5.7664   5.7874   5.8094   5.8137   5.8281   5.8561
     5.9496   6.0002   6.0337   6.0365   6.0725   6.0748   6.1129   6.1262
     6.1769   6.1804   6.2167   6.2231   6.2964   6.3057   6.3764   6.3770
     6.4376   6.4403   6.5056   6.5090   6.5317   6.5317   6.5784   6.5835
     6.5863   6.5872   6.6105   6.6765   6.9015   6.9345   6.9461   6.9837
     6.9972   7.0099   7.0348   7.0556   7.1607   7.1718   7.2001   7.2201
     7.2551   7.2748   7.3408   7.3443   7.4146   7.4778   7.5352   7.5463
     7.5977   7.6022   7.6370   7.6441   7.6804   7.7156   7.7672   7.7730
     7.8603   7.8620   7.9354   7.9615   8.0212   8.0229   8.0567   8.0688
     8.1290   8.1888   8.2233   8.2338   8.2456   8.2727   8.3557   8.3604
     8.3857   8.4008   8.4215   8.4405   8.4577   8.4649   8.4867   8.4937
     8.5059   8.5088   8.5351   8.5551   8.5967   8.5984   8.6227   8.6334
     8.6803   8.6821   8.6948   8.6984   8.8559   8.8620   9.2608   9.2885
     9.7367   9.7905  10.3008  10.3617  10.9140  10.9989  11.6748  11.7186
    12.4194  12.4933  13.3112  13.3296  14.7553  14.8126  15.3744  15.4135
    16.3215  16.3469  16.8389  16.8834  17.8896  17.9742  18.0519  18.0718
    19.2498  19.2827  19.3528  19.4416

          k =-0.5000 0.4330-0.0000 ( 23522 PWs)   bands (ev):

     3.9207   4.0111   4.0501   4.0622   4.1611   4.1850   4.2907   4.3330
     4.4277   4.4640   4.5661   4.6015   4.7162   4.7496   4.8580   4.8693
     4.9589   4.9881   5.0206   5.0416   5.0833   5.1109   5.1339   5.1497
     5.2007   5.2091   5.2749   5.3021   5.3245   5.3408   5.4410   5.4417
     5.4948   5.5113   5.5724   5.5799   5.5924   5.6502   5.7254   5.7279
     5.8219   5.8319   5.9194   5.9312   5.9807   6.0118   6.0348   6.0428
     6.0784   6.1189   6.1502   6.1552   6.2223   6.2283   6.2693   6.2766
     6.3302   6.3594   6.3737   6.3830   6.4548   6.4638   6.4859   6.4949
     6.5463   6.5635   6.6249   6.6584   6.7033   6.7051   6.7340   6.7506
     6.7688   6.8089   6.8561   6.8580   6.8623   6.9198   6.9377   6.9490
     7.0094   7.0361   7.1194   7.1229   7.2141   7.2338   7.3778   7.3817
     7.4274   7.4481   7.5143   7.5228   7.5433   7.5607   7.5924   7.6028
     7.6049   7.6150   7.7132   7.7217   7.8340   7.8391   7.8532   7.8573
     8.0060   8.0196   8.1020   8.1419   8.2079   8.2215   8.2704   8.2742
     8.3729   8.3735   8.4528   8.4591   8.4911   8.5002   8.5404   8.5466
     8.5758   8.5819   8.6207   8.6234   8.6401   8.6960   8.7681   8.7756
     8.7885   8.7895   8.8107   8.8390   8.8550   8.8675   8.8712   8.8723
     8.9292   8.9311   9.0049   9.0068   9.2022   9.2047   9.6132   9.6425
    10.1345  10.1929  10.7543  10.8171  11.3911  11.4964  12.1730  12.2234
    12.8911  12.9935  13.7253  13.7553  15.4054  15.5095  15.9152  15.9716
    16.7515  16.8045  17.2239  17.3497  17.5299  17.6272  17.6612  17.7188
    17.9373  17.9853  18.1351  18.1425

          k =-0.5000 0.5774-0.0000 ( 23534 PWs)   bands (ev):

     3.9907   4.0839   4.1267   4.1375   4.2653   4.3049   4.3677   4.4458
     4.4958   4.5047   4.5165   4.5171   4.5789   4.6112   4.6324   4.6462
     4.7201   4.7402   4.7585   4.7712   4.8213   4.8250   4.8636   4.8703
     4.9310   4.9425   5.0112   5.0342   5.0917   5.0934   5.2241   5.2282
     5.2403   5.2449   5.3185   5.3368   5.5072   5.5228   5.6422   5.6998
     5.8248   5.8538   6.0007   6.0133   6.1005   6.1351   6.2129   6.2838
     6.3204   6.3367   6.3691   6.3700   6.4232   6.4413   6.4819   6.4834
     6.5190   6.5201   6.5724   6.5742   6.6275   6.6283   6.7041   6.7172
     6.7641   6.7660   6.8361   6.8674   6.9449   6.9539   7.0396   7.0436
     7.0946   7.1008   7.1958   7.1974   7.2505   7.2704   7.3426   7.3622
     7.4298   7.4419   7.5649   7.5710   7.6462   7.6939   7.7092   7.7906
     7.8291   7.8470   7.8973   7.9072   7.9124   7.9310   8.0113   8.0247
     8.0751   8.1160   8.1794   8.1916   8.2111   8.2184   8.2221   8.2225
     8.2579   8.2649   8.2868   8.3163   8.4259   8.4363   8.4576   8.4615
     8.5402   8.5540   8.5824   8.5836   8.6002   8.6080   8.6715   8.6859
     8.7264   8.7383   8.7604   8.7772   8.7958   8.8464   8.9052   8.9074
     8.9230   8.9877   9.1335   9.1341   9.2220   9.2223   9.3147   9.3238
     9.3555   9.3816   9.4520   9.4657   9.6755   9.6930  10.1148  10.1224
    10.6827  10.7252  11.3699  11.4111  12.0392  12.1472  12.8328  12.8820
    13.5166  13.6477  14.2778  14.3046  15.2875  15.3086  15.3639  15.3966
    15.5526  15.5804  15.7407  15.7532  15.9454  16.0067  16.3880  16.4283
    16.8771  16.8823  17.1855  17.1964

          k =-0.5000 0.7217-0.0000 ( 23516 PWs)   bands (ev):

     3.9475   4.0257   4.0762   4.0861   4.2226   4.2227   4.2881   4.2937
     4.3548   4.3594   4.4052   4.4255   4.4926   4.4935   4.5476   4.5506
     4.5660   4.5823   4.6202   4.6225   4.6507   4.6614   4.6882   4.6890
     4.7441   4.7589   4.8234   4.8304   4.9366   4.9389   5.0383   5.0406
     5.0657   5.0666   5.1892   5.1987   5.4332   5.4460   5.6279   5.7095
     5.8490   5.9025   6.0223   6.0363   6.1099   6.1714   6.1977   6.2177
     6.3092   6.3186   6.3329   6.3444   6.4013   6.4160   6.4572   6.4573
     6.4810   6.4924   6.6679   6.6729   6.7415   6.7577   6.8148   6.8478
     6.8880   6.9223   7.0213   7.0368   7.1122   7.1169   7.2257   7.2506
     7.3407   7.3424   7.4681   7.5017   7.5766   7.5914   7.7021   7.7522
     7.8368   7.8687   7.8820   7.9377   8.0758   8.1004   8.1586   8.1691
     8.2580   8.2833   8.3971   8.4135   8.4452   8.4476   8.5108   8.5399
     8.5682   8.5691   8.5917   8.5944   8.6240   8.6339   8.6652   8.6715
     8.6947   8.6957   8.7086   8.7121   8.7305   8.7326   8.7449   8.7481
[...]
     5.1295   5.2105   5.2227   5.3032   5.3733   5.4778   5.5151   5.5187
     5.6126   5.6214   5.7102   5.7178   5.7906   5.8061   5.8710   5.9039
     5.9223   5.9248   5.9554   5.9839   5.9997   6.0511   6.0947   6.1062
     6.1170   6.1421   6.1759   6.2394   6.2856   6.3004   6.3505   6.3591
     6.4165   6.4322   6.4692   6.4850   6.5183   6.5612   6.5777   6.6177
     6.6194   6.6577   6.6869   6.7038   6.7078   6.7329   6.7699   6.7743
     6.8246   6.8282   6.8669   6.8755   6.9153   6.9320   6.9655   6.9807
     6.9884   7.0006   7.0194   7.0665   7.0871   7.1317   7.1431   7.1769
     7.1821   7.2287   7.2549   7.2956   7.3235   7.3371   7.3670   7.3689
     7.4489   7.4539   7.5102   7.5470   7.5655   7.6151   7.6251   7.6851
     7.6890   7.7584   7.7739   7.7743   7.8078   7.8503   7.8822   7.9064
     7.9530   7.9675   7.9812   8.0333   8.0997   8.1741   8.1745   8.1931
     8.2637   8.3841   8.3912   8.4641   8.6078   8.6142   8.6761   8.6854
     8.7602   8.7624   8.7956   8.8020   8.8300   8.8689   8.9230   8.9665
     8.9959   9.0041   9.4229   9.8139   9.8504   9.9049   9.9078   9.9996
    10.1751  10.4658  10.6288  10.8898  11.3278  11.4256  12.0404  12.2983
    12.6987  12.9112  13.3758  14.0400  14.3911  14.6510  15.3967  15.4855
    15.6736  15.8360  15.8598  16.0083  16.2010  16.5951  17.0222  17.0488
    17.2216  17.2669  17.5542  17.6211

          k =-0.2500 0.4330-0.0000 ( 23431 PWs)   bands (ev):

     3.0834   3.2263   3.3882   3.6395   3.9019   4.1958   4.4653   4.5949
     4.6456   4.7266   4.7419   4.8152   4.8264   4.8633   4.8854   4.9170
     4.9572   5.0131   5.0671   5.1015   5.1313   5.1507   5.2038   5.2384
     5.2465   5.2511   5.3141   5.4596   5.4809   5.4840   5.5148   5.5584
     5.5816   5.6259   5.6669   5.7034   5.7220   5.7903   5.8081   5.8520
     5.8687   5.9131   5.9219   5.9307   5.9814   5.9896   6.0086   6.0257
     6.0459   6.1042   6.1153   6.1573   6.1638   6.2319   6.2342   6.2780
     6.3591   6.3717   6.4125   6.4429   6.4994   6.5412   6.5718   6.5933
     6.6114   6.6159   6.6667   6.6757   6.7029   6.7208   6.7229   6.7559
     6.8354   6.8943   6.9005   6.9735   6.9828   6.9841   7.0239   7.0306
     7.0860   7.1013   7.1760   7.1815   7.1987   7.2396   7.2553   7.2897
     7.2926   7.3348   7.3665   7.3797   7.3955   7.4246   7.4706   7.4874
     7.5554   7.5702   7.5951   7.6047   7.6261   7.6571   7.6596   7.6849
     7.7065   7.7479   7.8020   7.8399   7.8659   7.8801   7.8865   7.9196
     7.9697   8.0172   8.0362   8.0567   8.0960   8.1578   8.1878   8.2413
     8.3775   8.4194   8.4312   8.5605   8.6336   8.7078   8.7555   8.7962
     8.8088   8.8230   8.8569   8.8667   8.8694   8.8933   8.9342   9.0318
     9.0399   9.2721   9.8590  10.4144  10.4204  10.4475  10.5504  10.7009
    10.9464  11.2037  11.2846  11.7232  11.9188  12.2429  12.8184  12.8994
    13.4297  13.9283  14.0208  14.5992  14.8968  14.9027  15.5920  15.7750
    15.8538  15.8883  15.9683  16.1525  16.2746  16.4555  16.4565  16.6324
    16.9886  17.1707  17.4515  17.5051

          k =-0.2500 0.5774-0.0000 ( 23466 PWs)   bands (ev):

     3.6441   3.7964   3.9148   4.1155   4.2685   4.4162   4.5468   4.5488
     4.6365   4.6436   4.7209   4.7269   4.7525   4.8407   4.8558   4.8669
     4.9051   4.9928   5.0102   5.0400   5.0542   5.1223   5.1396   5.1803
     5.1944   5.1953   5.2304   5.2643   5.2921   5.3493   5.3690   5.3930
     5.4430   5.4756   5.5311   5.5833   5.6450   5.6777   5.7568   5.8139
     5.8152   5.8449   5.9119   5.9280   5.9475   5.9820   6.0317   6.0651
     6.1394   6.1691   6.2370   6.2572   6.2976   6.3747   6.4160   6.4440
     6.4948   6.5057   6.5429   6.5791   6.6114   6.6133   6.6280   6.6421
     6.6717   6.6978   6.7488   6.7555   6.8265   6.8494   6.8711   6.9246
     6.9387   6.9568   6.9946   7.0152   7.0956   7.1166   7.1406   7.2204
     7.2233   7.2924   7.3371   7.3379   7.4664   7.4776   7.5132   7.5204
     7.5382   7.5398   7.6216   7.6302   7.6855   7.7221   7.7792   7.8275
     7.8325   7.8779   7.9127   7.9259   7.9613   7.9998   8.0022   8.0570
     8.0642   8.0807   8.0819   8.1135   8.1143   8.1433   8.1895   8.2142
     8.2539   8.3103   8.3310   8.3517   8.4053   8.4367   8.4579   8.4923
     8.5038   8.5378   8.5799   8.6370   8.6828   8.7059   8.7420   8.7489
     8.7950   8.8273   8.8583   8.8622   8.8666   8.8988   8.9914   9.0029
     9.2115   9.7753  10.4482  11.0684  11.0804  11.1310  11.2784  11.4701
    11.7582  11.8913  12.1217  12.5712  12.6037  13.0854  13.5059  13.6144
    13.7377  13.8638  14.0138  14.3122  14.4403  14.6996  14.9678  15.0264
    15.0995  15.4851  15.6658  15.6948  15.8931  16.2493  16.4224  16.5000
    16.7111  17.2172  17.2517  17.5199

          k =-0.2500 0.7217-0.0000 ( 23545 PWs)   bands (ev):

     3.9874   4.1375   4.2644   4.4204   4.4447   4.4470   4.5035   4.5167
     4.5290   4.5998   4.6127   4.6353   4.6870   4.7107   4.7202   4.7648
     4.8283   4.8568   4.8712   4.8860   4.9218   4.9296   4.9379   5.0113
     5.0251   5.0951   5.1019   5.1152   5.1538   5.2288   5.2418   5.2450
     5.3209   5.3227   5.4027   5.4730   5.5247   5.5863   5.6759   5.7118
     5.7945   5.8226   5.8422   5.9389   5.9900   6.0125   6.0294   6.1209
     6.1578   6.2603   6.2924   6.3085   6.3618   6.3951   6.4305   6.4879
     6.5256   6.5315   6.5766   6.5891   6.6037   6.6689   6.7048   6.7148
     6.7923   6.7924   6.8379   6.8685   6.9505   6.9745   7.0211   7.0259
     7.1091   7.1139   7.1708   7.2267   7.2576   7.2802   7.3322   7.3970
     7.4452   7.4920   7.5497   7.5890   7.6515   7.6547   7.7298   7.7834
     7.8560   7.8959   7.8971   7.9436   7.9476   7.9776   8.0244   8.0606
     8.0984   8.1675   8.1725   8.2056   8.2220   8.2586   8.2667   8.3059
     8.3187   8.3500   8.4287   8.4685   8.4828   8.5305   8.5450   8.5519
     8.5734   8.5884   8.6046   8.6407   8.6666   8.6709   8.6772   8.7350
     8.7568   8.7663   8.8331   8.8450   8.8984   8.9058   8.9136   8.9244
     8.9390   8.9481   9.1310   9.2266   9.3211   9.3861   9.4593   9.6848
    10.1135  10.6888  11.3840  11.9333  11.9886  12.0221  12.0478  12.0821
    12.1694  12.2446  12.3191  12.4866  12.6463  12.8406  12.9006  13.0687
    13.3532  13.4868  13.5195  13.8208  14.0574  14.2977  14.5093  14.7452
    15.0905  15.2879  15.3125  15.3887  15.5742  15.5788  15.7456  15.9393
    16.1264  16.1892  16.3864  16.6229

          k =-0.3750 0.1443-0.0000 ( 23495 PWs)   bands (ev):

     2.6146   2.7476   2.9526   3.2282   3.5560   3.7954   3.8994   3.9174
     4.0369   4.1979   4.2758   4.3476   4.4733   4.5607   4.6073   4.7094
     4.7444   4.7524   4.7747   4.8469   4.9428   4.9574   4.9587   5.0025
     5.0504   5.1091   5.1918   5.2686   5.3413   5.4117   5.4946   5.5260
     5.6084   5.6448   5.6778   5.7042   5.7590   5.8001   5.8278   5.8330
     5.8793   5.9151   5.9395   5.9906   6.0098   6.0352   6.0852   6.1028
     6.1487   6.1717   6.2008   6.2485   6.2839   6.2925   6.3824   6.4077
     6.4252   6.4407   6.4677   6.5123   6.5228   6.5352   6.5607   6.5813
     6.6195   6.6336   6.6600   6.6862   6.6920   6.6982   6.7182   6.7436
     6.7920   6.8045   6.8065   6.8564   6.9009   6.9444   6.9459   7.0000
     7.0512   7.0530   7.0736   7.0755   7.1226   7.1532   7.1773   7.2200
     7.2443   7.2894   7.3047   7.3228   7.3566   7.3786   7.3906   7.4045
     7.4355   7.4661   7.4894   7.4994   7.5746   7.5805   7.6109   7.6685
     7.7022   7.7243   7.7372   7.7684   7.7883   7.8190   7.8526   7.9241
     7.9381   7.9807   7.9863   8.0309   8.0699   8.1121   8.1636   8.1932
     8.2246   8.2532   8.2758   8.3010   8.3826   8.3864   8.4523   8.4790
     8.4850   8.5169   8.5388   8.5438   8.5816   8.6220   8.6622   8.6888
     8.6984   8.7107   8.7381   8.7753   8.7987   8.8058   8.9470   9.0913
     9.4126   9.5272   9.9818  10.0461  10.6197  10.7398  11.2971  11.4784
    12.0347  12.4186  12.7894  13.1174  13.5911  14.4565  15.1926  15.4758
    15.7716  15.9395  16.6178  17.1346  17.2818  17.3470  17.4447  17.6390
    17.8696  18.0351  18.2950  18.7471

          k =-0.3750 0.2887-0.0000 ( 23497 PWs)   bands (ev):

     2.9855   3.1218   3.3006   3.5614   3.8552   4.1629   4.1883   4.2651
     4.3447   4.4546   4.5194   4.5453   4.6535   4.7818   4.7903   4.8841
     4.9513   4.9642   5.0287   5.0996   5.1784   5.1850   5.1892   5.2312
     5.2964   5.3151   5.3565   5.4127   5.4287   5.5103   5.5162   5.5966
     5.6109   5.6416   5.6655   5.6812   5.6939   5.7270   5.7402   5.7430
     5.7843   5.8024   5.8575   5.8679   5.8736   5.9009   5.9424   5.9686
     5.9762   5.9813   6.0302   6.0955   6.1069   6.1696   6.2264   6.2607
     6.2687   6.3127   6.3198   6.3461   6.3727   6.4028   6.4421   6.4577
     6.5020   6.5142   6.5551   6.5576   6.5990   6.6094   6.6484   6.7032
     6.7135   6.7367   6.7387   6.7461   6.8107   6.8616   6.8814   6.9534
     6.9617   6.9921   7.0238   7.1248   7.1387   7.2132   7.2549   7.2744
     7.2813   7.3218   7.3518   7.3722   7.3765   7.4211   7.4342   7.4630
     7.5008   7.5014   7.5780   7.5829   7.6095   7.6317   7.6485   7.6570
     7.7199   7.7368   7.8041   7.8205   7.8781   7.9137   7.9137   7.9557
     7.9672   8.0445   8.0987   8.1206   8.1371   8.1549   8.1866   8.2318
     8.2612   8.3141   8.3970   8.4775   8.5069   8.5528   8.5994   8.6061
     8.6323   8.6681   8.6740   8.7024   8.7034   8.7215   8.8319   8.8432
     8.9187   9.0613   9.0941   9.1182   9.1619   9.2686   9.3015   9.4965
     9.8006   9.9164  10.3488  10.4534  11.0658  11.0956  11.7276  11.8305
    12.4462  12.8003  13.1874  13.7548  13.9142  14.7746  15.7646  15.7919
    16.1839  16.2864  16.9419  17.3892  17.4428  17.5089  17.6020  17.7511
    18.0198  18.1309  18.3258  18.6916

          k =-0.3750 0.4330-0.0000 ( 23475 PWs)   bands (ev):

     3.4534   3.5981   3.7296   3.9496   4.1555   4.3849   4.4628   4.4944
     4.5480   4.5910   4.6484   4.7107   4.7190   4.7346   4.8090   4.8268
     4.9425   4.9468   5.0375   5.0727   5.1088   5.1572   5.1726   5.2233
     5.2407   5.2691   5.2945   5.2974   5.3268   5.3600   5.4209   5.4699
     5.5094   5.5863   5.5888   5.6170   5.6978   5.6995   5.7125   5.8135
     5.8167   5.8906   5.9211   5.9383   5.9726   6.0148   6.0294   6.0666
     6.1083   6.1338   6.1693   6.1809   6.2237   6.2410   6.2772   6.2906
     6.3040   6.3424   6.3681   6.3951   6.4071   6.4546   6.4797   6.5051
     6.5927   6.6176   6.6393   6.6502   6.6783   6.6896   6.7228   6.7794
     6.8669   6.8728   6.8784   6.8932   6.9017   6.9342   6.9756   6.9969
     7.0098   7.0905   7.1272   7.1435   7.2007   7.2324   7.2927   7.3377
     7.4032   7.4089   7.4679   7.5012   7.5018   7.5395   7.5630   7.6095
     7.6344   7.6731   7.6761   7.7014   7.7213   7.7755   7.8025   7.8714
     7.9087   7.9254   7.9311   7.9721   7.9860   8.0273   8.0970   8.1007
     8.1381   8.1750   8.2086   8.2502   8.2817   8.3305   8.3392   8.3691
     8.4069   8.4238   8.4919   8.5865   8.6192   8.6743   8.7033   8.7532
     8.7739   8.7815   8.7992   8.8145   8.8295   8.8562   8.9517   8.9626
     9.0864   9.5671   9.5765   9.5908   9.6232   9.7013   9.8587  10.1316
    10.1871  10.5474  10.7941  11.0759  11.5880  11.6827  12.3127  12.3451
    13.0394  13.2542  13.7615  14.3768  14.5795  15.3390  16.2267  16.2982
    16.3916  16.6382  16.7107  16.8934  16.9488  17.0896  17.3755  17.5338
    17.7225  17.7567  17.9810  18.1622

          k =-0.3750 0.5774-0.0000 ( 23521 PWs)   bands (ev):

     3.7746   3.9296   4.0514   4.2478   4.3474   4.3630   4.3810   4.4179
     4.4664   4.4904   4.5527   4.5808   4.6439   4.6550   4.7006   4.7753
     4.7846   4.8054   4.8606   4.8707   4.8960   4.9341   4.9381   4.9834
     5.0081   5.0242   5.0564   5.0984   5.1426   5.1786   5.2016   5.2275
     5.3121   5.3674   5.3706   5.4202   5.5345   5.5679   5.6394   5.7754
     5.7864   5.9181   5.9328   6.0428   6.0984   6.1154   6.1585   6.1638
     6.2239   6.2817   6.3083   6.3726   6.3900   6.4526   6.4785   6.5236
     6.5434   6.5460   6.5689   6.5737   6.6188   6.6247   6.6826   6.7224
     6.7649   6.7690   6.8141   6.8787   6.9054   6.9110   6.9608   7.0091
     7.0109   7.0880   7.1015   7.1314   7.1722   7.2243   7.2897   7.3388
     7.3849   7.4470   7.4508   7.5111   7.5667   7.6403   7.6895   7.7310
     7.7411   7.7761   7.8212   7.8684   7.9309   7.9530   7.9780   8.0237
     8.0247   8.0835   8.0879   8.1143   8.1443   8.1589   8.1973   8.2105
     8.2435   8.2466   8.2575   8.2764   8.3037   8.3199   8.3293   8.3368
     8.3690   8.3854   8.4213   8.4399   8.4725   8.4967   8.5363   8.5652
     8.5817   8.6306   8.6456   8.6849   8.7194   8.7569   8.7661   8.8044
     8.8561   8.8667   8.8694   8.8960   8.9176   8.9384   9.0230   9.0338
     9.3907  10.0174  10.0820  10.1291  10.2280  10.3298  10.5253  10.7391
    10.8205  11.2469  11.4091  11.7865  12.2304  12.4081  12.9379  13.0927
    13.7406  13.8030  14.2739  14.5008  14.6394  14.8071  14.9918  15.2231
    15.2450  15.5683  15.7755  15.8852  16.2121  16.3886  16.5407  16.6981
    16.7029  16.9411  17.2154  17.2260

          k =-0.3750 0.7217-0.0000 ( 23544 PWs)   bands (ev):

     3.9050   4.0504   4.1807   4.1846   4.2269   4.3180   4.3203   4.3731
     4.4020   4.4174   4.4736   4.4882   4.5334   4.5335   4.5690   4.6296
     4.6413   4.6496   4.6807   4.6983   4.7021   4.7236   4.7801   4.8078
     4.8293   4.8577   4.8661   4.9484   4.9777   4.9939   5.0580   5.0818
     5.1621   5.1986   5.2232   5.2555   5.4584   5.4738   5.6297   5.7272
     5.8344   5.8886   5.9563   6.0651   6.0799   6.1171   6.1541   6.2037
     6.2346   6.3251   6.3542   6.3675   6.4046   6.4227   6.4646   6.4648
     6.5098   6.5136   6.5798   6.6829   6.6951   6.7407   6.7521   6.7774
     6.8511   6.8733   6.9411   7.0050   7.0834   7.0916   7.1659   7.2064
     7.2770   7.3006   7.4263   7.4401   7.4824   7.5346   7.6198   7.6428
     7.7114   7.8041   7.8179   7.8672   7.9366   7.9701   8.0268   8.0765
     8.1023   8.2190   8.2525   8.3124   8.3127   8.3496   8.3664   8.3785
     8.4729   8.4802   8.5136   8.5208   8.5438   8.5458   8.5677   8.5842
     8.5845   8.5892   8.6092   8.6237   8.6474   8.6623   8.6636   8.6953
     8.6985   8.7104   8.7295   8.7303   8.7468   8.7560   8.7731   8.8028
     8.8304   8.8684   8.8816   8.8912   8.9193   8.9572   8.9641   8.9881
     9.0200   9.0358   9.0426   9.1561   9.3705   9.5116   9.5822   9.7570
    10.2075  10.7913  10.8340  10.8631  11.0658  11.1787  11.3656  11.5859
    11.5890  11.8920  12.2458  12.2838  12.5210  12.7053  12.8100  13.0120
    13.0621  13.0968  13.7232  13.7481  13.8822  14.2749  14.3223  14.4021
    14.4436  14.5447  14.7256  14.9103  14.9142  15.0939  15.2624  15.4494
    15.5419  15.8375  16.0208  16.2941

     the Fermi energy is    10.7310 ev

!    total energy              =  -20153.50995155 Ry

     total all-electron energy =   -988623.508319 Ry
     estimated scf accuracy    <       0.00000084 Ry
     smearing contrib. (-TS)   =      -0.02238045 Ry
     internal energy E=F+TS    =  -20153.48757110 Ry

     The total energy is F=E-TS. E is the sum of the following terms:
     one-electron contribution =   -8804.61240669 Ry
     hartree contribution      =    4727.80152780 Ry
     xc contribution           =    -833.61314973 Ry
     ewald contribution        =    2762.27733688 Ry
     one-center paw contrib.   =  -18005.34087936 Ry

     convergence has been achieved in  30 iterations

     negative rho (up, down):  2.290E-03 0.000E+00

     Forces acting on atoms (cartesian axes, Ry/au):

     atom    1 type  1   force =    -0.00005633   -0.00001432   -0.00311780
     atom    2 type  1   force =     0.00003598   -0.00000886    0.00313114
     atom    3 type  1   force =     0.00007346   -0.00001494    0.00082125
     atom    4 type  1   force =     0.01086820    0.01146058   -0.02438001
     atom    5 type  1   force =    -0.00003891   -0.00000829   -0.00051571
     atom    6 type  1   force =     0.00009810   -0.00000557    0.00440580
     atom    7 type  1   force =    -0.00004113   -0.00004605    0.00094386
     atom    8 type  1   force =    -0.01082804   -0.01150119    0.02512871
     atom    9 type  1   force =    -0.00000356    0.00000123   -0.00001717
     atom   10 type  1   force =     0.00003057   -0.00000486   -0.00157546
     atom   11 type  1   force =    -0.00010798   -0.00000537   -0.00527715
     atom   12 type  1   force =    -0.00012710    0.00092299    0.00134305
     atom   13 type  1   force =     0.00008628   -0.00095057   -0.00090120
     atom   14 type  1   force =     0.00010136   -0.00001094    0.00440305
     atom   15 type  1   force =    -0.00003341    0.00001303    0.00095590
     atom   16 type  1   force =    -0.01083046   -0.01144334    0.02512921
     atom   17 type  1   force =    -0.00000064   -0.00000089   -0.00001650
     atom   18 type  1   force =     0.00002952   -0.00001093   -0.00158009
     atom   19 type  1   force =    -0.00011193    0.00005400   -0.00528419
     atom   20 type  1   force =    -0.00012360    0.00098395    0.00133981
     atom   21 type  1   force =     0.00008897   -0.00094868   -0.00090032
     atom   22 type  1   force =    -0.00005503   -0.00001880   -0.00310845
     atom   23 type  1   force =     0.00004780    0.00005611    0.00313311
     atom   24 type  1   force =     0.00007087    0.00004738    0.00082809
     atom   25 type  1   force =     0.01086784    0.01145805   -0.02437984
     atom   26 type  1   force =    -0.00004083   -0.00000375   -0.00050911

     Total force =     0.059996     Total SCF correction =     0.005333

     Writing all to output data dir ./pwscf.save/
 
     init_run     :     27.33s CPU     27.87s WALL (       1 calls)
     electrons    :   2020.70s CPU   2041.97s WALL (       1 calls)
     forces       :      8.52s CPU      8.61s WALL (       1 calls)

     Called by init_run:
     wfcinit      :     26.57s CPU     27.03s WALL (       1 calls)
     potinit      :      0.44s CPU      0.50s WALL (       1 calls)
     hinit0       :      0.22s CPU      0.24s WALL (       1 calls)

     Called by electrons:
     c_bands      :   1828.54s CPU   1847.23s WALL (      31 calls)
     sum_band     :    182.95s CPU    184.47s WALL (      31 calls)
     v_of_rho     :      0.63s CPU      1.03s WALL (      31 calls)
     newd         :      1.67s CPU      1.84s WALL (      31 calls)
     PAW_pot      :      7.10s CPU      7.14s WALL (      31 calls)
     mix_rho      :      0.11s CPU      0.12s WALL (      31 calls)

     Called by c_bands:
     init_us_2    :      5.00s CPU      5.09s WALL (    3200 calls)
     init_us_2:cp :      4.99s CPU      5.08s WALL (    3200 calls)
     cegterg      :   1757.88s CPU   1775.72s WALL (    1550 calls)

     Called by *egterg:
     cdiaghg      :    198.93s CPU    201.85s WALL (    8549 calls)
     h_psi        :   1034.63s CPU   1043.59s WALL (    8649 calls)
     s_psi        :    114.25s CPU    114.94s WALL (    8649 calls)
     g_psi        :      2.26s CPU      2.28s WALL (    7049 calls)

     Called by h_psi:
     h_psi:calbec :    143.84s CPU    144.50s WALL (    8649 calls)
     vloc_psi     :    770.52s CPU    776.18s WALL (    8649 calls)
     add_vuspsi   :    118.84s CPU    119.33s WALL (    8649 calls)

     General routines
     calbec       :    205.82s CPU    206.77s WALL (   10399 calls)
     fft          :      0.79s CPU      1.27s WALL (     353 calls)
     ffts         :      0.04s CPU      0.05s WALL (      31 calls)
     fftw         :    861.40s CPU    867.64s WALL ( 1570426 calls)
 
     Parallel routines
 
     PWSCF        :  34m24.91s CPU  35m 0.37s WALL

 
   This run was terminated on:  22:44: 0  15Feb2024            

=------------------------------------------------------------------------------=
   JOB DONE.
=------------------------------------------------------------------------------=
