MPI startup(): Warning: I_MPI_PMI_LIBRARY will be ignored since the hydra process manager was found
MPI startup(): Warning: I_MPI_PMI_LIBRARY will be ignored since the hydra process manager was found
MPI startup(): Warning: I_MPI_PMI_LIBRARY will be ignored since the hydra process manager was found
MPI startup(): Warning: I_MPI_PMI_LIBRARY will be ignored since the hydra process manager was found
MPI startup(): Warning: I_MPI_PMI_LIBRARY will be ignored since the hydra process manager was found
MPI startup(): Warning: I_MPI_PMI_LIBRARY will be ignored since the hydra process manager was found
MPI startup(): Warning: I_MPI_PMI_LIBRARY will be ignored since the hydra process manager was found
MPI startup(): Warning: I_MPI_PMI_LIBRARY will be ignored since the hydra process manager was found
MPI startup(): Warning: I_MPI_PMI_LIBRARY will be ignored since the hydra process manager was found
MPI startup(): Warning: I_MPI_PMI_LIBRARY will be ignored since the hydra process manager was found

     Program PWSCF v.7.0 starts on 16Feb2024 at  9:39:46 

     This program is part of the open-source Quantum ESPRESSO suite
     for quantum simulation of materials; please cite
         "P. Giannozzi et al., J. Phys.:Condens. Matter 21 395502 (2009);
         "P. Giannozzi et al., J. Phys.:Condens. Matter 29 465901 (2017);
         "P. Giannozzi et al., J. Chem. Phys. 152 154105 (2020);
          URL http://www.quantum-espresso.org", 
     in publications or presentations arising from this work. More details at
     http://www.quantum-espresso.org/quote

     Parallel version (MPI), running on    10 processors

     MPI processes distributed on     1 nodes
     R & G space division:  proc/nbgrp/npool/nimage =      10
     107593 MiB available memory on the printing compute node when the environment starts
 
     Reading input from GSF111R_0.05.in
Warning: card &CELL ignored
Warning: card / ignored

     Current dimensions of program PWSCF are:
     Max number of different atomic species (ntypx) = 10
     Max number of k-points (npk) =  40000
     Max angular momentum in pseudopotentials (lmaxx) =  4
     file Au.pbe-n-kjpaw_psl.1.0.0.UPF: wavefunction(s)  6S 5D renormalized
     Found identity + ( -0.5000  0.5000  0.0000) symmetry
     This is a supercell, fractional translations are disabled

     Subspace diagonalization in iterative solution of the eigenvalue problem:
     one sub-group per band group will be used
     scalapack distributed-memory algorithm (size of sub-group:  3*  3 procs)

 
     Parallelization info
     --------------------
     sticks:   dense  smooth     PW     G-vecs:    dense   smooth      PW
     Min          85      85     25                18799    18799    3045
     Max          87      87     26                18816    18816    3065
     Sum         859     859    251               188065   188065   30575
 
     Using Slab Decomposition
 


     bravais-lattice index     =            0
     lattice parameter (alat)  =       9.6360  a.u.
     unit-cell volume          =    3935.2145 (a.u.)^3
     number of atoms/cell      =           26
     number of atomic types    =            1
     number of electrons       =       286.00
     number of Kohn-Sham states=          172
     kinetic-energy cutoff     =      50.0000  Ry
     charge density cutoff     =     200.0000  Ry
     scf convergence threshold =      1.0E-06
     mixing beta               =       0.0800
     number of iterations used =            8  plain     mixing
     energy convergence thresh.=      1.0E-04
     force convergence thresh. =      1.0E-03
     Exchange-correlation= SLA  PW   PBX  PBC
                           (   1   4   3   4   0   0   0)
     nstep                     =           50


     celldm(1)=   9.635999  celldm(2)=   0.000000  celldm(3)=   0.000000
     celldm(4)=   0.000000  celldm(5)=   0.000000  celldm(6)=   0.000000

     crystal axes: (cart. coord. in units of alat)
               a(1) = (   1.000000   0.000000   0.000000 )  
               a(2) = (   0.000000   0.577350   0.000000 )  
               a(3) = (  -0.000005   0.000000   7.617966 )  

     reciprocal axes: (cart. coord. in units 2 pi/alat)
               b(1) = (  1.000000  0.000000  0.000001 )  
               b(2) = (  0.000000  1.732052  0.000000 )  
               b(3) = (  0.000000  0.000000  0.131269 )  


     PseudoPot. # 1 for Au read from file:
     ./Au.pbe-n-kjpaw_psl.1.0.0.UPF
     MD5 check sum: 4db85c736373c707a97ce4c36c2a9d23
     Pseudo is Projector augmented-wave + core cor, Zval = 11.0
     Generated using &quot;atomic&quot; code by A. Dal Corso  v.6.3
     Shape of augmentation charge: PSQ
     Using radial grid of 1279 points,  6 beta functions with: 
                l(1) =   0
                l(2) =   0
                l(3) =   1
                l(4) =   1
                l(5) =   2
                l(6) =   2
     Q(r) pseudized with 0 coefficients 


     atomic species   valence    mass     pseudopotential
        Au            11.00   196.96657     Au( 1.00)

     No symmetry found



   Cartesian axes

     site n.     atom                  positions (alat units)
         1           Au  tau(   1) = (   0.0000000   0.0000000   0.0000000  )
         2           Au  tau(   2) = (   0.9999954   0.0288675   5.6568550  )
         3           Au  tau(   3) = (   0.9999966   0.0288675   4.2426411  )
         4           Au  tau(   4) = (   0.9999976   0.0000000   2.8284275  )
         5           Au  tau(   5) = (   0.9999988   0.0000000   1.4142138  )
         6           Au  tau(   6) = (   0.3333329   0.0000000   0.4714045  )
         7           Au  tau(   7) = (   0.3333296   0.0288675   4.7140455  )
         8           Au  tau(   8) = (   0.3333308   0.0288675   3.2998319  )
         9           Au  tau(   9) = (   0.3333318   0.0000000   1.8856185  )
        10           Au  tau(  10) = (   0.6666659   0.0000000   0.9428093  )
        11           Au  tau(  11) = (   0.6666625   0.0288675   5.1854506  )
        12           Au  tau(  12) = (   0.6666637   0.0288675   3.7712367  )
        13           Au  tau(  13) = (   0.6666649   0.0000000   2.3570234  )
        14           Au  tau(  14) = (   0.8333330   0.2886749   0.4714045  )
        15           Au  tau(  15) = (   0.8333294   0.3175425   4.7140455  )
        16           Au  tau(  16) = (   0.8333306   0.3175425   3.2998319  )
        17           Au  tau(  17) = (   0.8333318   0.2886749   1.8856185  )
        18           Au  tau(  18) = (   0.1666658   0.2886749   0.9428093  )
        19           Au  tau(  19) = (   0.1666624   0.3175425   5.1854506  )
        20           Au  tau(  20) = (   0.1666636   0.3175425   3.7712367  )
        21           Au  tau(  21) = (   0.1666648   0.2886749   2.3570234  )
        22           Au  tau(  22) = (   0.5000001   0.2886749   0.0000000  )
        23           Au  tau(  23) = (   0.4999955   0.3175425   5.6568550  )
        24           Au  tau(  24) = (   0.4999965   0.3175425   4.2426411  )
        25           Au  tau(  25) = (   0.4999977   0.2886749   2.8284275  )
        26           Au  tau(  26) = (   0.4999989   0.2886749   1.4142138  )

     number of k points=    50  Gaussian smearing, width (Ry)=  0.0020
                       cart. coord. in units 2pi/alat
        k(    1) = (   0.0000000   0.0000000   0.0000000), wk =   0.0208333
        k(    2) = (   0.0000000   0.1443376   0.0000000), wk =   0.0416667
        k(    3) = (   0.0000000   0.2886753   0.0000000), wk =   0.0416667
        k(    4) = (   0.0000000   0.4330129   0.0000000), wk =   0.0416667
        k(    5) = (   0.0000000   0.5773506   0.0000000), wk =   0.0416667
        k(    6) = (   0.0000000   0.7216882   0.0000000), wk =   0.0416667
        k(    7) = (   0.0000000  -0.8660259   0.0000000), wk =   0.0208333
        k(    8) = (   0.1250000   0.0000000   0.0000001), wk =   0.0416667
        k(    9) = (   0.1250000   0.1443376   0.0000001), wk =   0.0416667
        k(   10) = (   0.1250000   0.2886753   0.0000001), wk =   0.0416667
        k(   11) = (   0.1250000   0.4330129   0.0000001), wk =   0.0416667
        k(   12) = (   0.1250000   0.5773506   0.0000001), wk =   0.0416667
        k(   13) = (   0.1250000   0.7216882   0.0000001), wk =   0.0416667
        k(   14) = (   0.1250000  -0.8660259   0.0000001), wk =   0.0416667
        k(   15) = (   0.1250000  -0.7216882   0.0000001), wk =   0.0416667
        k(   16) = (   0.1250000  -0.5773506   0.0000001), wk =   0.0416667
        k(   17) = (   0.1250000  -0.4330129   0.0000001), wk =   0.0416667
        k(   18) = (   0.1250000  -0.2886753   0.0000001), wk =   0.0416667
        k(   19) = (   0.1250000  -0.1443376   0.0000001), wk =   0.0416667
        k(   20) = (   0.2500000   0.0000000   0.0000002), wk =   0.0416667
        k(   21) = (   0.2500000   0.1443376   0.0000002), wk =   0.0416667
        k(   22) = (   0.2500000   0.2886753   0.0000002), wk =   0.0416667
        k(   23) = (   0.2500000   0.4330129   0.0000002), wk =   0.0416667
        k(   24) = (   0.2500000   0.5773506   0.0000002), wk =   0.0416667
        k(   25) = (   0.2500000   0.7216882   0.0000002), wk =   0.0416667
        k(   26) = (   0.2500000  -0.8660259   0.0000002), wk =   0.0416667
        k(   27) = (   0.2500000  -0.7216882   0.0000002), wk =   0.0416667
        k(   28) = (   0.2500000  -0.5773506   0.0000002), wk =   0.0416667
        k(   29) = (   0.2500000  -0.4330129   0.0000002), wk =   0.0416667
        k(   30) = (   0.2500000  -0.2886753   0.0000002), wk =   0.0416667
        k(   31) = (   0.2500000  -0.1443376   0.0000002), wk =   0.0416667
        k(   32) = (   0.3750000   0.0000000   0.0000002), wk =   0.0416667
        k(   33) = (   0.3750000   0.1443376   0.0000002), wk =   0.0416667
        k(   34) = (   0.3750000   0.2886753   0.0000002), wk =   0.0416667
        k(   35) = (   0.3750000   0.4330129   0.0000002), wk =   0.0416667
        k(   36) = (   0.3750000   0.5773506   0.0000002), wk =   0.0416667
        k(   37) = (   0.3750000   0.7216882   0.0000002), wk =   0.0416667
        k(   38) = (   0.3750000  -0.8660259   0.0000002), wk =   0.0416667
        k(   39) = (   0.3750000  -0.7216882   0.0000002), wk =   0.0416667
        k(   40) = (   0.3750000  -0.5773506   0.0000002), wk =   0.0416667
        k(   41) = (   0.3750000  -0.4330129   0.0000002), wk =   0.0416667
        k(   42) = (   0.3750000  -0.2886753   0.0000002), wk =   0.0416667
        k(   43) = (   0.3750000  -0.1443376   0.0000002), wk =   0.0416667
        k(   44) = (  -0.5000000   0.0000000  -0.0000003), wk =   0.0208333
        k(   45) = (  -0.5000000   0.1443376  -0.0000003), wk =   0.0416667
        k(   46) = (  -0.5000000   0.2886753  -0.0000003), wk =   0.0416667
        k(   47) = (  -0.5000000   0.4330129  -0.0000003), wk =   0.0416667
        k(   48) = (  -0.5000000   0.5773506  -0.0000003), wk =   0.0416667
        k(   49) = (  -0.5000000   0.7216882  -0.0000003), wk =   0.0416667
        k(   50) = (  -0.5000000  -0.8660259  -0.0000003), wk =   0.0208333

     Dense  grid:   188065 G-vectors     FFT dimensions: (  45,  25, 360)

     Estimated max dynamical RAM per process >     418.32 MB

     Estimated total dynamical RAM >       4.09 GB

     Initial potential from superposition of free atoms

     starting charge     285.9971, renormalised to     286.0000

     negative rho (up, down):  2.612E-03 0.000E+00
     Starting wfcs are  234 randomized atomic wfcs
     Checking if some PAW data can be deallocated... 

     total cpu time spent up to now is       30.4 secs

     Self-consistent Calculation

     iteration #  1     ecut=    50.00 Ry     beta= 0.08
     Davidson diagonalization with overlap
     ethr =  1.00E-02,  avg # of iterations =  4.9

     Threshold (ethr) on eigenvalues was too large:
     Diagonalizing with lowered threshold

     Davidson diagonalization with overlap
     ethr =  3.96E-04,  avg # of iterations =  4.5

     negative rho (up, down):  2.500E-03 0.000E+00

     total cpu time spent up to now is      200.9 secs

     total energy              =  -20153.70904856 Ry
     estimated scf accuracy    <       1.44962143 Ry

     iteration #  2     ecut=    50.00 Ry     beta= 0.08
     Davidson diagonalization with overlap
     ethr =  5.07E-04,  avg # of iterations =  3.3

     negative rho (up, down):  2.498E-03 0.000E+00

     total cpu time spent up to now is      265.8 secs

     total energy              =  -20153.65605130 Ry
     estimated scf accuracy    <       7.89658120 Ry

     iteration #  3     ecut=    50.00 Ry     beta= 0.08
     Davidson diagonalization with overlap
     ethr =  5.07E-04,  avg # of iterations =  1.2

     negative rho (up, down):  2.414E-03 0.000E+00

     total cpu time spent up to now is      319.8 secs

     total energy              =  -20153.59024546 Ry
     estimated scf accuracy    <       1.03349818 Ry

     iteration #  4     ecut=    50.00 Ry     beta= 0.08
     Davidson diagonalization with overlap
     ethr =  3.61E-04,  avg # of iterations =  1.0

     negative rho (up, down):  2.279E-03 0.000E+00

     total cpu time spent up to now is      373.1 secs

     total energy              =  -20153.39210725 Ry
     estimated scf accuracy    <       0.66426522 Ry

     iteration #  5     ecut=    50.00 Ry     beta= 0.08
     Davidson diagonalization with overlap
     ethr =  2.32E-04,  avg # of iterations =  7.3

     negative rho (up, down):  2.231E-03 0.000E+00

     total cpu time spent up to now is      447.2 secs

     total energy              =  -20153.37996394 Ry
     estimated scf accuracy    <       9.45082626 Ry

     iteration #  6     ecut=    50.00 Ry     beta= 0.08
     Davidson diagonalization with overlap
     ethr =  2.32E-04,  avg # of iterations =  2.1

     negative rho (up, down):  2.275E-03 0.000E+00

     total cpu time spent up to now is      506.7 secs

     total energy              =  -20153.48883307 Ry
     estimated scf accuracy    <       0.04244996 Ry

     iteration #  7     ecut=    50.00 Ry     beta= 0.08
     Davidson diagonalization with overlap
     c_bands:  1 eigenvalues not converged
     c_bands:  3 eigenvalues not converged
     c_bands:  1 eigenvalues not converged
     c_bands:  1 eigenvalues not converged
     c_bands:  1 eigenvalues not converged
     c_bands:  1 eigenvalues not converged
     c_bands:  1 eigenvalues not converged
     c_bands:  2 eigenvalues not converged
     c_bands:  1 eigenvalues not converged
     c_bands:  1 eigenvalues not converged
     c_bands:  2 eigenvalues not converged
     c_bands:  1 eigenvalues not converged
     c_bands:  2 eigenvalues not converged
     c_bands:  1 eigenvalues not converged
     ethr =  1.48E-05,  avg # of iterations = 16.2

     negative rho (up, down):  2.289E-03 0.000E+00

     total cpu time spent up to now is      661.5 secs

     total energy              =  -20153.51531176 Ry
     estimated scf accuracy    <       0.02889204 Ry

     iteration #  8     ecut=    50.00 Ry     beta= 0.08
     Davidson diagonalization with overlap
     ethr =  1.01E-05,  avg # of iterations =  3.0

     negative rho (up, down):  2.278E-03 0.000E+00

     total cpu time spent up to now is      726.4 secs

     total energy              =  -20153.51783803 Ry
     estimated scf accuracy    <       0.02326970 Ry

     iteration #  9     ecut=    50.00 Ry     beta= 0.08
     Davidson diagonalization with overlap
     ethr =  8.14E-06,  avg # of iterations =  1.3

     negative rho (up, down):  2.410E-03 0.000E+00

     total cpu time spent up to now is      780.6 secs

     total energy              =  -20153.51736711 Ry
     estimated scf accuracy    <       0.02705916 Ry

     iteration # 10     ecut=    50.00 Ry     beta= 0.08
     Davidson diagonalization with overlap
     ethr =  8.14E-06,  avg # of iterations =  4.3

     negative rho (up, down):  2.416E-03 0.000E+00

     total cpu time spent up to now is      846.2 secs

     total energy              =  -20153.51617153 Ry
     estimated scf accuracy    <       0.01279582 Ry

     iteration # 11     ecut=    50.00 Ry     beta= 0.08
     Davidson diagonalization with overlap
     ethr =  4.47E-06,  avg # of iterations =  1.2

     negative rho (up, down):  2.441E-03 0.000E+00

     total cpu time spent up to now is      901.9 secs

     total energy              =  -20153.51437749 Ry
     estimated scf accuracy    <       0.00750151 Ry

     iteration # 12     ecut=    50.00 Ry     beta= 0.08
     Davidson diagonalization with overlap
     ethr =  2.62E-06,  avg # of iterations =  2.6

     negative rho (up, down):  2.477E-03 0.000E+00

     total cpu time spent up to now is      964.0 secs

     total energy              =  -20153.51292348 Ry
     estimated scf accuracy    <       0.00297947 Ry

     iteration # 13     ecut=    50.00 Ry     beta= 0.08
     Davidson diagonalization with overlap
     c_bands:  1 eigenvalues not converged
     ethr =  1.04E-06,  avg # of iterations =  3.6

     negative rho (up, down):  2.468E-03 0.000E+00

     total cpu time spent up to now is     1048.6 secs

     total energy              =  -20153.51399031 Ry
     estimated scf accuracy    <       0.00035037 Ry

     iteration # 14     ecut=    50.00 Ry     beta= 0.08
     Davidson diagonalization with overlap
     ethr =  1.23E-07,  avg # of iterations =  4.0

     negative rho (up, down):  2.466E-03 0.000E+00

     total cpu time spent up to now is     1137.9 secs

     total energy              =  -20153.51412727 Ry
     estimated scf accuracy    <       0.00005398 Ry

     iteration # 15     ecut=    50.00 Ry     beta= 0.08
     Davidson diagonalization with overlap
     ethr =  1.89E-08,  avg # of iterations =  5.6

     negative rho (up, down):  2.467E-03 0.000E+00

     total cpu time spent up to now is     1257.9 secs

     total energy              =  -20153.51415676 Ry
     estimated scf accuracy    <       0.00007053 Ry

     iteration # 16     ecut=    50.00 Ry     beta= 0.08
     Davidson diagonalization with overlap
     ethr =  1.89E-08,  avg # of iterations =  1.0

     negative rho (up, down):  2.466E-03 0.000E+00

     total cpu time spent up to now is     1311.5 secs

     total energy              =  -20153.51415603 Ry
     estimated scf accuracy    <       0.00002554 Ry

     iteration # 17     ecut=    50.00 Ry     beta= 0.08
     Davidson diagonalization with overlap
     ethr =  8.93E-09,  avg # of iterations =  1.9

     negative rho (up, down):  2.468E-03 0.000E+00

     total cpu time spent up to now is     1373.7 secs

     total energy              =  -20153.51416120 Ry
     estimated scf accuracy    <       0.00001094 Ry

     iteration # 18     ecut=    50.00 Ry     beta= 0.08
     Davidson diagonalization with overlap
     ethr =  3.82E-09,  avg # of iterations =  4.4

     negative rho (up, down):  2.470E-03 0.000E+00

     total cpu time spent up to now is     1468.9 secs

     total energy              =  -20153.51416109 Ry
     estimated scf accuracy    <       0.00001096 Ry

     iteration # 19     ecut=    50.00 Ry     beta= 0.08
     Davidson diagonalization with overlap
     ethr =  3.82E-09,  avg # of iterations =  2.0

     negative rho (up, down):  2.471E-03 0.000E+00

     total cpu time spent up to now is     1540.3 secs

     total energy              =  -20153.51416380 Ry
     estimated scf accuracy    <       0.00000210 Ry

     iteration # 20     ecut=    50.00 Ry     beta= 0.08
     Davidson diagonalization with overlap
     ethr =  7.35E-10,  avg # of iterations =  2.3

     negative rho (up, down):  2.471E-03 0.000E+00

     total cpu time spent up to now is     1613.1 secs

     total energy              =  -20153.51416435 Ry
     estimated scf accuracy    <       0.00000155 Ry

     iteration # 21     ecut=    50.00 Ry     beta= 0.08
     Davidson diagonalization with overlap
     ethr =  5.42E-10,  avg # of iterations =  1.5

     negative rho (up, down):  2.471E-03 0.000E+00

     total cpu time spent up to now is     1670.6 secs

     total energy              =  -20153.51416399 Ry
     estimated scf accuracy    <       0.00000126 Ry

     iteration # 22     ecut=    50.00 Ry     beta= 0.08
     Davidson diagonalization with overlap
     ethr =  4.39E-10,  avg # of iterations =  2.8

     negative rho (up, down):  2.472E-03 0.000E+00

     total cpu time spent up to now is     1752.0 secs

     total energy              =  -20153.51416444 Ry
     estimated scf accuracy    <       0.00000203 Ry

     iteration # 23     ecut=    50.00 Ry     beta= 0.08
     Davidson diagonalization with overlap
     ethr =  4.39E-10,  avg # of iterations =  1.0

     negative rho (up, down):  2.474E-03 0.000E+00

     total cpu time spent up to now is     1805.9 secs

     End of self-consistent calculation

          k = 0.0000 0.0000 0.0000 ( 23605 PWs)   bands (ev):

     1.5100   1.6551   1.8875   2.1943   2.5531   2.9452   3.3222   3.6268
     3.8137   3.8988   3.9234   3.9627   4.0715   4.0762   4.0764   4.2111
     4.2375   4.2922   4.4108   4.4349   4.4980   4.5413   4.5727   4.6067
     4.6640   4.7054   4.7078   4.8831   4.9821   5.0032   5.1595   5.4420
     5.7323   5.9436   6.0465   6.1386   6.1637   6.1659   6.2215   6.2492
     6.2531   6.2956   6.3166   6.3230   6.3234   6.3244   6.3544   6.3566
     6.3590   6.3627   6.3735   6.3867   6.4100   6.4114   6.4159   6.4183
     6.4329   6.4749   6.4796   6.4858   6.4885   6.5042   6.5383   6.5411
     6.5595   6.5605   6.5864   6.5871   6.5892   6.6009   6.6114   6.7339
     6.7432   6.7554   6.8004   6.8715   6.8719   6.8722   6.8725   7.0065
     7.0655   7.1379   7.1681   7.2678   7.4876   7.5563   7.5765   7.5934
     7.6624   7.6811   7.6907   7.6959   7.7109   7.7177   7.7368   7.7706
     7.7888   7.7975   7.8488   7.8654   7.8723   7.9545   7.9988   8.0050
     8.0457   8.1247   8.1692   8.1745   8.3317   8.3601   8.3826   8.3915
     8.4875   8.5203   8.5234   8.5648   8.5794   8.6426   8.6882   8.7008
     8.7058   8.7433   8.7631   8.7637   8.7850   8.7993   8.8073   8.8102
     8.8230   8.8401   8.8465   8.8663   8.8873   8.9106   8.9458   8.9788
     9.0237   9.0302   9.0739   9.2213   9.2216   9.4050  10.2062  10.5077
    10.5635  10.6297  10.9345  11.2445  11.4725  11.6278  11.7314  11.8021
    11.8544  11.8918  11.9193  12.1243  12.1245  13.5619  13.7377  13.9353
    14.0046  14.2916  14.5551  14.8670  14.8900  15.0460  15.3559  15.9021
    16.1937  16.3734  16.4734  16.5724

          k = 0.0000 0.1443 0.0000 ( 23551 PWs)   bands (ev):

     1.6626   1.8065   2.0370   2.3417   2.6989   3.0902   3.4675   3.7710
     3.9528   4.0303   4.0499   4.0870   4.1943   4.2118   4.2121   4.3068
     4.3592   4.3941   4.5234   4.5603   4.5836   4.6492   4.6695   4.7429
     4.7714   4.8047   4.8531   4.9434   5.1023   5.1280   5.2162   5.4742
     5.7355   5.8959   5.9872   6.0223   6.0560   6.1002   6.1372   6.1492
     6.1694   6.2290   6.2334   6.2487   6.2712   6.2863   6.3413   6.3513
     6.3867   6.3969   6.4125   6.4193   6.4261   6.4295   6.4524   6.4723
     6.4766   6.4846   6.4909   6.5099   6.5478   6.5547   6.5622   6.5745
     6.5850   6.6019   6.6194   6.6318   6.6389   6.6417   6.6591   6.6706
     6.6869   6.6913   6.7958   6.8041   6.8408   6.8569   6.9485   6.9567
     6.9696   6.9718   7.1410   7.2418   7.3422   7.3537   7.4345   7.4760
     7.5116   7.5809   7.5838   7.5966   7.6459   7.6920   7.7378   7.7427
     7.7640   7.7728   7.7757   7.8076   7.8304   7.9186   7.9186   7.9302
     8.0572   8.0709   8.0798   8.0997   8.1308   8.2047   8.2595   8.2729
     8.3846   8.3876   8.4349   8.4779   8.4794   8.5094   8.5330   8.5852
     8.6147   8.6390   8.6424   8.6753   8.7070   8.7132   8.7397   8.7412
     8.7552   8.7724   8.7823   8.8070   8.8476   8.8732   8.8899   8.9362
     8.9449   9.0168   9.0612   9.0754   9.3927  10.0506  10.8517  10.9164
    11.0708  11.1096  11.3147  11.5223  11.6810  11.8024  11.9043  12.0034
    12.1135  12.2400  12.3789  12.5083  12.5365  13.5665  13.7778  13.9662
    14.0810  14.3851  14.6607  14.9291  15.0253  15.1556  15.5177  16.0671
    16.0954  16.4610  16.5408  16.6223

          k = 0.0000 0.2887 0.0000 ( 23495 PWs)   bands (ev):

     2.1054   2.2442   2.4667   2.7617   3.1095   3.4941   3.8693   4.1692
     4.3344   4.3903   4.3979   4.4266   4.5204   4.5233   4.5852   4.5857
     4.6156   4.6735   4.7652   4.8714   4.8756   4.9305   4.9519   5.0268
     5.0900   5.1370   5.1563   5.2471   5.3253   5.4109   5.4832   5.6078
     5.7353   5.7659   5.7888   5.8132   5.8654   5.9087   5.9196   5.9561
     6.0063   6.0298   6.0341   6.0449   6.0622   6.0934   6.1389   6.1633
     6.1720   6.2167   6.2726   6.2882   6.3787   6.4079   6.4519   6.4893
     6.5408   6.5452   6.5718   6.6067   6.6221   6.6293   6.6562   6.6622
     6.6781   6.6894   6.6978   6.7056   6.7137   6.7291   6.7637   6.7770
     6.8184   6.8191   6.8306   6.8440   6.8652   6.9134   6.9278   6.9585
     6.9760   6.9791   7.0466   7.0963   7.1168   7.1994   7.2117   7.2285
     7.2939   7.3291   7.3613   7.3774   7.3828   7.4085   7.4611   7.4716
     7.5279   7.5535   7.6099   7.6802   7.7119   7.7753   7.7901   7.8036
     7.8571   7.9053   7.9311   7.9536   7.9561   7.9669   8.0344   8.0683
     8.1377   8.1786   8.2194   8.2592   8.3081   8.3286   8.3534   8.4456
     8.5111   8.5195   8.5210   8.5571   8.5803   8.6133   8.6182   8.6671
     8.6916   8.7148   8.7201   8.7358   8.7877   8.7903   8.8834   8.9309
     8.9497   8.9707   9.1316   9.5791  10.1690  10.8974  11.7426  11.9661
    11.9738  11.9975  12.0456  12.1231  12.1571  12.2273  12.3604  12.5251
    12.7229  12.9413  13.1647  13.3834  13.6186  13.6542  14.0148  14.1109
    14.3986  14.7090  14.9796  15.1480  15.4307  15.4869  15.6628  16.0465
    16.1749  16.6795  16.7404  16.7531

          k = 0.0000 0.4330 0.0000 ( 23423 PWs)   bands (ev):

     2.7896   2.9145   3.1141   3.3794   3.6935   4.0461   4.4026   4.6986
     4.7711   4.8448   4.8619   4.8758   4.8778   4.8808   4.9270   4.9971
     5.0082   5.0775   5.0786   5.1120   5.1885   5.2544   5.3321   5.3726
     5.3752   5.4089   5.4419   5.5140   5.5548   5.5640   5.5724   5.6071
     5.6659   5.6940   5.6983   5.7658   5.7720   5.7917   5.7998   5.8015
     5.8125   5.8269   5.8271   5.8353   5.8757   5.9127   5.9219   5.9347
     5.9695   6.0668   6.0750   6.0817   6.0919   6.2002   6.2895   6.3106
     6.3219   6.3455   6.4510   6.4864   6.5403   6.5571   6.5643   6.6321
     6.6521   6.6599   6.6895   6.6986   6.7184   6.7513   6.7575   6.7613
     6.7643   6.7666   6.8225   6.8893   6.8898   6.9735   7.0003   7.0816
     7.1195   7.1291   7.1594   7.1853   7.1907   7.2667   7.2800   7.3325
     7.3540   7.3816   7.3895   7.4010   7.4044   7.4113   7.4322   7.4520
     7.5020   7.5067   7.5244   7.5514   7.5707   7.6211   7.6260   7.6958
     7.7556   7.8203   7.8259   7.8434   7.9026   7.9095   7.9905   8.0075
     8.0163   8.0521   8.0894   8.1581   8.1618   8.2934   8.3855   8.3917
     8.4131   8.4476   8.5182   8.5249   8.5352   8.5617   8.6152   8.6441
     8.6621   8.6622   8.6836   8.7234   8.7607   8.7939   8.8194   8.8408
     8.8445   9.2231   9.6856  10.2405  10.9101  11.6887  12.5156  12.5212
    12.5733  12.6488  12.6592  12.8593  12.8920  13.1323  13.2180  13.4281
    13.5318  13.5446  13.8836  13.9974  14.3074  14.3438  14.4896  14.5371
    14.8607  15.2844  15.3342  15.5253  15.6027  15.6502  16.0219  16.0486
    16.0859  16.5125  16.6785  17.0824

          k = 0.0000 0.5774 0.0000 ( 23470 PWs)   bands (ev):

     3.6224   3.7137   3.8565   4.0450   4.2657   4.5151   4.7801   5.0109
     5.0365   5.0431   5.0542   5.1155   5.1167   5.1193   5.2261   5.2406
     5.2413   5.2533   5.2920   5.3283   5.3690   5.3699   5.3752   5.4055
     5.4272   5.4451   5.4560   5.5283   5.5320   5.5463   5.5539   5.5587
     5.5651   5.6012   5.6476   5.6686   5.6756   5.6796   5.7180   5.7332
     5.7458   5.7593   5.7771   5.7999   5.8005   5.8196   5.8336   5.9710
     5.9713   6.0010   6.0547   6.0759   6.1524   6.2189   6.2544   6.3175
     6.3309   6.3422   6.3498   6.4030   6.4053   6.4136   6.4296   6.4659
     6.4863   6.4927   6.5116   6.5255   6.5382   6.5677   6.5922   6.5927
     6.5932   6.6004   6.9803   6.9925   7.0000   7.0513   7.0515   7.0560
     7.0562   7.0564   7.1628   7.1932   7.2634   7.3444   7.4446   7.4857
     7.5097   7.5248   7.5281   7.5421   7.5478   7.5492   7.5740   7.5741
     7.5887   7.6038   7.6247   7.6473   7.6895   7.7868   7.7971   7.8264
     7.8267   7.9454   8.0267   8.0571   8.1921   8.2000   8.2499   8.3755
     8.4029   8.4107   8.4350   8.4452   8.4551   8.4568   8.4661   8.4963
     8.5348   8.5486   8.5632   8.5689   8.5736   8.6004   8.6294   8.6480
     8.6571   8.6692   8.6867   8.6982   8.7120   8.7202   8.7254   8.8467
     9.2819   9.7808  10.3442  10.9772  11.6899  12.4700  13.0912  13.1267
    13.1530  13.2823  13.2871  13.2897  13.2901  13.4998  13.5270  13.5586
    13.7526  13.7722  13.8609  13.9674  14.7924  14.9211  14.9230  15.0286
    15.3315  15.3361  15.3809  15.5435  15.8759  15.8800  16.1573  16.3379
    16.4585  16.4917  16.8420  16.9043

          k = 0.0000 0.7217 0.0000 ( 23446 PWs)   bands (ev):

     4.4401   4.4629   4.4916   4.5443   4.6199   4.7233   4.8517   4.8681
     4.8984   4.9662   4.9668   4.9977   5.0743   5.0905   5.1505   5.1921
     5.1976   5.2121   5.2474   5.2555   5.2841   5.2849   5.3639   5.3663
     5.4285   5.4436   5.4996   5.5354   5.5724   5.5809   5.6171   5.6172
     5.6188   5.6331   5.6540   5.6661   5.7136   5.7246   5.7386   5.7598
     5.7708   5.7830   5.7924   5.8070   5.8086   5.8231   5.8748   5.9279
     6.0283   6.0628   6.1200   6.1509   6.1695   6.1997   6.2327   6.2361
     6.2699   6.3037   6.3070   6.3286   6.3502   6.3655   6.3733   6.4005
     6.4255   6.4333   6.4678   6.4935   6.5856   6.6215   6.7085   6.7134
     6.7141   6.7360   6.9748   6.9760   7.0166   7.0172   7.1271   7.1462
     7.1760   7.1763   7.1782   7.2215   7.3244   7.3573   7.3824   7.4128
     7.4276   7.4438   7.4808   7.5033   7.5350   7.6166   7.6262   7.6338
     7.6582   7.6784   7.7052   7.7056   7.7909   7.8298   7.8577   7.8639
     7.9102   8.0575   8.1054   8.1244   8.2482   8.3029   8.3919   8.5297
     8.5761   8.6357   8.6669   8.6801   8.6810   8.6865   8.7176   8.7318
     8.7365   8.7505   8.7602   8.7706   8.8021   8.8122   8.8875   8.8969
     8.9346   8.9395   9.3362   9.3446   9.3609   9.4306   9.5586   9.8082
    10.2201  10.7453  11.3436  11.6953  11.8077  11.9986  12.0033  12.2732
    12.6160  12.7029  13.0275  13.4344  13.4680  13.8121  13.9331  14.0078
    14.1336  14.1517  14.3135  14.4485  14.6577  14.7286  15.0378  15.1049
    15.5517  15.6025  16.0525  16.1339  16.1767  16.2804  16.4559  16.6100
    16.7151  16.8052  17.0872  17.1185

          k = 0.0000-0.8660 0.0000 ( 23420 PWs)   bands (ev):

     4.7385   4.7385   4.7665   4.7666   4.8268   4.8268   4.8303   4.8304
     4.9248   4.9248   4.9398   4.9398   5.0300   5.0301   5.0366   5.0366
     5.1155   5.1156   5.1832   5.1832   5.2537   5.2537   5.2541   5.2541
     5.4642   5.4642   5.4726   5.4726   5.5334   5.5334   5.5629   5.5629
     5.6331   5.6331   5.6738   5.6739   5.7730   5.7730   5.7789   5.7789
     5.8762   5.8762   5.9038   5.9038   5.9258   5.9258   5.9832   5.9832
     6.0114   6.0114   6.0546   6.0547   6.1142   6.1142   6.1567   6.1567
     6.1967   6.1968   6.2521   6.2521   6.3870   6.3870   6.4080   6.4080
     6.5409   6.5409   6.5757   6.5757   6.6577   6.6577   6.6959   6.6959
     6.9871   6.9871   6.9890   6.9890   7.0312   7.0312   7.0333   7.0333
     7.2217   7.2217   7.2720   7.2720   7.3085   7.3086   7.3412   7.3412
     7.3842   7.3842   7.4760   7.4761   7.6164   7.6164   7.6316   7.6317
     7.7090   7.7090   7.7348   7.7348   7.7792   7.7793   7.8619   7.8620
     7.9288   7.9289   8.0257   8.0258   8.2031   8.2031   8.4335   8.4336
     8.6463   8.6464   8.7974   8.7975   8.8250   8.8251   8.8382   8.8382
     8.8671   8.8671   8.8770   8.8770   8.9443   8.9444   9.0298   9.0299
     9.0747   9.0747  10.4117  10.4117  10.4562  10.4562  10.5526  10.5526
    10.7111  10.7111  10.9500  10.9500  11.2906  11.2906  11.7278  11.7278
    12.2438  12.2438  12.8144  12.8145  13.4167  13.4168  14.0218  14.0218
    14.5847  14.5848  15.0232  15.0232  15.7217  15.7217  15.7306  15.7306
    15.9019  15.9019  15.9446  15.9446  16.1703  16.1704  16.2504  16.2505
    16.5103  16.5104  16.6003  16.6004

          k = 0.1250 0.0000 0.0000 ( 23563 PWs)   bands (ev):

     1.6248   1.7689   2.0000   2.3052   2.6629   3.0544   3.4317   3.7356
     3.9187   3.9594   3.9981   4.0190   4.0680   4.1783   4.1786   4.2332
     4.2544   4.3297   4.4256   4.4442   4.5434   4.5553   4.6071   4.6202
     4.6589   4.7515   4.7755   4.9259   5.0105   5.0388   5.1939   5.4680
     5.7435   5.9366   6.0562   6.0804   6.0804   6.1559   6.1803   6.1972
     6.2489   6.2570   6.2663   6.2792   6.3048   6.3415   6.3500   6.3548
     6.3660   6.3849   6.3952   6.3976   6.4204   6.4266   6.4353   6.4563
     6.4575   6.4774   6.4794   6.4877   6.5401   6.5460   6.5539   6.5642
     6.6003   6.6052   6.6171   6.6225   6.6288   6.6295   6.6593   6.6730
     6.6866   6.7830   6.8158   6.8223   6.8508   6.9350   6.9356   6.9390
     6.9999   7.0228   7.1055   7.2761   7.3768   7.4319   7.4802   7.4990
     7.5511   7.5567   7.5971   7.6055   7.6603   7.7070   7.7347   7.7621
     7.8005   7.8231   7.8235   7.8451   7.8747   7.8936   7.9398   7.9520
     8.0144   8.1087   8.1227   8.1809   8.2020   8.2381   8.3338   8.3553
     8.3595   8.4063   8.4852   8.5290   8.5398   8.5839   8.6023   8.6605
     8.6697   8.6870   8.6987   8.7061   8.7231   8.7318   8.7557   8.7691
     8.7839   8.7980   8.8127   8.8374   8.8478   8.8567   8.8811   8.9071
     8.9545   9.0090   9.1238   9.1247   9.2843   9.3436   9.6662   9.9383
     9.9470  10.1362  10.2176  10.3366  10.6925  10.8248  11.0004  11.2725
    11.9560  12.6641  13.2781  13.4556  13.5351  13.6703  13.9256  13.9577
    14.2256  14.5247  14.8400  14.9131  15.1282  15.2159  15.5779  15.8930
    16.3686  16.4373  16.5293  16.9264

          k = 0.1250 0.1443 0.0000 ( 23537 PWs)   bands (ev):

     1.7759   1.9182   2.1474   2.4498   2.8054   3.1956   3.5730   3.8757
     4.0539   4.0863   4.1248   4.1437   4.1928   4.3096   4.3099   4.3511
     4.3574   4.4332   4.5479   4.5621   4.6285   4.6824   4.6969   4.7490
     4.7947   4.8203   4.9108   4.9848   5.1298   5.1651   5.2437   5.4920
     5.7277   5.8928   5.9254   6.0077   6.0330   6.0450   6.1099   6.1191
     6.1530   6.1954   6.2091   6.2298   6.2400   6.2612   6.2786   6.3002
     6.3442   6.3620   6.4153   6.4329   6.4538   6.4678   6.4786   6.4842
     6.4908   6.5151   6.5152   6.5221   6.5505   6.5739   6.5896   6.6029
     6.6146   6.6267   6.6436   6.6618   6.6671   6.6747   6.6933   6.7088
     6.7415   6.7446   6.7591   6.7672   6.8205   6.8808   6.8861   6.9215
     7.0159   7.0169   7.1258   7.1782   7.1887   7.2344   7.4065   7.4067
     7.4584   7.5242   7.5404   7.5476   7.5551   7.5754   7.6158   7.6724
     7.7145   7.7403   7.7642   7.8191   7.8375   7.8538   7.8610   7.8823
     7.9172   7.9910   8.0320   8.0412   8.1382   8.1427   8.2196   8.2392
     8.2716   8.3284   8.3607   8.3668   8.3951   8.4697   8.5056   8.5290
     8.5399   8.5414   8.5823   8.5898   8.6333   8.6382   8.6656   8.6991
     8.7109   8.7499   8.7570   8.7674   8.7919   8.7971   8.8376   8.9046
     8.9882   9.0379   9.0863   9.1380   9.6491   9.9791  10.1417  10.3085
    10.3411  10.4428  10.5702  10.7938  11.1633  11.1751  11.4124  11.7056
    12.3346  13.0023  13.4717  13.5584  13.6593  13.7408  13.9926  14.0176
    14.3332  14.6321  14.9451  14.9793  15.2376  15.3414  15.6952  15.9318
    16.4154  16.5249  16.6330  16.9713

          k = 0.1250 0.2887 0.0000 ( 23467 PWs)   bands (ev):

     2.2116   2.3474   2.5677   2.8581   3.2018   3.5816   3.9530   4.2480
     4.4056   4.4304   4.4540   4.4902   4.5230   4.5620   4.6502   4.6617
     4.6624   4.6725   4.7894   4.8669   4.9188   4.9514   4.9797   5.0801
     5.0876   5.1210   5.2101   5.2532   5.3429   5.4210   5.4846   5.5975
     5.6488   5.7014   5.7764   5.8306   5.8654   5.9021   5.9061   5.9672
     5.9810   6.0161   6.0475   6.0532   6.0664   6.0706   6.0887   6.1062
     6.1393   6.2019   6.2327   6.2953   6.3378   6.3946   6.4780   6.5115
     6.5364   6.5618   6.5822   6.6014   6.6036   6.6207   6.6444   6.6681
     6.6777   6.7217   6.7328   6.7437   6.7534   6.7626   6.7921   6.7939
     6.8385   6.8484   6.8569   6.8732   6.8814   6.9022   6.9133   6.9738
     6.9874   7.0230   7.0237   7.0351   7.0522   7.1070   7.1788   7.1900
     7.2210   7.2277   7.2624   7.2754   7.3570   7.3582   7.4076   7.4868
     7.4934   7.5303   7.5831   7.6198   7.6768   7.6813   7.7588   7.7821
     7.7897   7.7929   7.8475   7.8692   7.9383   7.9569   7.9891   8.0592
     8.1010   8.1210   8.1545   8.2044   8.2266   8.2314   8.2677   8.2760
     8.3324   8.3723   8.4319   8.5003   8.5419   8.6601   8.6647   8.6940
     8.7606   8.7678   8.7851   8.7852   8.8206   8.8331   8.9004   8.9625
     9.0195   9.0808   9.1876   9.6959  10.3040  10.7438  10.8181  10.9317
    11.0544  11.0985  11.3335  11.6655  11.8954  12.0953  12.3733  12.6146
    13.2069  13.5943  13.7189  13.8340  13.9534  14.1554  14.1974  14.4442
    14.6913  14.9717  15.2078  15.2830  15.5717  15.6181  15.9165  16.1114
    16.4171  16.7949  16.9178  16.9564

          k = 0.1250 0.4330 0.0000 ( 23435 PWs)   bands (ev):

     2.8757   2.9942   3.1901   3.4442   3.7464   4.0804   4.4120   4.6674
     4.7821   4.7887   4.8460   4.8589   4.8695   4.8955   4.9633   4.9907
     5.0051   5.0957   5.0961   5.1048   5.1463   5.2198   5.2630   5.3523
     5.3581   5.3764   5.3890   5.4331   5.4819   5.5204   5.6136   5.6184
     5.6534   5.7106   5.7360   5.7531   5.7583   5.7684   5.7900   5.8048
     5.8350   5.8444   5.8655   5.8799   5.9364   5.9380   5.9557   5.9885
     6.0215   6.0422   6.0685   6.0901   6.2202   6.2634   6.2864   6.3611
     6.4029   6.4303   6.4757   6.5000   6.5361   6.5401   6.5689   6.5968
     6.6342   6.6399   6.6528   6.6661   6.6846   6.7026   6.7210   6.7452
     6.7651   6.7841   6.8671   6.8942   6.9612   6.9685   6.9995   7.0432
     7.1376   7.1587   7.1854   7.1974   7.2040   7.2385   7.2506   7.2866
     7.3109   7.3266   7.3412   7.3460   7.3978   7.4142   7.4397   7.4821
     7.4955   7.5368   7.5425   7.5512   7.6024   7.6229   7.6320   7.6405
     7.6635   7.7231   7.8063   7.8135   7.8535   7.9234   7.9307   7.9394
     7.9803   8.0494   8.0897   8.0954   8.1617   8.1904   8.2031   8.2880
     8.3625   8.4458   8.4905   8.5107   8.6298   8.6431   8.6857   8.7322
     8.7359   8.7513   8.7715   8.7799   8.8003   8.8294   8.8718   8.9426
     9.0061   9.2292   9.7284  10.3177  10.9916  11.3663  11.4625  11.6299
    11.7807  11.8728  12.1881  12.5859  12.6511  13.0451  13.5277  13.5764
    13.7796  13.9491  14.2025  14.2870  14.5378  14.6075  14.6574  14.8014
    15.1637  15.2916  15.5029  15.6656  15.6681  15.8765  16.1216  16.1436
    16.3484  16.6637  16.8435  17.2497

          k = 0.1250 0.5774 0.0000 ( 23447 PWs)   bands (ev):

     3.6478   3.7321   3.8800   4.0536   4.2553   4.4679   4.6839   4.8550
     4.8618   4.9268   4.9500   4.9659   4.9969   5.0554   5.0738   5.0741
     5.1223   5.1226   5.2155   5.2179   5.2306   5.2402   5.3216   5.3304
     5.3951   5.4351   5.4482   5.4553   5.4554   5.4918   5.5429   5.5446
     5.5968   5.6074   5.6801   5.6860   5.7073   5.7349   5.7584   5.7659
     5.7755   5.7901   5.8139   5.8521   5.9005   5.9376   5.9443   5.9593
     6.0101   6.0768   6.1054   6.1297   6.1465   6.1470   6.2781   6.2805
     6.3158   6.4105   6.4476   6.4851   6.5013   6.5305   6.5410   6.5588
     6.5876   6.6008   6.6130   6.6202   6.6475   6.6859   6.7037   6.7404
     6.7608   6.7726   6.8647   6.8807   6.9542   6.9710   6.9815   7.0839
     7.2010   7.2519   7.2561   7.2742   7.3023   7.3549   7.3827   7.4208
     7.4397   7.4653   7.5114   7.5201   7.5401   7.5475   7.6002   7.6297
     7.6319   7.6574   7.7169   7.7205   7.7715   7.7863   7.9048   7.9148
     7.9265   7.9623   8.0811   8.0876   8.1658   8.2118   8.2432   8.2456
     8.3413   8.3525   8.4036   8.4298   8.4585   8.4618   8.4794   8.5160
     8.5386   8.5575   8.5670   8.6009   8.6297   8.6367   8.6511   8.6762
     8.6947   8.7291   8.7508   8.7615   8.7683   8.8198   8.8273   8.8864
     9.2616   9.7827  10.3718  11.0293  11.7427  12.0670  12.1956  12.4084
    12.5278  12.7001  13.0533  13.2775  13.3300  13.4255  13.4622  13.6673
    13.9118  14.0439  14.1729  14.2903  14.3529  14.6162  14.8603  15.0792
    15.1950  15.4454  15.4473  15.7110  15.7931  15.9265  16.2673  16.3080
    16.3829  16.7563  16.9065  16.9575

          k = 0.1250 0.7217 0.0000 ( 23455 PWs)   bands (ev):

     4.2503   4.3226   4.4614   4.5840   4.6053   4.6648   4.7246   4.7451
     4.7551   4.8052   4.8259   4.8627   4.9273   4.9557   4.9727   5.0270
     5.0727   5.0968   5.1018   5.1259   5.2022   5.2151   5.2504   5.2629
     5.2678   5.3028   5.3170   5.3509   5.4249   5.4251   5.4576   5.4693
     5.5150   5.5863   5.6055   5.6254   5.6682   5.7280   5.7302   5.7714
     5.8086   5.8264   5.8380   5.8607   5.9008   5.9174   5.9557   6.0203
     6.0431   6.0733   6.1059   6.1675   6.2428   6.2705   6.2714   6.2989
     6.3389   6.3484   6.3795   6.4332   6.4818   6.4996   6.5202   6.6137
     6.6578   6.6714   6.7698   6.7839   6.7856   6.7946   6.8287   6.8434
     6.9123   6.9194   6.9586   7.0260   7.0272   7.0412   7.0934   7.0993
     7.1890   7.1923   7.2425   7.2705   7.3625   7.4107   7.4846   7.4983
     7.5322   7.5433   7.6076   7.6356   7.6437   7.6562   7.7124   7.7348
     7.7372   7.8056   7.8592   7.8819   7.9237   7.9481   8.0456   8.0456
     8.0653   8.1737   8.2323   8.2484   8.3379   8.3432   8.4521   8.5603
     8.5714   8.5725   8.5876   8.6565   8.6645   8.6668   8.7044   8.7418
     8.7459   8.7791   8.7796   8.8063   8.8141   8.8419   8.8943   8.8989
     8.9362   8.9447   9.2628   9.3263   9.3576   9.4078   9.5260   9.7679
    10.1866  10.7311  11.3523  11.7763  11.8783  12.0315  12.0613  12.3128
    12.6385  12.7395  13.0299  13.0704  13.2136  13.4382  13.4755  13.5102
    13.7345  14.0166  14.0816  14.1671  14.4583  14.5815  14.8251  15.1615
    15.2307  15.5493  15.7206  15.8989  16.0113  16.2674  16.3333  16.4890
    16.5517  16.6529  16.8444  16.9776

          k = 0.1250-0.8660 0.0000 ( 23492 PWs)   bands (ev):

     4.5214   4.5416   4.6148   4.6154   4.6393   4.6657   4.7368   4.7388
     4.7464   4.7564   4.8602   4.8749   4.9240   4.9263   5.0118   5.0118
     5.0667   5.0729   5.1192   5.1232   5.1336   5.1343   5.1593   5.1612
     5.2348   5.2386   5.2950   5.2970   5.3436   5.3439   5.3818   5.3840
     5.4794   5.4795   5.5823   5.5912   5.6446   5.6458   5.7400   5.7418
     5.8340   5.8400   5.9245   5.9291   5.9543   5.9670   6.0164   6.0258
     6.0584   6.0598   6.0833   6.0868   6.1730   6.1802   6.2477   6.2485
     6.4266   6.4276   6.4411   6.4491   6.6053   6.6088   6.6379   6.6408
     6.7273   6.7373   6.7532   6.7538   6.8479   6.8484   6.8988   6.9014
     6.9199   6.9248   6.9613   6.9759   7.0723   7.0760   7.1385   7.1633
     7.2364   7.2515   7.3236   7.3351   7.4385   7.4446   7.4890   7.4904
     7.5405   7.5493   7.6235   7.6319   7.7259   7.7282   7.8049   7.8218
     7.8648   7.8668   7.9217   7.9347   7.9859   7.9881   8.0143   8.0195
     8.0935   8.1033   8.1444   8.1519   8.2459   8.2469   8.4431   8.4446
     8.6444   8.6484   8.7388   8.7442   8.7919   8.7924   8.8125   8.8229
     8.8653   8.8664   8.9034   8.9163   8.9487   8.9537   9.0305   9.0306
     9.0723   9.0771  10.4082  10.4103  10.4613  10.4620  10.5568  10.5571
    10.7057  10.7079  10.9335  10.9351  11.2639  11.2679  11.6995  11.7038
    12.2256  12.2284  12.8174  12.8186  13.4292  13.4459  13.9907  13.9992
    14.4410  14.4475  14.6415  14.6432  14.8045  14.8231  15.0166  15.0316
    15.2472  15.2514  15.4670  15.4764  15.8065  15.8141  15.9076  15.9299
    16.2360  16.2367  16.5839  16.5927

          k = 0.1250-0.7217 0.0000 ( 23455 PWs)   bands (ev):

     4.2233   4.3229   4.4439   4.5941   4.6423   4.6608   4.6970   4.7519
     4.7690   4.8045   4.8284   4.8612   4.9336   4.9406   4.9680   5.0238
     5.0781   5.0900   5.1036   5.1250   5.2020   5.2224   5.2514   5.2538
     5.2682   5.3050   5.3211   5.3558   5.4219   5.4263   5.4584   5.4702
     5.5179   5.5811   5.6063   5.6153   5.6686   5.7291   5.7314   5.7687
     5.8099   5.8330   5.8375   5.8473   5.9015   5.9163   5.9513   6.0290
     6.0488   6.0713   6.1009   6.1717   6.2240   6.2759   6.2818   6.3203
     6.3369   6.3496   6.3938   6.4252   6.4662   6.5108   6.5192   6.6078
     6.6796   6.6855   6.7731   6.7896   6.7975   6.8088   6.8409   6.8486
     6.9078   6.9211   6.9692   7.0240   7.0307   7.0391   7.0986   7.1081
     7.1687   7.1855   7.2195   7.2769   7.3549   7.4075   7.4791   7.4978
     7.5200   7.5489   7.6032   7.6302   7.6305   7.6549   7.7069   7.7232
     7.7285   7.8135   7.8622   7.8824   7.9281   7.9727   8.0360   8.0455
     8.0707   8.1712   8.2310   8.2550   8.3419   8.3444   8.4540   8.5548
     8.5618   8.5837   8.5913   8.6553   8.6638   8.6669   8.7187   8.7397
     8.7420   8.7754   8.7788   8.8019   8.8133   8.8323   8.8939   8.8988
     8.9401   8.9410   9.2662   9.3278   9.3562   9.4091   9.5264   9.7703
    10.1885  10.7301  11.3505  11.7723  11.8779  12.0174  12.0579  12.3108
    12.6325  12.7323  13.0231  13.0690  13.2104  13.4306  13.4554  13.5122
    13.7327  13.9955  14.1207  14.1687  14.4404  14.5864  14.8193  15.1483
    15.2470  15.5610  15.7204  15.8824  16.0293  16.2717  16.3454  16.4867
    16.5584  16.6573  16.8954  16.9689

          k = 0.1250-0.5774 0.0000 ( 23447 PWs)   bands (ev):

     3.6310   3.7337   3.8722   4.0597   4.2586   4.4745   4.6887   4.8186
     4.8593   4.9264   4.9403   4.9538   5.0020   5.0524   5.0647   5.0729
     5.1174   5.1378   5.2151   5.2210   5.2405   5.2424   5.3273   5.3316
     5.3972   5.4216   5.4584   5.4585   5.4631   5.4915   5.5473   5.5486
     5.5960   5.6058   5.6802   5.6845   5.7040   5.7269   5.7581   5.7654
     5.7766   5.7950   5.8289   5.8471   5.9064   5.9347   5.9355   5.9578
     6.0085   6.0807   6.1154   6.1239   6.1326   6.1381   6.2784   6.2827
     6.3257   6.4038   6.4566   6.4925   6.4933   6.5484   6.5601   6.5671
     6.5922   6.6025   6.6205   6.6459   6.6529   6.7042   6.7094   6.7466
     6.7668   6.8017   6.8504   6.8727   6.9543   6.9674   6.9874   7.0778
     7.2052   7.2324   7.2566   7.2627   7.3030   7.3437   7.3629   7.4099
     7.4414   7.4590   7.5081   7.5214   7.5347   7.5420   7.5939   7.6219
     7.6283   7.6721   7.7169   7.7212   7.7770   7.8143   7.9049   7.9173
     7.9245   7.9568   8.0815   8.0861   8.1716   8.2064   8.2329   8.2447
     8.3440   8.3548   8.4048   8.4253   8.4491   8.4598   8.4793   8.5162
     8.5492   8.5674   8.5683   8.6006   8.6291   8.6345   8.6552   8.6924
     8.7003   8.7292   8.7451   8.7553   8.7667   8.8235   8.8293   8.8652
     9.2618   9.7789  10.3671  11.0108  11.7348  12.0656  12.1947  12.4092
    12.5056  12.6994  13.0570  13.2733  13.3315  13.4242  13.4746  13.6620
    13.9006  14.0336  14.1514  14.2797  14.3107  14.6631  14.8388  15.0624
    15.2018  15.4465  15.4551  15.7272  15.7720  15.9250  16.2924  16.3479
    16.3692  16.7762  16.9060  16.9700

          k = 0.1250-0.4330 0.0000 ( 23435 PWs)   bands (ev):

     2.8694   2.9946   3.1867   3.4457   3.7463   4.0816   4.4119   4.6649
     4.7676   4.7800   4.8141   4.8554   4.8706   4.8985   4.9436   4.9841
     5.0001   5.0959   5.1037   5.1050   5.1525   5.2266   5.2710   5.3584
     5.3729   5.3789   5.3963   5.4314   5.4864   5.5154   5.6189   5.6317
     5.6584   5.7063   5.7441   5.7519   5.7624   5.7664   5.7924   5.7946
     5.8393   5.8494   5.8727   5.8728   5.9418   5.9495   5.9598   5.9832
     6.0234   6.0501   6.0564   6.0851   6.2109   6.2611   6.2918   6.3689
     6.4153   6.4262   6.4735   6.5019   6.5343   6.5501   6.5796   6.6009
     6.6143   6.6400   6.6638   6.6657   6.6852   6.7125   6.7209   6.7466
     6.7627   6.8214   6.8551   6.9019   6.9625   6.9684   7.0046   7.0344
     7.1357   7.1566   7.1599   7.2040   7.2041   7.2367   7.2610   7.2894
     7.3030   7.3213   7.3399   7.3469   7.4105   7.4121   7.4426   7.4817
     7.4943   7.5367   7.5417   7.5507   7.6053   7.6234   7.6404   7.6453
     7.6629   7.7244   7.8081   7.8118   7.8528   7.9234   7.9288   7.9398
     7.9965   8.0373   8.0689   8.0891   8.1558   8.1910   8.2047   8.2827
     8.3529   8.4426   8.4996   8.5162   8.6315   8.6474   8.6889   8.7314
     8.7407   8.7527   8.7855   8.7894   8.8156   8.8290   8.8503   8.9445
     8.9803   9.2253   9.7232  10.2961  10.9831  11.3654  11.4611  11.6298
    11.7550  11.8712  12.1903  12.5889  12.6512  13.0528  13.5412  13.5602
    13.7682  13.9579  14.2012  14.2656  14.5470  14.6165  14.6383  14.7620
    15.1590  15.2479  15.5270  15.6619  15.6684  15.8992  16.1419  16.1499
    16.3588  16.6508  16.8983  17.2354

          k = 0.1250-0.2887 0.0000 ( 23467 PWs)   bands (ev):

     2.2091   2.3475   2.5663   2.8583   3.2014   3.5814   3.9519   4.2463
     4.3996   4.4257   4.4512   4.4808   4.5229   4.5584   4.6509   4.6617
     4.6623   4.6701   4.7891   4.8663   4.9161   4.9525   4.9817   5.0765
     5.0872   5.1201   5.2142   5.2516   5.3400   5.4167   5.4788   5.5987
     5.6802   5.6935   5.7814   5.8174   5.8610   5.9179   5.9356   5.9745
     5.9821   6.0196   6.0376   6.0551   6.0653   6.0763   6.0936   6.1116
     6.1401   6.1989   6.2328   6.3004   6.3367   6.4037   6.4738   6.5077
     6.5384   6.5524   6.5843   6.5969   6.6055   6.6282   6.6445   6.6682
     6.6720   6.7122   6.7427   6.7454   6.7511   6.7654   6.7815   6.7946
     6.8371   6.8503   6.8542   6.8697   6.8916   6.9020   6.9132   6.9738
     6.9912   7.0174   7.0229   7.0332   7.0522   7.1251   7.1705   7.1927
     7.2169   7.2263   7.2630   7.2859   7.3530   7.3712   7.4053   7.4868
     7.4956   7.5518   7.5885   7.6056   7.6807   7.6820   7.7568   7.7829
     7.7944   7.8109   7.8463   7.8498   7.9418   7.9447   7.9926   8.0525
     8.0991   8.1272   8.1507   8.1892   8.2162   8.2318   8.2665   8.2733
     8.3369   8.3666   8.4428   8.5070   8.5388   8.6618   8.6759   8.6954
     8.7597   8.7797   8.7854   8.7894   8.8294   8.8348   8.9174   8.9437
     9.0208   9.0522   9.1836   9.6721  10.2956  10.7468  10.8158  10.9307
    11.0260  11.0953  11.3329  11.6664  11.8943  12.0996  12.3621  12.6225
    13.2147  13.5887  13.7179  13.8401  13.9493  14.1631  14.1976  14.4448
    14.6865  14.9653  15.2060  15.2848  15.5748  15.6109  15.8797  16.1042
    16.4240  16.8015  16.9112  16.9583

          k = 0.1250-0.1443 0.0000 ( 23537 PWs)   bands (ev):

     1.7750   1.9182   2.1468   2.4498   2.8052   3.1954   3.5723   3.8749
     4.0519   4.0853   4.1244   4.1397   4.1926   4.3096   4.3099   4.3509
     4.3572   4.4332   4.5476   4.5626   4.6268   4.6814   4.6979   4.7489
     4.7951   4.8186   4.9071   4.9863   5.1293   5.1642   5.2429   5.4925
     5.7225   5.8750   5.9590   5.9953   6.0252   6.0511   6.1044   6.1404
     6.1857   6.1953   6.1963   6.2083   6.2379   6.2647   6.2804   6.3056
     6.3619   6.3798   6.4174   6.4240   6.4454   6.4655   6.4824   6.4858
     6.4976   6.5154   6.5216   6.5222   6.5442   6.5746   6.5886   6.5971
     6.6117   6.6219   6.6413   6.6524   6.6692   6.6881   6.6914   6.7071
     6.7405   6.7452   6.7636   6.7689   6.8188   6.8849   6.8890   6.9183
     7.0158   7.0170   7.1149   7.1737   7.1947   7.2373   7.4026   7.4115
     7.4589   7.5224   7.5427   7.5519   7.5552   7.5836   7.6393   7.6619
     7.7135   7.7381   7.7539   7.8069   7.8193   7.8530   7.8669   7.8797
     7.9076   7.9948   8.0280   8.0397   8.1392   8.1436   8.2219   8.2465
     8.2834   8.3262   8.3569   8.3778   8.4006   8.4636   8.5042   8.5313
     8.5354   8.5377   8.5808   8.5934   8.6339   8.6647   8.6808   8.6983
     8.7087   8.7479   8.7573   8.7666   8.8004   8.8137   8.8381   8.9138
     8.9699   9.0407   9.0601   9.1111   9.6414   9.9830  10.1412  10.3094
    10.3127  10.4394  10.5674  10.7933  11.1625  11.1778  11.4067  11.7105
    12.3401  13.0070  13.4728  13.5581  13.6632  13.7374  13.9968  14.0161
    14.3314  14.6314  14.9451  14.9791  15.2388  15.3416  15.6797  15.9231
    16.4175  16.5288  16.6335  16.9678

          k = 0.2500 0.0000 0.0000 ( 23536 PWs)   bands (ev):

     1.9601   2.1007   2.3263   2.6249   2.9763   3.3636   3.7395   3.9101
     4.0164   4.0401   4.1770   4.2100   4.2716   4.2892   4.3571   4.3640
     4.4121   4.4639   4.4644   4.4776   4.5113   4.6123   4.6808   4.7402
     4.7692   4.8743   4.9147   5.0337   5.1093   5.1363   5.3017   5.5453
     5.7879   5.8183   5.9231   5.9367   5.9425   6.0458   6.0602   6.1107
     6.1155   6.1603   6.1637   6.1847   6.2302   6.2639   6.2939   6.3180
     6.3477   6.3853   6.4154   6.4409   6.4642   6.4659   6.4980   6.5176
     6.5248   6.5583   6.5683   6.5831   6.5888   6.6019   6.6288   6.6403
     6.6523   6.6768   6.6851   6.6924   6.7067   6.7148   6.7193   6.7564
     6.7803   6.8088   6.8193   6.8411   6.8448   6.8535   6.8782   6.9189
     6.9800   7.0397   7.0686   7.1041   7.1090   7.2501   7.2710   7.3020
     7.3269   7.3885   7.3959   7.4642   7.4979   7.5328   7.5516   7.5919
     7.6414   7.6512   7.6894   7.7203   7.7476   7.8052   7.8333   7.8562
     7.9243   7.9869   7.9875   8.0282   8.0377   8.1251   8.1936   8.2156
     8.2274   8.3050   8.3115   8.3568   8.3642   8.3962   8.4032   8.4215
     8.4586   8.4732   8.5124   8.5334   8.5375   8.5582   8.5780   8.5802
     8.6110   8.6260   8.6375   8.6709   8.6830   8.7303   8.7844   8.7937
     8.8182   8.8411   8.8500   8.8858   8.9221   8.9248   8.9396   8.9543
     9.1076   9.3895   9.6974   9.9616  10.4002  10.6740  11.1444  11.5067
    11.8445  11.9060  12.6636  13.4034  14.0533  14.1252  15.0689  15.1133
    15.3279  15.3769  15.5147  15.6047  15.9157  16.3554  16.6391  16.7665
    16.8141  17.1099  17.4055  17.7910

          k = 0.2500 0.1443 0.0000 ( 23484 PWs)   bands (ev):

     2.1065   2.2443   2.4674   2.7618   3.1098   3.4945   3.8702   4.0453
     4.1487   4.1707   4.3070   4.3370   4.3913   4.4027   4.4604   4.4948
     4.5223   4.5850   4.5855   4.6031   4.6422   4.7301   4.7601   4.8268
     4.8711   4.9479   5.0318   5.0973   5.2316   5.2451   5.3443   5.5504
     5.7381   5.7856   5.8071   5.8801   5.9081   5.9194   6.0314   6.0459
     6.0544   6.0549   6.0935   6.1386   6.1709   6.2028   6.2172   6.2370
     6.2860   6.3434   6.3595   6.3771   6.4178   6.4521   6.4810   6.4869
     6.5298   6.5483   6.5733   6.5907   6.6020   6.6047   6.6188   6.6326
     6.6531   6.6793   6.6959   6.7010   6.7147   6.7405   6.7505   6.7634
     6.7813   6.8212   6.8303   6.8318   6.8661   6.9104   6.9297   6.9587
     6.9621   6.9788   7.0153   7.0955   7.1068   7.1932   7.1995   7.2133
     7.2625   7.3058   7.3329   7.3531   7.3907   7.4257   7.4543   7.4713
     7.5192   7.5590   7.6144   7.6518   7.7147   7.7713   7.7915   7.8181
     7.8307   7.8483   7.9013   7.9304   7.9373   7.9749   8.0243   8.0281
     8.1393   8.1600   8.2055   8.2074   8.2161   8.2227   8.2816   8.2875
     8.3069   8.4408   8.4482   8.4843   8.5213   8.5244   8.5880   8.5912
     8.6058   8.6746   8.7155   8.7313   8.7407   8.7793   8.7923   8.8356
     8.9101   8.9691   9.1159   9.1340   9.2354   9.3293   9.3725   9.4546
     9.5917   9.6720  10.1130  10.1733  10.7136  10.9111  11.3973  11.7431
    12.1219  12.1619  12.8576  13.5781  14.1071  14.2837  15.1483  15.2939
    15.3723  15.4856  15.5755  15.7124  15.9996  16.4375  16.7359  16.8656
    16.9022  17.1939  17.4668  17.8167

          k = 0.2500 0.2887 0.0000 ( 23496 PWs)   bands (ev):

     2.5213   2.6497   2.8609   3.1371   3.4659   3.8300   4.1893   4.4095
     4.4719   4.4939   4.6079   4.6305   4.6518   4.6588   4.7252   4.7255
     4.7990   4.8402   4.8816   4.8837   4.9318   4.9894   5.0415   5.0999
     5.1089   5.2103   5.2460   5.3185   5.3853   5.4532   5.4972   5.5828
     5.6140   5.6267   5.7243   5.7579   5.7937   5.8353   5.8980   5.9088
     5.9187   5.9329   5.9609   6.0213   6.0367   6.0592   6.1064   6.1070
     6.1261   6.1287   6.1735   6.2253   6.2430   6.3533   6.3655   6.3684
     6.4318   6.4746   6.5106   6.5228   6.5710   6.5738   6.5974   6.6347
     6.6445   6.6554   6.6739   6.6987   6.7017   6.7499   6.7738   6.8131
     6.8226   6.8426   6.8558   6.8721   6.9064   6.9330   6.9464   6.9570
     6.9910   6.9998   7.0156   7.0436   7.1106   7.1316   7.1384   7.1591
     7.1800   7.2329   7.2422   7.2695   7.2812   7.3500   7.3579   7.3621
     7.4369   7.4402   7.4818   7.5442   7.5498   7.5776   7.6252   7.6778
     7.7162   7.7483   7.7537   7.7919   7.8346   7.8404   7.8927   7.9155
     7.9363   7.9790   8.0040   8.0644   8.0921   8.1593   8.1724   8.2190
     8.2476   8.3847   8.3877   8.4680   8.6212   8.6344   8.6463   8.7025
     8.7687   8.7756   8.7960   8.7979   8.8447   8.8717   8.9307   8.9947
     9.0037   9.0546   9.4552   9.8043   9.8534   9.9114  10.0079  10.0103
    10.1816  10.4693  10.6486  10.8881  11.4173  11.4257  12.0253  12.2859
    12.6820  12.9584  13.3666  14.0333  14.3308  14.6754  15.4051  15.5118
    15.6799  15.8260  15.8636  16.0066  16.2449  16.6289  16.9995  17.0385
    17.2047  17.2777  17.5325  17.6070

          k = 0.2500 0.4330 0.0000 ( 23431 PWs)   bands (ev):

     3.1228   3.2287   3.4105   3.6367   3.9038   4.1892   4.4629   4.6566
     4.7601   4.7650   4.7719   4.8244   4.8284   4.8782   4.9318   4.9435
     5.0106   5.0250   5.0363   5.1174   5.1336   5.1696   5.1717   5.2020
     5.2539   5.2543   5.3147   5.4417   5.4652   5.4744   5.5337   5.5661
     5.5887   5.6325   5.6794   5.7142   5.7706   5.7857   5.8216   5.8784
     5.8834   5.8967   5.9245   5.9277   5.9736   5.9939   6.0092   6.0504
     6.0600   6.1141   6.1450   6.1560   6.1926   6.2154   6.2469   6.2721
     6.3860   6.3979   6.4076   6.5139   6.5377   6.5717   6.5743   6.5898
     6.6339   6.6458   6.6627   6.6737   6.6927   6.6966   6.7047   6.7538
     6.8099   6.8373   6.9018   6.9522   6.9708   6.9867   6.9888   7.0308
     7.0326   7.1251   7.1840   7.1870   7.2111   7.2407   7.2656   7.2727
     7.3153   7.3325   7.3378   7.3814   7.4137   7.4582   7.4719   7.4958
     7.5396   7.5618   7.6074   7.6205   7.6272   7.6274   7.6657   7.7014
     7.7100   7.7422   7.7779   7.8011   7.8180   7.8618   7.8962   7.9297
     7.9746   8.0263   8.0483   8.0622   8.1158   8.1738   8.2082   8.2555
     8.3862   8.3939   8.4323   8.5680   8.6436   8.7075   8.7937   8.8184
     8.8234   8.8271   8.8346   8.8590   8.8653   8.8740   8.9572   9.0280
     9.0899   9.3314   9.8986  10.4077  10.4547  10.5346  10.5507  10.7121
    10.9507  11.2252  11.2908  11.7259  12.0213  12.2391  12.8093  12.8715
    13.4054  13.9957  14.0218  14.5736  14.8496  15.0517  15.7130  15.7727
    15.8768  15.9035  15.9384  16.1728  16.2521  16.4232  16.5235  16.5950
    16.9651  17.0032  17.3994  17.4481

          k = 0.2500 0.5774 0.0000 ( 23466 PWs)   bands (ev):

     3.7162   3.8003   3.9554   4.1109   4.2653   4.3973   4.5285   4.6428
     4.6440   4.6868   4.7209   4.7560   4.7625   4.8428   4.8856   4.9081
     4.9095   5.0040   5.0089   5.0494   5.0610   5.1277   5.1287   5.1868
     5.2063   5.2254   5.2269   5.2582   5.2863   5.3447   5.3737   5.4183
     5.4297   5.4891   5.5345   5.6319   5.6744   5.6903   5.7682   5.8211
     5.8568   5.8650   5.9075   5.9550   5.9659   5.9701   6.0079   6.0926
     6.1209   6.1958   6.2604   6.2789   6.3333   6.3976   6.4405   6.4700
     6.4885   6.5019   6.5341   6.5650   6.5945   6.6233   6.6437   6.6477
     6.6619   6.7247   6.7590   6.7769   6.7943   6.8100   6.8579   6.9123
     6.9267   6.9743   6.9969   7.0066   7.0949   7.0968   7.1610   7.1634
     7.2762   7.2809   7.3329   7.3395   7.4043   7.4821   7.4876   7.5149
     7.5249   7.5498   7.5499   7.6412   7.6644   7.7404   7.7907   7.8266
     7.8926   7.8956   7.9126   7.9361   7.9653   7.9655   8.0001   8.0648
     8.0703   8.0809   8.0884   8.1161   8.1236   8.1359   8.1992   8.2057
     8.2679   8.3120   8.3482   8.3611   8.4190   8.4506   8.4655   8.4853
     8.5027   8.5442   8.5783   8.6461   8.6946   8.7083   8.7437   8.7534
     8.7629   8.8277   8.8290   8.8658   8.8724   8.9226   8.9885   9.0491
     9.2347   9.8314  10.4852  11.0622  11.1394  11.1886  11.2766  11.4829
    11.7624  11.9134  12.1334  12.5849  12.6975  13.1037  13.4728  13.6139
    13.7300  13.8639  14.0739  14.3190  14.4083  14.7589  15.0190  15.0397
    15.1511  15.4668  15.6424  15.7192  15.8687  16.1809  16.4122  16.5279
    16.6622  17.1234  17.2649  17.4217

          k = 0.2500 0.7217 0.0000 ( 23545 PWs)   bands (ev):

     4.0573   4.1472   4.3157   4.4204   4.4445   4.4941   4.5203   4.5221
     4.5334   4.5956   4.6166   4.6448   4.6693   4.7308   4.7541   4.7712
     4.8253   4.8678   4.8705   4.8710   4.9274   4.9422   4.9519   5.0216
     5.0358   5.0871   5.0970   5.1370   5.1551   5.2307   5.2454   5.2455
     5.3226   5.3456   5.4113   5.4847   5.5542   5.6078   5.7374   5.7375
     5.7664   5.8702   5.8789   5.9510   6.0080   6.0213   6.0495   6.1586
     6.2037   6.2587   6.2727   6.3408   6.3541   6.4048   6.4194   6.4880
     6.5428   6.5478   6.5705   6.5971   6.6615   6.6743   6.7034   6.7241
     6.7465   6.8183   6.8251   6.8363   6.9558   6.9711   7.0154   7.0577
     7.1097   7.1160   7.1915   7.2252   7.2667   7.2961   7.2982   7.3760
     7.4055   7.4212   7.5588   7.5610   7.6466   7.6828   7.7641   7.7874
     7.8274   7.9012   7.9066   7.9297   7.9547   7.9576   8.0238   8.0709
     8.1519   8.1790   8.2103   8.2155   8.2246   8.2533   8.2796   8.2910
     8.3286   8.3514   8.4426   8.4865   8.4969   8.5275   8.5296   8.5594
     8.5826   8.5887   8.6075   8.6082   8.6678   8.6792   8.6937   8.7128
     8.7419   8.7848   8.7902   8.8265   8.8882   8.9108   8.9320   8.9534
     8.9587   8.9695   9.1198   9.2374   9.3338   9.3697   9.4532   9.6701
    10.1146  10.7190  11.4030  11.9548  11.9774  12.0005  12.0513  12.1281
    12.1367  12.2339  12.3699  12.5315  12.7385  12.8654  12.9473  13.1849
    13.3870  13.5954  13.5995  13.6689  14.0061  14.2792  14.3684  14.7017
    14.9542  15.2982  15.3649  15.4091  15.5721  15.6999  15.7187  16.0057
    16.0191  16.1812  16.4431  16.6572

          k = 0.2500-0.8660 0.0000 ( 23532 PWs)   bands (ev):

     4.2256   4.2452   4.3374   4.3378   4.4404   4.4607   4.4910   4.5049
     4.5399   4.5399   4.6621   4.6708   4.7017   4.7027   4.7381   4.7407
     4.8037   4.8040   4.8183   4.8186   4.9008   4.9065   4.9144   4.9179
     4.9540   4.9561   5.0498   5.0535   5.0733   5.0738   5.2358   5.2372
     5.3089   5.3121   5.3303   5.3307   5.5256   5.5267   5.6971   5.6986
     5.8414   5.8532   5.9757   5.9848   6.0575   6.0606   6.1312   6.1369
     6.1664   6.1703   6.2304   6.2354   6.4329   6.4333   6.4691   6.4728
     6.5466   6.5520   6.5844   6.5934   6.6516   6.6694   6.7080   6.7092
     6.7766   6.7883   6.8875   6.8981   7.0248   7.0309   7.0747   7.0800
     7.1663   7.1723   7.3148   7.3213   7.3628   7.3693   7.4363   7.4435
     7.5082   7.5159   7.6648   7.6778   7.6978   7.6986   7.9086   7.9200
     7.9228   7.9349   8.0648   8.0655   8.0979   8.1040   8.1055   8.1118
     8.2699   8.2704   8.3307   8.3461   8.3543   8.3588   8.3969   8.3986
     8.4067   8.4125   8.4367   8.4416   8.4719   8.4757   8.5313   8.5349
     8.6617   8.6688   8.6981   8.7041   8.7585   8.7609   8.7946   8.8042
     8.8329   8.8350   8.9094   8.9179   8.9741   8.9770   9.0361   9.0367
     9.0719   9.0798  10.3874  10.3901  10.4873  10.4899  10.6085  10.6109
    10.7385  10.7453  10.9231  10.9269  11.2058  11.2153  11.6122  11.6229
    12.1323  12.1418  12.7330  12.7492  13.3745  13.3857  13.5297  13.5399
    13.6481  13.6485  13.8068  13.8399  13.9221  13.9663  14.1454  14.1615
    14.4499  14.5025  14.7673  14.7877  15.0592  15.1025  15.4750  15.4945
    15.8064  15.8145  15.9634  15.9675

          k = 0.2500-0.7217 0.0000 ( 23545 PWs)   bands (ev):

     4.0309   4.1474   4.2965   4.4342   4.4684   4.4950   4.5070   4.5220
     4.5245   4.6100   4.6162   4.6370   4.6790   4.7266   4.7540   4.7590
     4.8261   4.8674   4.8719   4.8738   4.9283   4.9475   4.9520   5.0203
     5.0243   5.0918   5.0998   5.1357   5.1555   5.2321   5.2457   5.2474
     5.3244   5.3421   5.4115   5.4832   5.5505   5.6080   5.7341   5.7370
     5.7723   5.8674   5.8726   5.9545   6.0078   6.0315   6.0439   6.1676
     6.1969   6.2784   6.2881   6.3147   6.3623   6.4101   6.4383   6.5091
     6.5410   6.5421   6.5868   6.5982   6.6609   6.6795   6.7004   6.7166
     6.7395   6.8186   6.8381   6.8407   6.9521   6.9828   7.0156   7.0341
     7.1043   7.1136   7.1771   7.2335   7.2557   7.2866   7.3176   7.3836
     7.4067   7.4310   7.5457   7.5674   7.6462   7.6777   7.7635   7.7846
     7.8269   7.9012   7.9034   7.9356   7.9513   7.9548   8.0357   8.0684
     8.1498   8.1772   8.1943   8.2152   8.2206   8.2692   8.2751   8.2892
     8.3287   8.3574   8.4462   8.4917   8.5026   8.5198   8.5295   8.5564
     8.5802   8.5889   8.6034   8.6304   8.6678   8.6765   8.6902   8.7350
     8.7399   8.7846   8.7895   8.8146   8.8846   8.9108   8.9309   8.9498
     8.9529   8.9627   9.1220   9.2394   9.3316   9.3759   9.4545   9.6757
    10.1184  10.7165  11.4006  11.9624  11.9919  11.9985  12.0433  12.1131
    12.1217  12.2234  12.3533  12.5198  12.7085  12.8533  12.9353  13.1451
    13.3793  13.5630  13.5819  13.7056  14.0250  14.2805  14.4292  14.7165
    15.0075  15.2919  15.3768  15.4514  15.5813  15.6114  15.7112  15.9841
    16.0768  16.1681  16.4256  16.7186

          k = 0.2500-0.5774 0.0000 ( 23466 PWs)   bands (ev):

     3.6896   3.8019   3.9402   4.1198   4.2723   4.4075   4.5320   4.6382
     4.6476   4.6544   4.7230   4.7460   4.7626   4.8478   4.8829   4.8914
     4.9146   5.0041   5.0137   5.0477   5.0642   5.1253   5.1343   5.1875
     5.2104   5.2159   5.2306   5.2616   5.2861   5.3482   5.3785   5.4181
     5.4297   5.4896   5.5368   5.6249   5.6702   5.6944   5.7691   5.8242
     5.8508   5.8567   5.9268   5.9511   5.9678   5.9839   6.0114   6.0956
     6.1266   6.1982   6.2682   6.2839   6.3380   6.3997   6.4307   6.4628
     6.4961   6.5198   6.5516   6.5655   6.6073   6.6286   6.6455   6.6478
     6.6720   6.7257   6.7435   6.7794   6.8050   6.8074   6.8677   6.9199
     6.9209   6.9710   6.9771   7.0072   7.0942   7.1105   7.1458   7.1655
     7.2626   7.2841   7.3353   7.3363   7.4319   7.4755   7.4971   7.5157
     7.5243   7.5446   7.5537   7.6327   7.6624   7.7355   7.7955   7.8332
     7.8806   7.8953   7.9117   7.9337   7.9604   7.9844   8.0043   8.0650
     8.0707   8.0781   8.0801   8.1150   8.1204   8.1385   8.1967   8.2087
     8.2637   8.3141   8.3423   8.3617   8.4223   8.4527   8.4601   8.4823
     8.5075   8.5432   8.5771   8.6577   8.6957   8.7077   8.7496   8.7533
     8.7816   8.8287   8.8294   8.8752   8.8789   8.9020   8.9898   9.0263
     9.2324   9.8206  10.4748  11.0598  11.1371  11.1567  11.2748  11.4786
    11.7603  11.8996  12.1302  12.5838  12.6603  13.1072  13.4758  13.6387
    13.7110  13.8679  14.0565  14.3432  14.3991  14.7418  15.0045  15.0173
    15.1347  15.4766  15.6547  15.6965  15.8708  16.2015  16.4156  16.5105
    16.6799  17.1804  17.2722  17.4570

          k = 0.2500-0.4330 0.0000 ( 23431 PWs)   bands (ev):

     3.1096   3.2298   3.4037   3.6402   3.9043   4.1924   4.4633   4.6506
     4.7322   4.7496   4.7496   4.8256   4.8311   4.8734   4.9224   4.9303
     4.9997   5.0328   5.0478   5.1128   5.1377   5.1663   5.1916   5.2226
     5.2541   5.2546   5.3168   5.4567   5.4691   5.4714   5.5342   5.5626
     5.5897   5.6358   5.6701   5.7152   5.7667   5.7838   5.8217   5.8756
     5.9103   5.9106   5.9265   5.9312   5.9890   5.9965   6.0180   6.0441
     6.0504   6.1149   6.1509   6.1602   6.2044   6.2155   6.2513   6.2566
     6.3922   6.4009   6.4086   6.5173   6.5456   6.5710   6.5806   6.5883
     6.6202   6.6514   6.6594   6.6912   6.6946   6.6992   6.7232   6.7485
     6.8103   6.8406   6.8980   6.9693   6.9869   6.9872   6.9885   7.0299
     7.0327   7.1227   7.1834   7.1881   7.1971   7.2246   7.2696   7.2741
     7.3073   7.3325   7.3450   7.3875   7.4133   7.4396   7.4812   7.4923
     7.5536   7.5605   7.6097   7.6258   7.6266   7.6377   7.6623   7.7028
     7.7132   7.7422   7.7639   7.8056   7.8320   7.8618   7.8960   7.9248
     7.9759   8.0259   8.0445   8.0599   8.1093   8.1660   8.1991   8.2445
     8.3914   8.3986   8.4345   8.5619   8.6482   8.7288   8.7984   8.8153
     8.8179   8.8261   8.8467   8.8693   8.8756   8.8820   8.9328   9.0297
     9.0633   9.3168   9.8852  10.4068  10.4526  10.4992  10.5488  10.7089
    10.9494  11.2106  11.2908  11.7300  11.9822  12.2489  12.8199  12.8731
    13.4285  13.9681  14.0198  14.5949  14.8644  14.9893  15.6831  15.7317
    15.8652  15.9000  15.9490  16.1638  16.2519  16.4345  16.4987  16.6078
    16.9984  17.0377  17.4125  17.4648

          k = 0.2500-0.2887 0.0000 ( 23496 PWs)   bands (ev):

     2.5161   2.6499   2.8580   3.1380   3.4653   3.8300   4.1875   4.4020
     4.4683   4.4937   4.5956   4.6268   4.6440   4.6551   4.7088   4.7261
     4.7985   4.8387   4.8816   4.8834   4.9340   4.9903   5.0359   5.1027
     5.1104   5.2098   5.2378   5.3253   5.3801   5.4562   5.5276   5.5701
     5.6189   5.6303   5.7232   5.7816   5.8086   5.8269   5.9006   5.9057
     5.9153   5.9332   5.9629   6.0269   6.0332   6.0523   6.1032   6.1177
     6.1248   6.1417   6.1789   6.2389   6.2577   6.3533   6.3635   6.3824
     6.4343   6.4772   6.5174   6.5240   6.5685   6.5725   6.5934   6.6340
     6.6429   6.6533   6.6757   6.6970   6.7148   6.7416   6.7754   6.8023
     6.8101   6.8382   6.8611   6.8725   6.9070   6.9319   6.9499   6.9740
     6.9893   6.9950   7.0103   7.0487   7.1027   7.1201   7.1417   7.1728
     7.1807   7.2393   7.2618   7.2701   7.2808   7.3484   7.3599   7.3645
     7.4385   7.4532   7.4916   7.5466   7.5631   7.5778   7.6261   7.6754
     7.7088   7.7516   7.7518   7.7733   7.8304   7.8336   7.8991   7.9054
     7.9359   7.9804   7.9901   8.0538   8.0920   8.1622   8.1684   8.2155
     8.2503   8.3877   8.3931   8.4646   8.6251   8.6386   8.6705   8.6984
     8.7681   8.7756   8.7998   8.8165   8.8460   8.8829   8.9058   8.9900
     8.9957   9.0267   9.4425   9.8071   9.8524   9.9091   9.9741  10.0072
    10.1798  10.4702  10.6349  10.8935  11.3892  11.4273  12.0364  12.2850
    12.6968  12.9404  13.3695  14.0441  14.3442  14.6534  15.4012  15.4987
    15.6812  15.8321  15.8593  16.0099  16.2265  16.6123  17.0110  17.0250
    17.2092  17.2718  17.5290  17.6096

          k = 0.2500-0.1443 0.0000 ( 23484 PWs)   bands (ev):

     2.1047   2.2444   2.4663   2.7619   3.1095   3.4941   3.8690   4.0440
     4.1484   4.1689   4.3063   4.3332   4.3903   4.3955   4.4598   4.4941
     4.5225   4.5850   4.5854   4.6043   4.6419   4.7300   4.7550   4.8285
     4.8694   4.9470   5.0255   5.0997   5.2316   5.2444   5.3428   5.5529
     5.7351   5.8069   5.8142   5.8658   5.9114   5.9184   6.0374   6.0391
     6.0438   6.0608   6.0948   6.1350   6.1720   6.1860   6.2179   6.2899
     6.2900   6.3181   6.3667   6.3791   6.4417   6.4518   6.4915   6.5098
     6.5249   6.5358   6.5683   6.5809   6.6027   6.6078   6.6220   6.6351
     6.6469   6.6981   6.7065   6.7102   6.7187   6.7282   6.7516   6.7641
     6.7718   6.8172   6.8286   6.8360   6.8646   6.9129   6.9260   6.9536
     6.9581   6.9791   7.0189   7.0947   7.1083   7.1862   7.2003   7.2112
     7.2570   7.3104   7.3190   7.3520   7.3975   7.4293   7.4679   7.4720
     7.5444   7.5686   7.6077   7.6428   7.7108   7.7761   7.7799   7.8007
     7.8281   7.8611   7.9011   7.9238   7.9348   7.9654   8.0337   8.0361
     8.1381   8.1449   8.2028   8.2142   8.2208   8.2295   8.2758   8.2846
     8.3089   8.4435   8.4453   8.4865   8.5193   8.5200   8.5864   8.6048
     8.6314   8.6746   8.7148   8.7393   8.7448   8.7834   8.7902   8.8050
     8.9108   8.9447   9.1191   9.1253   9.2377   9.3304   9.3685   9.4528
     9.5666   9.6738  10.1194  10.1634  10.7223  10.8857  11.4061  11.7420
    12.1301  12.1531  12.8607  13.5826  14.1146  14.2757  15.1477  15.2937
    15.3674  15.4881  15.5756  15.7137  15.9911  16.4328  16.7431  16.8664
    16.8985  17.1920  17.4685  17.8121

          k = 0.3750 0.0000 0.0000 ( 23492 PWs)   bands (ev):

     2.4837   2.6153   2.8261   3.1052   3.4343   3.6675   3.7670   3.7994
     3.9150   4.0854   4.1571   4.2402   4.3734   4.4373   4.4990   4.5696
     4.6106   4.6277   4.6894   4.7217   4.8510   4.8532   4.8571   4.9016
     4.9870   5.0227   5.1070   5.1934   5.2288   5.3270   5.4837   5.5142
     5.6252   5.6748   5.7711   5.8321   5.8714   5.9044   5.9242   5.9462
     5.9786   5.9935   6.0439   6.0807   6.1144   6.1275   6.1478   6.2210
     6.3251   6.3560   6.4073   6.4164   6.4538   6.4954   6.5072   6.5194
     6.5451   6.5640   6.5711   6.5786   6.5948   6.6175   6.6364   6.6514
     6.6566   6.6921   6.6953   6.7023   6.7584   6.7594   6.8004   6.8156
     6.8246   6.8258   6.8949   6.9064   6.9132   6.9361   6.9510   6.9654
     6.9971   7.0025   7.0145   7.0648   7.1032   7.1055   7.1372   7.1927
     7.2015   7.2089   7.2286   7.3032   7.3195   7.3441   7.3895   7.4271
     7.4884   7.4912   7.5283   7.5406   7.6171   7.6229   7.6481   7.6597
     7.6627   7.7631   7.7779   7.7836   7.8851   7.8947   7.9514   7.9755
     7.9805   7.9925   8.0110   8.0299   8.0395   8.0534   8.0711   8.0729
     8.0807   8.1287   8.1923   8.2044   8.2172   8.2376   8.2722   8.3252
     8.3603   8.3718   8.3962   8.4396   8.4702   8.5291   8.5527   8.5919
     8.6288   8.6981   8.7395   8.8047   8.8418   8.8543   8.9008   8.9353
     9.1617   9.4071   9.7738   9.9560  10.4363  10.6042  11.1345  11.3682
    11.8684  12.2437  12.6423  12.8842  13.4424  14.3148  14.9640  15.3782
    15.6099  15.8029  16.4859  16.9730  17.1873  17.2532  17.4274  17.6152
    17.7786  17.9655  18.2683  18.7148

          k = 0.3750 0.1443 0.0000 ( 23495 PWs)   bands (ev):

     2.6247   2.7522   2.9593   3.2322   3.5564   3.8113   3.9062   3.9182
     4.0458   4.2066   4.2792   4.3514   4.4819   4.5704   4.6160   4.7079
     4.7371   4.7476   4.7915   4.8449   4.9555   4.9639   4.9651   4.9811
     5.0599   5.1182   5.1974   5.2824   5.3494   5.4180   5.5090   5.5274
     5.6446   5.6590   5.6884   5.7847   5.7947   5.8168   5.8513   5.8862
     5.9107   5.9302   5.9434   6.0072   6.0359   6.0367   6.0852   6.1215
     6.1575   6.2293   6.2697   6.2707   6.3095   6.3832   6.3902   6.4351
     6.4375   6.4484   6.4996   6.5113   6.5510   6.5576   6.5820   6.6035
     6.6246   6.6488   6.6814   6.6873   6.6913   6.7028   6.7219   6.7316
     6.7864   6.8035   6.8267   6.8335   6.8442   6.9049   6.9434   6.9882
     7.0249   7.0256   7.0681   7.0824   7.1461   7.1595   7.1612   7.2159
     7.2190   7.2836   7.2927   7.3166   7.3364   7.3549   7.3761   7.3998
     7.4276   7.4420   7.4675   7.4871   7.5045   7.5688   7.6046   7.6608
     7.7179   7.7265   7.7330   7.7683   7.7864   7.8279   7.9079   7.9164
     7.9412   7.9709   8.0439   8.0540   8.0712   8.0916   8.1760   8.1964
     8.2219   8.2532   8.2960   8.3093   8.3974   8.4091   8.4258   8.4696
     8.5001   8.5185   8.5560   8.5709   8.6233   8.6507   8.6672   8.6956
     8.7152   8.7183   8.7584   8.7634   8.7960   8.8427   8.9363   9.1134
     9.3989   9.5573   9.9655  10.1026  10.5996  10.7528  11.2834  11.5297
    12.0142  12.4024  12.7816  13.1423  13.5702  14.4050  15.1875  15.4787
    15.7697  15.9079  16.6162  17.0942  17.2682  17.3364  17.4539  17.6471
    17.8790  18.0360  18.3054  18.7604

          k = 0.3750 0.2887 0.0000 ( 23497 PWs)   bands (ev):

     3.0113   3.1251   3.3155   3.5615   3.8564   4.1853   4.2032   4.2697
     4.3579   4.4575   4.5211   4.5550   4.6736   4.7995   4.8169   4.9205
     4.9741   4.9786   5.0607   5.1104   5.1910   5.1970   5.1974   5.2274
     5.2740   5.3402   5.3796   5.3924   5.4252   5.5073   5.5195   5.5913
     5.6243   5.6308   5.6420   5.6933   5.7193   5.7352   5.7437   5.7569
     5.7884   5.8198   5.8529   5.8725   5.9051   5.9107   5.9664   5.9714
     5.9775   5.9971   6.0634   6.1014   6.1334   6.2230   6.2242   6.2886
     6.3021   6.3257   6.3416   6.3501   6.3948   6.4254   6.4486   6.4590
     6.4707   6.5388   6.5528   6.5874   6.6136   6.6289   6.6586   6.6995
     6.7142   6.7194   6.7390   6.7424   6.7862   6.8701   6.9166   6.9462
     6.9579   7.0031   7.0320   7.1097   7.1762   7.2380   7.2563   7.2814
     7.3168   7.3329   7.3353   7.3674   7.3745   7.4121   7.4264   7.4295
     7.4952   7.5202   7.5281   7.5939   7.5949   7.6279   7.6505   7.6549
     7.6950   7.6984   7.7140   7.7675   7.8586   7.8953   7.9474   7.9615
     7.9734   8.0990   8.1049   8.1365   8.1378   8.1446   8.1901   8.2290
     8.2731   8.3248   8.4006   8.5148   8.5508   8.5538   8.5785   8.6159
     8.6259   8.6774   8.6917   8.6996   8.7097   8.7548   8.8343   8.8905
     8.9305   9.0591   9.1038   9.1130   9.1681   9.2726   9.3522   9.4938
     9.8503   9.9088  10.4394  10.4425  11.0420  11.1197  11.7017  11.9130
    12.4202  12.7735  13.1649  13.8051  13.9110  14.7219  15.7787  15.7791
    16.1992  16.2473  16.9554  17.3853  17.4612  17.5147  17.5839  17.7757
    18.0604  18.1215  18.3487  18.6416

          k = 0.3750 0.4330 0.0000 ( 23475 PWs)   bands (ev):

     3.5115   3.6002   3.7594   3.9427   4.1543   4.3705   4.4586   4.5321
     4.5793   4.6221   4.6881   4.7126   4.7345   4.7467   4.8407   4.8439
     4.9561   4.9658   5.0508   5.0774   5.1177   5.1626   5.1754   5.2203
     5.2333   5.2505   5.3107   5.3240   5.3335   5.3589   5.4177   5.4737
     5.5216   5.5888   5.6018   5.6274   5.7135   5.7246   5.7366   5.8375
     5.8554   5.8756   5.9263   5.9753   5.9756   5.9929   6.0880   6.1051
     6.1079   6.1109   6.1888   6.2109   6.2244   6.2453   6.2492   6.3053
     6.3141   6.3335   6.3402   6.3888   6.4058   6.4896   6.4999   6.5570
     6.6031   6.6170   6.6299   6.6412   6.6740   6.7111   6.7551   6.7651
     6.8284   6.8677   6.8809   6.8863   6.9273   6.9703   6.9744   6.9806
     7.0068   7.0293   7.1108   7.1281   7.1893   7.2645   7.2760   7.3884
     7.3930   7.4286   7.4596   7.5098   7.5237   7.5658   7.5817   7.5993
     7.6438   7.6657   7.6700   7.6965   7.7039   7.7638   7.7877   7.8370
     7.9042   7.9214   7.9299   7.9555   7.9805   8.0054   8.0421   8.0917
     8.1405   8.1855   8.2113   8.2426   8.3053   8.3448   8.3556   8.3851
     8.4110   8.4264   8.4941   8.5991   8.6402   8.6837   8.6962   8.7671
     8.7812   8.7814   8.7894   8.8130   8.8316   8.8812   8.9519   9.0086
     9.1161   9.5676   9.5948   9.6253   9.6443   9.7108   9.8629  10.1338
    10.2425  10.5451  10.9081  11.0667  11.6167  11.6649  12.3131  12.4091
    13.0139  13.2163  13.7158  14.4046  14.6516  15.2996  16.2559  16.2640
    16.5329  16.6135  16.7285  16.8643  17.0640  17.0739  17.3816  17.5244
    17.7028  17.7119  17.9602  18.0948

          k = 0.3750 0.5774 0.0000 ( 23521 PWs)   bands (ev):

     3.8490   3.9364   4.1005   4.2567   4.3143   4.3602   4.3972   4.4195
     4.4654   4.5610   4.5636   4.5686   4.6376   4.6750   4.7586   4.7743
     4.7755   4.8088   4.8701   4.8748   4.8967   4.9406   4.9508   4.9674
     5.0173   5.0314   5.0532   5.1133   5.1555   5.1772   5.1898   5.2275
[...]
     8.7136   8.7175   8.7610   8.7628   8.7963   8.8427   8.9367   9.1182
     9.3957   9.5620   9.9609  10.1096  10.5951  10.7580  11.2783  11.5360
    12.0134  12.4053  12.7781  13.1457  13.5771  14.4069  15.1860  15.4806
    15.7751  15.9185  16.6193  17.0976  17.2731  17.3454  17.4582  17.6470
    17.8874  18.0400  18.3046  18.7626

          k =-0.5000 0.0000-0.0000 ( 23442 PWs)   bands (ev):

     3.1168   3.1168   3.2299   3.2299   3.4081   3.4081   3.6390   3.6390
     3.9048   3.9048   4.1915   4.1915   4.4646   4.4646   4.6596   4.6596
     4.7632   4.7632   4.8800   4.8800   5.0124   5.0124   5.1373   5.1374
     5.1701   5.1701   5.2179   5.2179   5.3151   5.3151   5.4517   5.4518
     5.5867   5.5868   5.7128   5.7128   5.8191   5.8191   5.8864   5.8864
     5.9253   5.9253   5.9905   5.9905   6.0473   6.0473   6.1418   6.1418
     6.2041   6.2041   6.2522   6.2523   6.3870   6.3870   6.4667   6.4667
     6.5370   6.5370   6.5908   6.5908   6.6310   6.6310   6.6728   6.6728
     6.6858   6.6858   6.6948   6.6949   6.7117   6.7117   6.7444   6.7444
     6.8098   6.8098   6.8713   6.8713   6.9031   6.9032   6.9541   6.9541
     6.9931   6.9932   7.1480   7.1481   7.1859   7.1860   7.1896   7.1896
     7.2347   7.2347   7.2731   7.2731   7.3433   7.3433   7.4147   7.4147
     7.4436   7.4436   7.5001   7.5001   7.5455   7.5455   7.5619   7.5619
     7.6113   7.6113   7.6252   7.6253   7.6673   7.6673   7.7053   7.7053
     7.8003   7.8003   7.8280   7.8280   7.8971   7.8972   7.9740   7.9741
     8.0374   8.0375   8.0700   8.0700   8.1103   8.1103   8.1687   8.1687
     8.2479   8.2479   8.3763   8.3763   8.4026   8.4026   8.5676   8.5676
     8.6971   8.6971   8.8213   8.8213   8.8294   8.8294   8.8680   8.8680
     9.3284   9.3284   9.8932   9.8932  10.5183  10.5184  11.2194  11.2194
    12.0018  12.0018  12.8765  12.8765  13.9823  13.9824  14.8619  14.8621
    15.8733  15.8734  16.4392  16.4414  17.4127  17.4136  17.8122  17.8127
    19.1502  19.1508  19.3078  19.3084

          k =-0.5000 0.1443-0.0000 ( 23476 PWs)   bands (ev):

     3.2527   3.2578   3.3641   3.3646   3.5346   3.5367   3.7582   3.7600
     4.0180   4.0187   4.3024   4.3039   4.5853   4.5861   4.7995   4.8068
     4.9041   4.9050   5.0127   5.0136   5.1377   5.1380   5.2192   5.2258
     5.2824   5.2843   5.2957   5.3041   5.3753   5.3792   5.4925   5.4985
     5.5996   5.6106   5.6754   5.6897   5.7431   5.7461   5.7581   5.7681
     5.8453   5.8505   5.8636   5.8664   5.9443   5.9456   5.9972   6.0089
     6.0449   6.0673   6.0788   6.0815   6.2313   6.2461   6.3675   6.3977
     6.4559   6.4695   6.4733   6.4889   6.5183   6.5261   6.5501   6.5834
     6.5968   6.6114   6.6256   6.6416   6.6638   6.6640   6.6776   6.6848
     6.7056   6.7166   6.7270   6.7363   6.7698   6.7763   6.8933   6.8985
     6.9786   6.9841   7.0766   7.0806   7.1717   7.1799   7.3009   7.3015
     7.3595   7.3617   7.3785   7.3838   7.3947   7.3949   7.4132   7.4270
     7.4503   7.4860   7.5033   7.5123   7.5784   7.5870   7.6411   7.6557
     7.7053   7.7089   7.7696   7.7726   7.7865   7.7944   7.8377   7.8515
     7.8661   7.8742   7.9357   7.9475   8.0804   8.0813   8.0975   8.0988
     8.1569   8.1718   8.1956   8.2106   8.2336   8.2441   8.2965   8.2995
     8.3049   8.3072   8.3525   8.3565   8.4370   8.4444   8.5614   8.5746
     8.6364   8.6661   8.7195   8.7210   8.7522   8.7584   9.0088   9.0230
     9.4670   9.4910  10.0114  10.0353  10.6286  10.6568  11.3398  11.3547
    12.1197  12.1417  12.9920  12.9969  14.2022  14.2152  14.9873  15.0006
    15.9941  15.9965  16.5338  16.5423  17.5505  17.5674  17.8681  17.8743
    19.2085  19.2167  19.3831  19.4016

          k =-0.5000 0.2887-0.0000 ( 23540 PWs)   bands (ev):

     3.6122   3.6305   3.7129   3.7152   3.8532   3.8600   4.0414   4.0488
     4.2633   4.2681   4.5101   4.5200   4.7750   4.7847   5.0407   5.0430
     5.2342   5.2477   5.2812   5.3043   5.3239   5.3402   5.3721   5.3776
     5.4053   5.4057   5.4252   5.4336   5.4573   5.4613   5.5188   5.5213
     5.5333   5.5341   5.5477   5.5665   5.5964   5.6073   5.6493   5.6518
     5.7160   5.7245   5.7727   5.7838   5.8176   5.8228   5.8306   5.8390
     5.9910   6.0062   6.0493   6.0586   6.0751   6.0774   6.1457   6.1544
     6.2061   6.2248   6.2465   6.2558   6.3298   6.3460   6.3995   6.4195
     6.4494   6.4509   6.4989   6.5131   6.5353   6.5364   6.5558   6.5861
     6.5935   6.5940   6.5959   6.6342   6.9678   6.9702   6.9773   6.9900
     7.0055   7.0167   7.0522   7.0572   7.1450   7.1809   7.1941   7.2083
     7.2607   7.2717   7.3357   7.3603   7.4258   7.4716   7.5264   7.5378
     7.5784   7.5820   7.6455   7.6470   7.6863   7.7004   7.7811   7.7835
     7.8044   7.8188   7.9418   7.9523   8.0235   8.0281   8.0551   8.0583
     8.1695   8.1935   8.2020   8.2150   8.2435   8.2556   8.3728   8.3732
     8.4054   8.4148   8.4316   8.4328   8.4496   8.4604   8.4927   8.4955
     8.5219   8.5353   8.5467   8.5827   8.6019   8.6021   8.6276   8.6367
     8.6869   8.6881   8.7087   8.7297   8.8452   8.8497   9.2719   9.2900
     9.7639   9.7943  10.3253  10.3595  10.9515  10.9998  11.6790  11.7032
    12.4483  12.4908  13.2873  13.3001  14.7763  14.8090  15.3723  15.3952
    16.3319  16.3465  16.8385  16.8644  17.8993  17.9498  18.0538  18.0623
    19.2773  19.2943  19.3316  19.3827

          k =-0.5000 0.4330-0.0000 ( 23522 PWs)   bands (ev):

     3.9576   4.0044   4.0643   4.0682   4.1802   4.2029   4.3165   4.3393
     4.4451   4.4672   4.5729   4.5957   4.7201   4.7367   4.8655   4.8735
     4.9663   4.9812   5.0369   5.0480   5.0946   5.1075   5.1423   5.1490
     5.2133   5.2182   5.2957   5.3047   5.3458   5.3552   5.4574   5.4579
     5.5065   5.5111   5.5904   5.5924   5.6246   5.6638   5.7428   5.7532
     5.8541   5.8549   5.9280   5.9407   6.0011   6.0012   6.0521   6.0553
     6.1153   6.1319   6.1759   6.1817   6.2303   6.2398   6.2824   6.2860
     6.3327   6.3362   6.3861   6.4079   6.4519   6.4562   6.4865   6.5053
     6.5411   6.5573   6.6237   6.6479   6.7136   6.7187   6.7436   6.7696
     6.7869   6.8096   6.8435   6.8449   6.8868   6.9073   6.9233   6.9258
     7.0150   7.0227   7.1082   7.1148   7.2247   7.2326   7.3915   7.3918
     7.4811   7.4851   7.5233   7.5281   7.5597   7.5598   7.5835   7.6069
     7.6160   7.6224   7.6964   7.7068   7.8200   7.8233   7.8536   7.8579
     8.0194   8.0224   8.0988   8.1147   8.2181   8.2240   8.2778   8.2791
     8.3648   8.3724   8.4626   8.4666   8.5093   8.5139   8.5372   8.5404
     8.5721   8.5732   8.6364   8.6380   8.6588   8.6972   8.7802   8.7829
     8.7895   8.7921   8.8199   8.8472   8.8584   8.8635   8.8794   8.8833
     8.9295   8.9309   9.0072   9.0077   9.1987   9.2012   9.6275   9.6428
    10.1667  10.1966  10.7819  10.8152  11.4390  11.4978  12.1808  12.2085
    12.9242  12.9832  13.7067  13.7264  15.4268  15.4832  15.9371  15.9664
    16.7602  16.7870  17.3384  17.4100  17.4834  17.5424  17.6802  17.7081
    17.9496  17.9842  18.1224  18.1260

          k =-0.5000 0.5774-0.0000 ( 23534 PWs)   bands (ev):

     4.0203   4.0661   4.1459   4.1469   4.2896   4.3229   4.4244   4.4690
     4.4952   4.4991   4.5218   4.5222   4.5913   4.6143   4.6344   4.6475
     4.7261   4.7334   4.7514   4.7602   4.8249   4.8267   4.8685   4.8710
     4.9393   4.9504   5.0193   5.0364   5.0978   5.0986   5.2305   5.2328
     5.2454   5.2471   5.3405   5.3447   5.5438   5.5549   5.7259   5.7334
     5.8638   5.8790   6.0330   6.0530   6.1780   6.2015   6.2299   6.2876
     6.3271   6.3379   6.3626   6.3654   6.4258   6.4372   6.4952   6.4990
     6.5354   6.5455   6.5732   6.5757   6.6098   6.6174   6.7028   6.7167
     6.7464   6.7511   6.8275   6.8459   6.9543   6.9593   7.0195   7.0240
     7.1026   7.1135   7.1819   7.1911   7.2604   7.2764   7.2986   7.3269
     7.4221   7.4323   7.5641   7.5648   7.6437   7.6608   7.7570   7.7870
     7.8275   7.8317   7.9024   7.9031   7.9300   7.9332   8.0278   8.0314
     8.1396   8.1576   8.1823   8.2072   8.2166   8.2187   8.2244   8.2268
     8.2743   8.2789   8.2868   8.2972   8.4432   8.4444   8.4831   8.4856
     8.5269   8.5314   8.5859   8.5886   8.6026   8.6089   8.6736   8.6782
     8.7398   8.7401   8.7788   8.7918   8.8035   8.8383   8.9103   8.9118
     8.9417   8.9755   9.1199   9.1209   9.2349   9.2355   9.3265   9.3324
     9.3629   9.3800   9.4530   9.4589   9.6722   9.6796  10.1153  10.1199
    10.7064  10.7270  11.3904  11.4109  12.0925  12.1501  12.8458  12.8730
    13.5459  13.6196  14.2724  14.2890  15.2911  15.3024  15.3583  15.3874
    15.5682  15.5849  15.7109  15.7261  15.9804  16.0053  16.4194  16.4428
    16.8950  16.8995  17.1922  17.1974

          k =-0.5000 0.7217-0.0000 ( 23516 PWs)   bands (ev):

     3.9705   4.0102   4.0974   4.0977   4.2487   4.2623   4.2813   4.2895
     4.3566   4.3577   4.4445   4.4521   4.4793   4.4794   4.5547   4.5616
     4.5833   4.5876   4.6313   4.6335   4.6446   4.6528   4.6917   4.6922
     4.7600   4.7667   4.8080   4.8170   4.9401   4.9430   5.0435   5.0436
     5.0716   5.0721   5.2045   5.2048   5.4716   5.4726   5.7259   5.7399
     5.9091   5.9247   6.0460   6.0945   6.1679   6.1856   6.2304   6.2547
     6.3147   6.3217   6.3551   6.3611   6.3996   6.4119   6.4716   6.4742
     6.5183   6.5254   6.6225   6.6453   6.7339   6.7556   6.8084   6.8085
     6.9046   6.9234   7.0109   7.0204   7.0790   7.0924   7.2742   7.2872
     7.3363   7.3399   7.4358   7.4436   7.5832   7.5906   7.7370   7.7702
     7.8342   7.8377   7.8814   7.9024   8.1203   8.1251   8.1509   8.1607
     8.2510   8.2559   8.3989   8.4068   8.4601   8.4638   8.5467   8.5565
     8.5633   8.5678   8.6000   8.6021   8.6501   8.6548   8.6704   8.6757
     8.7030   8.7065   8.7162   8.7216   8.7319   8.7351   8.7437   8.7448
     8.7608   8.7695   8.7812   8.7909   8.8058   8.8061   8.8442   8.8453
     8.8738   8.8773   8.9234   8.9313   8.9831   9.0177   9.0676   9.0683
     9.0731   9.0842   9.5701   9.6010   9.8203   9.8227  10.0490  10.0695
    10.2064  10.2293  10.3027  10.3269  10.4603  10.4904  10.8268  10.8502
    11.3916  11.3994  12.0491  12.0731  12.7460  12.7542  13.3165  13.3818
    13.4730  13.4777  13.5458  13.5917  13.6334  13.7449  13.9356  13.9599
    14.1974  14.3035  14.5326  14.5680  14.8214  14.9117  15.2136  15.2827
    15.5771  15.6052  15.8728  15.9169

          k =-0.5000-0.8660-0.0000 ( 23552 PWs)   bands (ev):

     3.9429   3.9802   4.0690   4.0691   4.1985   4.2189   4.2221   4.2498
     4.2922   4.2938   4.3982   4.4065   4.4366   4.4396   4.4905   4.4978
     4.5365   4.5411   4.5701   4.5709   4.6014   4.6115   4.6535   4.6641
     4.6921   4.6931   4.7196   4.7248   4.8819   4.8848   4.9825   4.9843
     5.0052   5.0055   5.1591   5.1592   5.4395   5.4409   5.7186   5.7328
     5.9329   5.9396   6.0249   6.0810   6.1615   6.1653   6.2109   6.2322
     6.3103   6.3178   6.3220   6.3238   6.3709   6.3770   6.4310   6.4320
     6.5616   6.5987   6.6989   6.7259   6.7697   6.7727   6.8078   6.8198
     6.9968   7.0120   7.0493   7.0745   7.1423   7.1496   7.2640   7.2694
     7.4682   7.4782   7.5528   7.5553   7.5853   7.6027   7.8455   7.8492
     7.9251   7.9690   8.0528   8.0620   8.1210   8.1314   8.3775   8.3805
     8.3857   8.3864   8.4935   8.4999   8.5764   8.5889   8.6856   8.7008
     8.7014   8.7267   8.7430   8.7451   8.7793   8.8046   8.8078   8.8097
     8.8174   8.8333   8.8417   8.8476   8.8479   8.8504   8.8675   8.8702
     8.8888   8.8920   8.9093   8.9182   8.9480   8.9499   8.9740   8.9862
     9.0218   9.0253   9.0282   9.0329   9.0663   9.0760   9.2219   9.2221
     9.2227   9.2229  10.1777  10.2546  10.5556  10.5652  10.9120  10.9654
    11.2163  11.2526  11.4657  11.4690  11.5900  11.6332  11.6945  11.7386
    11.7757  11.8024  11.8261  11.8726  11.8840  11.8916  11.9045  12.1225
    12.1238  12.1240  12.1244  12.1724  13.4259  13.6277  13.7292  13.7496
    13.9284  14.0767  14.2730  14.3120  14.5063  14.6076  14.8561  14.9289
    15.2873  15.4278  15.8416  15.9662

     the Fermi energy is    10.7393 ev

!    total energy              =  -20153.51238062 Ry

     total all-electron energy =   -988623.510748 Ry
     estimated scf accuracy    <       0.00000004 Ry
     smearing contrib. (-TS)   =      -0.00035366 Ry
     internal energy E=F+TS    =  -20153.51202696 Ry

     The total energy is F=E-TS. E is the sum of the following terms:
     one-electron contribution =   -8804.03305687 Ry
     hartree contribution      =    4727.55837591 Ry
     xc contribution           =    -833.60129488 Ry
     ewald contribution        =    2761.89820046 Ry
     one-center paw contrib.   =  -18005.33425158 Ry

     convergence has been achieved in  38 iterations

     negative rho (up, down):  2.272E-03 0.000E+00

     Forces acting on atoms (cartesian axes, Ry/au):

     atom    1 type  1   force =    -0.00005194   -0.00006000   -0.00308270
     atom    2 type  1   force =     0.00004492    0.00008557    0.00310514
     atom    3 type  1   force =     0.00004814    0.00000426   -0.00005397
     atom    4 type  1   force =     0.00172053   -0.00515713   -0.00374674
     atom    5 type  1   force =    -0.00004104    0.00000182    0.00004314
     atom    6 type  1   force =     0.00001706   -0.00002263    0.00507802
     atom    7 type  1   force =    -0.00007915    0.00004260    0.00170064
     atom    8 type  1   force =    -0.00163790    0.00522270    0.00379701
     atom    9 type  1   force =     0.00000295    0.00000966   -0.00034202
     atom   10 type  1   force =     0.00008043   -0.00001473   -0.00173609
     atom   11 type  1   force =    -0.00002074    0.00004518   -0.00507959
     atom   12 type  1   force =    -0.00003370   -0.00049062    0.00053927
     atom   13 type  1   force =    -0.00005864    0.00049485   -0.00021946
     atom   14 type  1   force =     0.00001144   -0.00002471    0.00508563
     atom   15 type  1   force =    -0.00007534   -0.00000618    0.00169763
     atom   16 type  1   force =    -0.00163950    0.00517542    0.00379875
     atom   17 type  1   force =     0.00000552    0.00000979   -0.00033884
     atom   18 type  1   force =     0.00007693   -0.00001999   -0.00174275
     atom   19 type  1   force =    -0.00001325   -0.00000542   -0.00508476
     atom   20 type  1   force =    -0.00003241   -0.00054192    0.00053836
     atom   21 type  1   force =    -0.00005219    0.00049193   -0.00021593
     atom   22 type  1   force =    -0.00004742   -0.00005990   -0.00308422
     atom   23 type  1   force =     0.00005177    0.00002936    0.00310838
     atom   24 type  1   force =     0.00004612   -0.00004934   -0.00005191
     atom   25 type  1   force =     0.00171937   -0.00515477   -0.00374817
     atom   26 type  1   force =    -0.00004195   -0.00000583    0.00003517

     Total force =     0.014536     Total SCF correction =     0.000556
     Message from routine bfgs:
     history already reset at previous step: exiting
     Energy error            =      1.8E-03 Ry
     Gradient error          =      5.1E-03 Ry/Bohr

     bfgs converged in   8 scf cycles and   4 bfgs steps
     (criteria: energy <  1.0E-04 Ry, force <  1.0E-03 Ry/Bohr)

     End of BFGS Geometry Optimization

     Final energy             =  -20153.5123806172 Ry

     File ./pwscf.bfgs deleted, as requested
Begin final coordinates

ATOMIC_POSITIONS (angstrom)
Au           -0.0000000000        0.0000000000       -0.0000000000    0   0   1
Au            5.0991277561       -0.2761417687       28.8451587017    0   0   1
Au            5.0991339819       -0.2761417687       21.6338681730    0   0   1
Au            5.0991389889        0.0000000000       14.4225793509    0   0   1
Au            5.0991452147        0.0000000000        7.2112897049    0   0   1
Au            1.6997150733        0.0000000000        2.4037630192    0   0   1
Au            1.6996977676       -0.2761417687       24.0376304861    0   0   1
Au            1.6997039934       -0.2761417687       16.8263417228    0   0   1
Au            1.6997090005        0.0000000000        9.6150537833    0   0   1
Au            3.3994301414        0.0000000000        4.8075268622    0   0   1
Au            3.3994129888       -0.2761417687       26.4413963887    0   0   1
Au            3.3994189086       -0.2761417687       19.2301058012    0   0   1
Au            3.3994248284        0.0000000000       12.0188187443    0   0   1
Au            4.2492909414        1.4719970299        2.4037630192    0   0   1
Au            4.2492725751        1.1958552612       24.0376304861    0   0   1
Au            4.2492788009        1.1958552612       16.8263417228    0   0   1
Au            4.2492850215        1.4719970299        9.6150537833    0   0   1
Au            0.8498539674        1.4719970299        4.8075268622    0   0   1
Au            0.8498368147        1.1958552612       26.4413963887    0   0   1
Au            0.8498428875        1.1958552612       19.2301058012    0   0   1
Au            0.8498488838        1.4719970299       12.0188187443    0   0   1
Au            2.5495761740        1.4719970299       -0.0000000000    0   0   1
Au            2.5495526478        1.1958552612       28.8451587017    0   0   1
Au            2.5495578078        1.1958552612       21.6338681730    0   0   1
Au            2.5495637276        1.4719970299       14.4225793509    0   0   1
Au            2.5495699534        1.4719970299        7.2112897049    0   0   1
End final coordinates



     Writing all to output data dir ./pwscf.save/
 
     init_run     :     27.20s CPU     29.09s WALL (       1 calls)
     electrons    :   5450.49s CPU   5508.82s WALL (       2 calls)
     update_pot   :      0.72s CPU      0.74s WALL (       1 calls)
     forces       :     23.20s CPU     23.44s WALL (       2 calls)

     Called by init_run:
     wfcinit      :     26.35s CPU     27.65s WALL (       1 calls)
     potinit      :      0.48s CPU      0.73s WALL (       1 calls)
     hinit0       :      0.23s CPU      0.52s WALL (       1 calls)

     Called by electrons:
     c_bands      :   4992.91s CPU   5044.78s WALL (      62 calls)
     sum_band     :    431.62s CPU    436.24s WALL (      62 calls)
     v_of_rho     :      1.63s CPU      2.41s WALL (      63 calls)
     newd         :      5.06s CPU      6.30s WALL (      63 calls)
     PAW_pot      :     19.91s CPU     19.98s WALL (      64 calls)
     mix_rho      :      0.51s CPU      0.52s WALL (      62 calls)

     Called by c_bands:
     init_us_2    :     44.79s CPU     45.17s WALL (    6400 calls)
     init_us_2:cp :     44.73s CPU     45.14s WALL (    6400 calls)
     cegterg      :   4791.97s CPU   4842.42s WALL (    3157 calls)

     Called by *egterg:
     cdiaghg      :    316.55s CPU    319.19s WALL (   15648 calls)
     h_psi        :   2372.39s CPU   2398.09s WALL (   15855 calls)
     s_psi        :    464.86s CPU    466.86s WALL (   15855 calls)
     g_psi        :      9.51s CPU      9.62s WALL (   12648 calls)

     Called by h_psi:
     h_psi:calbec :    449.79s CPU    451.54s WALL (   15855 calls)
     vloc_psi     :   1390.64s CPU   1405.84s WALL (   15855 calls)
     add_vuspsi   :    512.64s CPU    515.04s WALL (   15855 calls)

     General routines
     calbec       :    604.50s CPU    606.81s WALL (   19405 calls)
     fft          :      1.48s CPU      2.50s WALL (     717 calls)
     ffts         :      0.08s CPU      0.09s WALL (      62 calls)
     fftw         :   1499.58s CPU   1514.32s WALL ( 3654152 calls)
     davcio       :      0.01s CPU     11.03s WALL (      50 calls)
 
     Parallel routines
 
     PWSCF        :      1h32m CPU      1h33m WALL

 
   This run was terminated on:  11:13:22  16Feb2024            

=------------------------------------------------------------------------------=
   JOB DONE.
=------------------------------------------------------------------------------=
