MPI startup(): Warning: I_MPI_PMI_LIBRARY will be ignored since the hydra process manager was found
MPI startup(): Warning: I_MPI_PMI_LIBRARY will be ignored since the hydra process manager was found
MPI startup(): Warning: I_MPI_PMI_LIBRARY will be ignored since the hydra process manager was found
MPI startup(): Warning: I_MPI_PMI_LIBRARY will be ignored since the hydra process manager was found
MPI startup(): Warning: I_MPI_PMI_LIBRARY will be ignored since the hydra process manager was found
MPI startup(): Warning: I_MPI_PMI_LIBRARY will be ignored since the hydra process manager was found
MPI startup(): Warning: I_MPI_PMI_LIBRARY will be ignored since the hydra process manager was found
MPI startup(): Warning: I_MPI_PMI_LIBRARY will be ignored since the hydra process manager was found
MPI startup(): Warning: I_MPI_PMI_LIBRARY will be ignored since the hydra process manager was found
MPI startup(): Warning: I_MPI_PMI_LIBRARY will be ignored since the hydra process manager was found

     Program PWSCF v.7.0 starts on 18Feb2024 at 14:59:37 

     This program is part of the open-source Quantum ESPRESSO suite
     for quantum simulation of materials; please cite
         "P. Giannozzi et al., J. Phys.:Condens. Matter 21 395502 (2009);
         "P. Giannozzi et al., J. Phys.:Condens. Matter 29 465901 (2017);
         "P. Giannozzi et al., J. Chem. Phys. 152 154105 (2020);
          URL http://www.quantum-espresso.org", 
     in publications or presentations arising from this work. More details at
     http://www.quantum-espresso.org/quote

     Parallel version (MPI), running on    10 processors

     MPI processes distributed on     1 nodes
     R & G space division:  proc/nbgrp/npool/nimage =      10
     163299 MiB available memory on the printing compute node when the environment starts
 
     Reading input from GSF111R_0.15.in
Warning: card &CELL ignored
Warning: card / ignored

     Current dimensions of program PWSCF are:
     Max number of different atomic species (ntypx) = 10
     Max number of k-points (npk) =  40000
     Max angular momentum in pseudopotentials (lmaxx) =  4
     file Au.pbe-n-kjpaw_psl.1.0.0.UPF: wavefunction(s)  6S 5D renormalized
     Found identity + ( -0.5000  0.5000  0.0000) symmetry
     This is a supercell, fractional translations are disabled

     Subspace diagonalization in iterative solution of the eigenvalue problem:
     one sub-group per band group will be used
     scalapack distributed-memory algorithm (size of sub-group:  3*  3 procs)

 
     Parallelization info
     --------------------
     sticks:   dense  smooth     PW     G-vecs:    dense   smooth      PW
     Min          85      85     25                18799    18799    3045
     Max          87      87     26                18816    18816    3065
     Sum         859     859    251               188065   188065   30575
 
     Using Slab Decomposition
 


     bravais-lattice index     =            0
     lattice parameter (alat)  =       9.6360  a.u.
     unit-cell volume          =    3935.2145 (a.u.)^3
     number of atoms/cell      =           26
     number of atomic types    =            1
     number of electrons       =       286.00
     number of Kohn-Sham states=          172
     kinetic-energy cutoff     =      50.0000  Ry
     charge density cutoff     =     200.0000  Ry
     scf convergence threshold =      1.0E-06
     mixing beta               =       0.0090
     number of iterations used =            8  plain     mixing
     energy convergence thresh.=      1.0E-04
     force convergence thresh. =      1.0E-03
     Exchange-correlation= SLA  PW   PBX  PBC
                           (   1   4   3   4   0   0   0)
     nstep                     =           50


     celldm(1)=   9.635999  celldm(2)=   0.000000  celldm(3)=   0.000000
     celldm(4)=   0.000000  celldm(5)=   0.000000  celldm(6)=   0.000000

     crystal axes: (cart. coord. in units of alat)
               a(1) = (   1.000000   0.000000   0.000000 )  
               a(2) = (   0.000000   0.577350   0.000000 )  
               a(3) = (  -0.000005   0.000000   7.617966 )  

     reciprocal axes: (cart. coord. in units 2 pi/alat)
               b(1) = (  1.000000  0.000000  0.000001 )  
               b(2) = (  0.000000  1.732052  0.000000 )  
               b(3) = (  0.000000  0.000000  0.131269 )  


     PseudoPot. # 1 for Au read from file:
     ./Au.pbe-n-kjpaw_psl.1.0.0.UPF
     MD5 check sum: 4db85c736373c707a97ce4c36c2a9d23
     Pseudo is Projector augmented-wave + core cor, Zval = 11.0
     Generated using &quot;atomic&quot; code by A. Dal Corso  v.6.3
     Shape of augmentation charge: PSQ
     Using radial grid of 1279 points,  6 beta functions with: 
                l(1) =   0
                l(2) =   0
                l(3) =   1
                l(4) =   1
                l(5) =   2
                l(6) =   2
     Q(r) pseudized with 0 coefficients 


     atomic species   valence    mass     pseudopotential
        Au            11.00   196.96657     Au( 1.00)

     No symmetry found



   Cartesian axes

     site n.     atom                  positions (alat units)
         1           Au  tau(   1) = (   0.0000000   0.0000000   0.0000000  )
         2           Au  tau(   2) = (   0.9999954   0.0866026   5.6568550  )
         3           Au  tau(   3) = (   0.9999966   0.0866026   4.2426411  )
         4           Au  tau(   4) = (   0.9999976   0.0000000   2.8284275  )
         5           Au  tau(   5) = (   0.9999988   0.0000000   1.4142138  )
         6           Au  tau(   6) = (   0.3333329   0.0000000   0.4714045  )
         7           Au  tau(   7) = (   0.3333296   0.0866026   4.7140455  )
         8           Au  tau(   8) = (   0.3333308   0.0866026   3.2998319  )
         9           Au  tau(   9) = (   0.3333318   0.0000000   1.8856185  )
        10           Au  tau(  10) = (   0.6666659   0.0000000   0.9428093  )
        11           Au  tau(  11) = (   0.6666625   0.0866026   5.1854506  )
        12           Au  tau(  12) = (   0.6666637   0.0866026   3.7712367  )
        13           Au  tau(  13) = (   0.6666649   0.0000000   2.3570234  )
        14           Au  tau(  14) = (   0.8333330   0.2886749   0.4714045  )
        15           Au  tau(  15) = (   0.8333294   0.3752776   4.7140455  )
        16           Au  tau(  16) = (   0.8333306   0.3752776   3.2998319  )
        17           Au  tau(  17) = (   0.8333318   0.2886749   1.8856185  )
        18           Au  tau(  18) = (   0.1666658   0.2886749   0.9428093  )
        19           Au  tau(  19) = (   0.1666624   0.3752776   5.1854506  )
        20           Au  tau(  20) = (   0.1666636   0.3752776   3.7712367  )
        21           Au  tau(  21) = (   0.1666648   0.2886749   2.3570234  )
        22           Au  tau(  22) = (   0.5000001   0.2886749   0.0000000  )
        23           Au  tau(  23) = (   0.4999955   0.3752776   5.6568550  )
        24           Au  tau(  24) = (   0.4999965   0.3752776   4.2426411  )
        25           Au  tau(  25) = (   0.4999977   0.2886749   2.8284275  )
        26           Au  tau(  26) = (   0.4999989   0.2886749   1.4142138  )

     number of k points=    50  Gaussian smearing, width (Ry)=  0.0080
                       cart. coord. in units 2pi/alat
        k(    1) = (   0.0000000   0.0000000   0.0000000), wk =   0.0208333
        k(    2) = (   0.0000000   0.1443376   0.0000000), wk =   0.0416667
        k(    3) = (   0.0000000   0.2886753   0.0000000), wk =   0.0416667
        k(    4) = (   0.0000000   0.4330129   0.0000000), wk =   0.0416667
        k(    5) = (   0.0000000   0.5773506   0.0000000), wk =   0.0416667
        k(    6) = (   0.0000000   0.7216882   0.0000000), wk =   0.0416667
        k(    7) = (   0.0000000  -0.8660259   0.0000000), wk =   0.0208333
        k(    8) = (   0.1250000   0.0000000   0.0000001), wk =   0.0416667
        k(    9) = (   0.1250000   0.1443376   0.0000001), wk =   0.0416667
        k(   10) = (   0.1250000   0.2886753   0.0000001), wk =   0.0416667
        k(   11) = (   0.1250000   0.4330129   0.0000001), wk =   0.0416667
        k(   12) = (   0.1250000   0.5773506   0.0000001), wk =   0.0416667
        k(   13) = (   0.1250000   0.7216882   0.0000001), wk =   0.0416667
        k(   14) = (   0.1250000  -0.8660259   0.0000001), wk =   0.0416667
        k(   15) = (   0.1250000  -0.7216882   0.0000001), wk =   0.0416667
        k(   16) = (   0.1250000  -0.5773506   0.0000001), wk =   0.0416667
        k(   17) = (   0.1250000  -0.4330129   0.0000001), wk =   0.0416667
        k(   18) = (   0.1250000  -0.2886753   0.0000001), wk =   0.0416667
        k(   19) = (   0.1250000  -0.1443376   0.0000001), wk =   0.0416667
        k(   20) = (   0.2500000   0.0000000   0.0000002), wk =   0.0416667
        k(   21) = (   0.2500000   0.1443376   0.0000002), wk =   0.0416667
        k(   22) = (   0.2500000   0.2886753   0.0000002), wk =   0.0416667
        k(   23) = (   0.2500000   0.4330129   0.0000002), wk =   0.0416667
        k(   24) = (   0.2500000   0.5773506   0.0000002), wk =   0.0416667
        k(   25) = (   0.2500000   0.7216882   0.0000002), wk =   0.0416667
        k(   26) = (   0.2500000  -0.8660259   0.0000002), wk =   0.0416667
        k(   27) = (   0.2500000  -0.7216882   0.0000002), wk =   0.0416667
        k(   28) = (   0.2500000  -0.5773506   0.0000002), wk =   0.0416667
        k(   29) = (   0.2500000  -0.4330129   0.0000002), wk =   0.0416667
        k(   30) = (   0.2500000  -0.2886753   0.0000002), wk =   0.0416667
        k(   31) = (   0.2500000  -0.1443376   0.0000002), wk =   0.0416667
        k(   32) = (   0.3750000   0.0000000   0.0000002), wk =   0.0416667
        k(   33) = (   0.3750000   0.1443376   0.0000002), wk =   0.0416667
        k(   34) = (   0.3750000   0.2886753   0.0000002), wk =   0.0416667
        k(   35) = (   0.3750000   0.4330129   0.0000002), wk =   0.0416667
        k(   36) = (   0.3750000   0.5773506   0.0000002), wk =   0.0416667
        k(   37) = (   0.3750000   0.7216882   0.0000002), wk =   0.0416667
        k(   38) = (   0.3750000  -0.8660259   0.0000002), wk =   0.0416667
        k(   39) = (   0.3750000  -0.7216882   0.0000002), wk =   0.0416667
        k(   40) = (   0.3750000  -0.5773506   0.0000002), wk =   0.0416667
        k(   41) = (   0.3750000  -0.4330129   0.0000002), wk =   0.0416667
        k(   42) = (   0.3750000  -0.2886753   0.0000002), wk =   0.0416667
        k(   43) = (   0.3750000  -0.1443376   0.0000002), wk =   0.0416667
        k(   44) = (  -0.5000000   0.0000000  -0.0000003), wk =   0.0208333
        k(   45) = (  -0.5000000   0.1443376  -0.0000003), wk =   0.0416667
        k(   46) = (  -0.5000000   0.2886753  -0.0000003), wk =   0.0416667
        k(   47) = (  -0.5000000   0.4330129  -0.0000003), wk =   0.0416667
        k(   48) = (  -0.5000000   0.5773506  -0.0000003), wk =   0.0416667
        k(   49) = (  -0.5000000   0.7216882  -0.0000003), wk =   0.0416667
        k(   50) = (  -0.5000000  -0.8660259  -0.0000003), wk =   0.0208333

     Dense  grid:   188065 G-vectors     FFT dimensions: (  45,  25, 360)

     Estimated max dynamical RAM per process >     418.32 MB

     Estimated total dynamical RAM >       4.09 GB

     Initial potential from superposition of free atoms

     starting charge     285.9971, renormalised to     286.0000

     negative rho (up, down):  2.490E-03 0.000E+00
     Starting wfcs are  234 randomized atomic wfcs
     Checking if some PAW data can be deallocated... 

     total cpu time spent up to now is       28.0 secs

     Self-consistent Calculation

     iteration #  1     ecut=    50.00 Ry     beta= 0.01
     Davidson diagonalization with overlap
     ethr =  1.00E-02,  avg # of iterations =  5.0

     Threshold (ethr) on eigenvalues was too large:
     Diagonalizing with lowered threshold

     Davidson diagonalization with overlap
     ethr =  4.04E-04,  avg # of iterations =  4.7

     negative rho (up, down):  2.477E-03 0.000E+00

     total cpu time spent up to now is      176.3 secs

     total energy              =  -20153.86064578 Ry
     estimated scf accuracy    <       1.47423402 Ry

     iteration #  2     ecut=    50.00 Ry     beta= 0.01
     Davidson diagonalization with overlap
     ethr =  5.15E-04,  avg # of iterations =  1.0

     negative rho (up, down):  2.465E-03 0.000E+00

     total cpu time spent up to now is      224.8 secs

     total energy              =  -20153.87347051 Ry
     estimated scf accuracy    <       1.25035513 Ry

     iteration #  3     ecut=    50.00 Ry     beta= 0.01
     Davidson diagonalization with overlap
     ethr =  4.37E-04,  avg # of iterations =  1.0

     negative rho (up, down):  2.386E-03 0.000E+00

     total cpu time spent up to now is      273.0 secs

     total energy              =  -20153.75643561 Ry
     estimated scf accuracy    <       1.21438740 Ry

     iteration #  4     ecut=    50.00 Ry     beta= 0.01
     Davidson diagonalization with overlap
     ethr =  4.25E-04,  avg # of iterations =  1.0

     negative rho (up, down):  2.258E-03 0.000E+00

     total cpu time spent up to now is      321.3 secs

     total energy              =  -20153.54632128 Ry
     estimated scf accuracy    <       0.91098954 Ry

     iteration #  5     ecut=    50.00 Ry     beta= 0.01
     Davidson diagonalization with overlap
     ethr =  3.19E-04,  avg # of iterations =  1.1

     negative rho (up, down):  2.174E-03 0.000E+00

     total cpu time spent up to now is      370.0 secs

     total energy              =  -20153.47415728 Ry
     estimated scf accuracy    <       0.40722568 Ry

     iteration #  6     ecut=    50.00 Ry     beta= 0.01
     Davidson diagonalization with overlap
     ethr =  1.42E-04,  avg # of iterations =  3.2

     negative rho (up, down):  2.205E-03 0.000E+00

     total cpu time spent up to now is      426.2 secs

     total energy              =  -20153.53092101 Ry
     estimated scf accuracy    <       0.14925639 Ry

     iteration #  7     ecut=    50.00 Ry     beta= 0.01
     Davidson diagonalization with overlap
     c_bands:  4 eigenvalues not converged
     c_bands:  1 eigenvalues not converged
     ethr =  5.22E-05,  avg # of iterations =  8.3

     negative rho (up, down):  2.116E-03 0.000E+00

     total cpu time spent up to now is      492.6 secs

     total energy              =  -20153.44681312 Ry
     estimated scf accuracy    <       0.22945514 Ry

     iteration #  8     ecut=    50.00 Ry     beta= 0.01
     Davidson diagonalization with overlap
     ethr =  5.22E-05,  avg # of iterations =  3.6

     negative rho (up, down):  2.113E-03 0.000E+00

     total cpu time spent up to now is      575.9 secs

     total energy              =  -20153.51154872 Ry
     estimated scf accuracy    <       0.03091343 Ry

     iteration #  9     ecut=    50.00 Ry     beta= 0.01
     Davidson diagonalization with overlap
     c_bands:  1 eigenvalues not converged
     c_bands:  1 eigenvalues not converged
     c_bands:  1 eigenvalues not converged
     ethr =  1.08E-05,  avg # of iterations = 10.0

     negative rho (up, down):  2.118E-03 0.000E+00

     total cpu time spent up to now is      683.2 secs

     total energy              =  -20153.52122116 Ry
     estimated scf accuracy    <       0.04919603 Ry

     iteration # 10     ecut=    50.00 Ry     beta= 0.01
     Davidson diagonalization with overlap
     ethr =  1.08E-05,  avg # of iterations =  1.9

     negative rho (up, down):  2.151E-03 0.000E+00

     total cpu time spent up to now is      736.0 secs

     total energy              =  -20153.51693867 Ry
     estimated scf accuracy    <       0.05015436 Ry

     iteration # 11     ecut=    50.00 Ry     beta= 0.01
     Davidson diagonalization with overlap
     ethr =  1.08E-05,  avg # of iterations =  2.6

     negative rho (up, down):  2.150E-03 0.000E+00

     total cpu time spent up to now is      791.8 secs

     total energy              =  -20153.51729924 Ry
     estimated scf accuracy    <       0.04164310 Ry

     iteration # 12     ecut=    50.00 Ry     beta= 0.01
     Davidson diagonalization with overlap
     ethr =  1.08E-05,  avg # of iterations =  1.0

     negative rho (up, down):  2.134E-03 0.000E+00

     total cpu time spent up to now is      840.5 secs

     total energy              =  -20153.52164477 Ry
     estimated scf accuracy    <       0.02471279 Ry

     iteration # 13     ecut=    50.00 Ry     beta= 0.01
     Davidson diagonalization with overlap
     ethr =  8.64E-06,  avg # of iterations =  1.1

     negative rho (up, down):  2.146E-03 0.000E+00

     total cpu time spent up to now is      889.3 secs

     total energy              =  -20153.51824904 Ry
     estimated scf accuracy    <       0.03615430 Ry

     iteration # 14     ecut=    50.00 Ry     beta= 0.01
     Davidson diagonalization with overlap
     ethr =  8.64E-06,  avg # of iterations =  1.0

     negative rho (up, down):  2.170E-03 0.000E+00

     total cpu time spent up to now is      937.7 secs

     total energy              =  -20153.51395209 Ry
     estimated scf accuracy    <       0.02617449 Ry

     iteration # 15     ecut=    50.00 Ry     beta= 0.01
     Davidson diagonalization with overlap
     ethr =  8.64E-06,  avg # of iterations =  1.0

     negative rho (up, down):  2.163E-03 0.000E+00

     total cpu time spent up to now is      986.3 secs

     total energy              =  -20153.51617775 Ry
     estimated scf accuracy    <       0.01523408 Ry

     iteration # 16     ecut=    50.00 Ry     beta= 0.01
     Davidson diagonalization with overlap
     ethr =  5.33E-06,  avg # of iterations =  1.0

     negative rho (up, down):  2.178E-03 0.000E+00

     total cpu time spent up to now is     1034.7 secs

     total energy              =  -20153.51483388 Ry
     estimated scf accuracy    <       0.01879388 Ry

     iteration # 17     ecut=    50.00 Ry     beta= 0.01
     Davidson diagonalization with overlap
     ethr =  5.33E-06,  avg # of iterations =  1.0

     negative rho (up, down):  2.215E-03 0.000E+00

     total cpu time spent up to now is     1083.5 secs

     total energy              =  -20153.50943129 Ry
     estimated scf accuracy    <       0.01501682 Ry

     iteration # 18     ecut=    50.00 Ry     beta= 0.01
     Davidson diagonalization with overlap
     ethr =  5.25E-06,  avg # of iterations =  2.8

     negative rho (up, down):  2.246E-03 0.000E+00

     total cpu time spent up to now is     1137.1 secs

     total energy              =  -20153.50945933 Ry
     estimated scf accuracy    <       0.00325504 Ry

     iteration # 19     ecut=    50.00 Ry     beta= 0.01
     Davidson diagonalization with overlap
     ethr =  1.14E-06,  avg # of iterations =  5.5

     negative rho (up, down):  2.238E-03 0.000E+00

     total cpu time spent up to now is     1217.8 secs

     total energy              =  -20153.51012963 Ry
     estimated scf accuracy    <       0.00062398 Ry

     iteration # 20     ecut=    50.00 Ry     beta= 0.01
     Davidson diagonalization with overlap
     ethr =  2.18E-07,  avg # of iterations =  4.4

     negative rho (up, down):  2.237E-03 0.000E+00

     total cpu time spent up to now is     1303.5 secs

     total energy              =  -20153.51036055 Ry
     estimated scf accuracy    <       0.00043211 Ry

     iteration # 21     ecut=    50.00 Ry     beta= 0.01
     Davidson diagonalization with overlap
     ethr =  1.51E-07,  avg # of iterations =  1.1

     negative rho (up, down):  2.237E-03 0.000E+00

     total cpu time spent up to now is     1352.6 secs

     total energy              =  -20153.51037813 Ry
     estimated scf accuracy    <       0.00046429 Ry

     iteration # 22     ecut=    50.00 Ry     beta= 0.01
     Davidson diagonalization with overlap
     ethr =  1.51E-07,  avg # of iterations =  1.0

     negative rho (up, down):  2.251E-03 0.000E+00

     total cpu time spent up to now is     1401.1 secs

     total energy              =  -20153.51042850 Ry
     estimated scf accuracy    <       0.00049906 Ry

     iteration # 23     ecut=    50.00 Ry     beta= 0.01
     Davidson diagonalization with overlap
     ethr =  1.51E-07,  avg # of iterations =  3.0

     negative rho (up, down):  2.260E-03 0.000E+00

     total cpu time spent up to now is     1474.6 secs

     total energy              =  -20153.51055198 Ry
     estimated scf accuracy    <       0.00033613 Ry

     iteration # 24     ecut=    50.00 Ry     beta= 0.01
     Davidson diagonalization with overlap
     ethr =  1.18E-07,  avg # of iterations =  1.0

     negative rho (up, down):  2.259E-03 0.000E+00

     total cpu time spent up to now is     1523.3 secs

     total energy              =  -20153.51054400 Ry
     estimated scf accuracy    <       0.00010472 Ry

     iteration # 25     ecut=    50.00 Ry     beta= 0.01
     Davidson diagonalization with overlap
     ethr =  3.66E-08,  avg # of iterations =  3.0

     negative rho (up, down):  2.266E-03 0.000E+00

     total cpu time spent up to now is     1597.4 secs

     total energy              =  -20153.51057932 Ry
     estimated scf accuracy    <       0.00015208 Ry

     iteration # 26     ecut=    50.00 Ry     beta= 0.01
     Davidson diagonalization with overlap
     ethr =  3.66E-08,  avg # of iterations =  3.5

     negative rho (up, down):  2.263E-03 0.000E+00

     total cpu time spent up to now is     1691.0 secs

     total energy              =  -20153.51051449 Ry
     estimated scf accuracy    <       0.00031634 Ry

     iteration # 27     ecut=    50.00 Ry     beta= 0.01
     Davidson diagonalization with overlap
     ethr =  3.66E-08,  avg # of iterations =  2.3

     negative rho (up, down):  2.272E-03 0.000E+00

     total cpu time spent up to now is     1762.6 secs

     total energy              =  -20153.51060308 Ry
     estimated scf accuracy    <       0.00005809 Ry

     iteration # 28     ecut=    50.00 Ry     beta= 0.01
     Davidson diagonalization with overlap
     ethr =  2.03E-08,  avg # of iterations =  1.0

     negative rho (up, down):  2.296E-03 0.000E+00

     total cpu time spent up to now is     1811.3 secs

     total energy              =  -20153.51084001 Ry
     estimated scf accuracy    <       0.00007049 Ry

     iteration # 29     ecut=    50.00 Ry     beta= 0.01
     Davidson diagonalization with overlap
     ethr =  2.03E-08,  avg # of iterations =  5.1

     negative rho (up, down):  2.285E-03 0.000E+00

     total cpu time spent up to now is     1925.2 secs

     total energy              =  -20153.51035334 Ry
     estimated scf accuracy    <       0.00081606 Ry

     iteration # 30     ecut=    50.00 Ry     beta= 0.01
     Davidson diagonalization with overlap
     ethr =  2.03E-08,  avg # of iterations =  6.1

     negative rho (up, down):  2.288E-03 0.000E+00

     total cpu time spent up to now is     2062.2 secs

     total energy              =  -20153.51058727 Ry
     estimated scf accuracy    <       0.00005038 Ry

     iteration # 31     ecut=    50.00 Ry     beta= 0.01
     Davidson diagonalization with overlap
     ethr =  1.76E-08,  avg # of iterations =  2.0

     negative rho (up, down):  2.291E-03 0.000E+00

     total cpu time spent up to now is     2124.6 secs

     total energy              =  -20153.51060758 Ry
     estimated scf accuracy    <       0.00001658 Ry

     iteration # 32     ecut=    50.00 Ry     beta= 0.01
     Davidson diagonalization with overlap
     ethr =  5.80E-09,  avg # of iterations =  2.7

     negative rho (up, down):  2.291E-03 0.000E+00

     total cpu time spent up to now is     2194.7 secs

     total energy              =  -20153.51059843 Ry
     estimated scf accuracy    <       0.00002658 Ry

     iteration # 33     ecut=    50.00 Ry     beta= 0.01
     Davidson diagonalization with overlap
     ethr =  5.80E-09,  avg # of iterations =  2.0

     negative rho (up, down):  2.302E-03 0.000E+00

     total cpu time spent up to now is     2253.2 secs

     total energy              =  -20153.51060586 Ry
     estimated scf accuracy    <       0.00001378 Ry

     iteration # 34     ecut=    50.00 Ry     beta= 0.01
     Davidson diagonalization with overlap
     ethr =  4.82E-09,  avg # of iterations =  3.6

     negative rho (up, down):  2.306E-03 0.000E+00

     total cpu time spent up to now is     2341.4 secs

     total energy              =  -20153.51060839 Ry
     estimated scf accuracy    <       0.00001647 Ry

     iteration # 35     ecut=    50.00 Ry     beta= 0.01
     Davidson diagonalization with overlap
     ethr =  4.82E-09,  avg # of iterations =  2.0

     negative rho (up, down):  2.307E-03 0.000E+00

     total cpu time spent up to now is     2411.5 secs

     total energy              =  -20153.51061275 Ry
     estimated scf accuracy    <       0.00000497 Ry

     iteration # 36     ecut=    50.00 Ry     beta= 0.01
     Davidson diagonalization with overlap
     ethr =  1.74E-09,  avg # of iterations =  1.2

     negative rho (up, down):  2.308E-03 0.000E+00

     total cpu time spent up to now is     2463.2 secs

     total energy              =  -20153.51060996 Ry
     estimated scf accuracy    <       0.00000550 Ry

     iteration # 37     ecut=    50.00 Ry     beta= 0.01
     Davidson diagonalization with overlap
     ethr =  1.74E-09,  avg # of iterations =  2.0

     negative rho (up, down):  2.311E-03 0.000E+00

     total cpu time spent up to now is     2526.7 secs

     total energy              =  -20153.51061343 Ry
     estimated scf accuracy    <       0.00000311 Ry

     iteration # 38     ecut=    50.00 Ry     beta= 0.01
     Davidson diagonalization with overlap
     ethr =  1.09E-09,  avg # of iterations =  3.1

     negative rho (up, down):  2.312E-03 0.000E+00

     total cpu time spent up to now is     2613.6 secs

     total energy              =  -20153.51060804 Ry
     estimated scf accuracy    <       0.00001148 Ry

     iteration # 39     ecut=    50.00 Ry     beta= 0.01
     Davidson diagonalization with overlap
     ethr =  1.09E-09,  avg # of iterations =  3.1

     negative rho (up, down):  2.313E-03 0.000E+00

     total cpu time spent up to now is     2703.5 secs

     total energy              =  -20153.51061182 Ry
     estimated scf accuracy    <       0.00000178 Ry

     iteration # 40     ecut=    50.00 Ry     beta= 0.01
     Davidson diagonalization with overlap
     ethr =  6.23E-10,  avg # of iterations =  2.0

     negative rho (up, down):  2.313E-03 0.000E+00

     total cpu time spent up to now is     2775.9 secs

     total energy              =  -20153.51061227 Ry
     estimated scf accuracy    <       0.00000155 Ry

     iteration # 41     ecut=    50.00 Ry     beta= 0.01
     Davidson diagonalization with overlap
     ethr =  5.44E-10,  avg # of iterations =  1.0

     negative rho (up, down):  2.312E-03 0.000E+00

     total cpu time spent up to now is     2826.2 secs

     End of self-consistent calculation

          k = 0.0000 0.0000 0.0000 ( 23605 PWs)   bands (ev):

     1.5119   1.6559   1.8890   2.1933   2.5552   2.9470   3.3237   3.6278
     3.8187   3.9001   3.9330   3.9590   4.0722   4.0732   4.0741   4.2124
     4.2357   4.2927   4.4130   4.4333   4.5159   4.5380   4.5732   4.6069
     4.6660   4.7011   4.7290   4.8820   4.9810   5.0013   5.1618   5.4423
     5.7152   5.8447   5.9435   5.9756   6.1478   6.1528   6.1841   6.2366
     6.2554   6.2781   6.3111   6.3212   6.3231   6.3337   6.3497   6.3578
     6.3605   6.3732   6.4006   6.4068   6.4090   6.4120   6.4245   6.4335
     6.4418   6.4637   6.4773   6.4867   6.5012   6.5317   6.5368   6.5458
     6.5613   6.5654   6.5832   6.5916   6.6233   6.6274   6.6839   6.7188
     6.7502   6.7622   6.8395   6.8686   6.8692   6.8698   6.8705   7.0346
     7.0809   7.1448   7.1741   7.2895   7.4565   7.4708   7.5701   7.5931
     7.6151   7.6893   7.6936   7.6990   7.7089   7.7223   7.7409   7.7705
     7.8034   7.8086   7.8722   7.8722   7.9039   7.9553   8.0133   8.0178
     8.0381   8.1134   8.1733   8.1977   8.3087   8.3735   8.3846   8.3910
     8.4804   8.5186   8.5318   8.5637   8.5677   8.6043   8.6990   8.7096
     8.7113   8.7302   8.7621   8.7646   8.7731   8.8045   8.8104   8.8275
     8.8362   8.8416   8.8470   8.8679   8.8879   8.9083   8.9440   8.9640
     9.0220   9.0330   9.1025   9.2179   9.2191   9.4092  10.2086  10.5076
    10.5664  10.6291  10.9362  11.2488  11.4741  11.6300  11.7332  11.8018
    11.8569  11.8910  11.9249  12.1218  12.1228  13.5549  13.7387  13.9538
    13.9989  14.2908  14.5523  14.8688  14.8899  15.0572  15.3542  15.9030
    16.2116  16.3828  16.4742  16.5741

          k = 0.0000 0.1443 0.0000 ( 23551 PWs)   bands (ev):

     1.6643   1.8074   2.0383   2.3408   2.7009   3.0920   3.4689   3.7720
     3.9575   4.0314   4.0589   4.0818   4.1950   4.2088   4.2098   4.3066
     4.3566   4.3950   4.5237   4.5586   4.6032   4.6482   4.6663   4.7425
     4.7868   4.8034   4.8575   4.9425   5.1026   5.1261   5.2173   5.4743
     5.7103   5.8187   5.8789   5.9427   6.0512   6.0965   6.1296   6.1435
     6.1537   6.2009   6.2520   6.2569   6.2796   6.2912   6.3407   6.3536
     6.3639   6.3905   6.3995   6.4221   6.4340   6.4345   6.4539   6.4730
     6.4734   6.4773   6.4976   6.5135   6.5438   6.5495   6.5584   6.5761
     6.5915   6.6004   6.6285   6.6365   6.6475   6.6588   6.6809   6.6957
     6.7140   6.7383   6.8060   6.8178   6.8400   6.8622   6.9486   6.9542
     6.9722   6.9745   7.1729   7.2336   7.3357   7.3439   7.4115   7.4651
     7.5047   7.5776   7.5841   7.6057   7.6263   7.6814   7.7249   7.7374
     7.7662   7.7740   7.7806   7.8088   7.8480   7.9201   7.9273   7.9580
     8.0435   8.0714   8.0910   8.1131   8.1411   8.2127   8.2623   8.2865
     8.3483   8.3973   8.4434   8.4746   8.4794   8.5114   8.5155   8.5816
     8.6151   8.6299   8.6349   8.6866   8.7082   8.7220   8.7390   8.7451
     8.7548   8.7745   8.7786   8.8041   8.8483   8.8724   8.8917   8.9308
     8.9375   9.0281   9.0543   9.1035   9.4029  10.0413  10.8555  10.9171
    11.0741  11.1078  11.3174  11.5270  11.6833  11.8045  11.9059  12.0031
    12.1138  12.2389  12.3770  12.5067  12.5352  13.5584  13.7784  13.9848
    14.0744  14.3840  14.6570  14.9308  15.0246  15.1668  15.5143  16.0623
    16.1240  16.4710  16.5428  16.6229

          k = 0.0000 0.2887 0.0000 ( 23495 PWs)   bands (ev):

     2.1062   2.2451   2.4674   2.7609   3.1113   3.4958   3.8704   4.1698
     4.3382   4.3912   4.4044   4.4145   4.5193   4.5261   4.5823   4.5833
     4.6164   4.6677   4.7638   4.8697   4.8918   4.9295   4.9501   5.0390
     5.0910   5.1312   5.1540   5.2418   5.3329   5.4110   5.4763   5.6062
     5.6913   5.7102   5.7594   5.8143   5.8418   5.9009   5.9233   5.9606
     5.9960   6.0058   6.0505   6.0607   6.0728   6.0946   6.1516   6.1605
     6.1825   6.2120   6.2573   6.2827   6.3797   6.4063   6.4361   6.4817
     6.5219   6.5281   6.5686   6.6075   6.6154   6.6294   6.6406   6.6651
     6.6755   6.6867   6.6898   6.6994   6.7312   6.7461   6.7656   6.7932
     6.8135   6.8135   6.8371   6.8738   6.8774   6.9099   6.9309   6.9680
     6.9752   6.9897   7.0529   7.1002   7.1292   7.1959   7.2102   7.2270
     7.2993   7.3051   7.3309   7.3805   7.3963   7.4313   7.4626   7.4732
     7.5230   7.5643   7.6141   7.6767   7.7126   7.7777   7.7784   7.7992
     7.8673   7.9123   7.9379   7.9498   7.9581   7.9659   8.0578   8.0636
     8.1336   8.1830   8.2230   8.2408   8.3134   8.3273   8.3442   8.4543
     8.5057   8.5138   8.5315   8.5580   8.5798   8.6068   8.6186   8.6618
     8.6914   8.7135   8.7219   8.7262   8.7904   8.8033   8.8667   8.9351
     8.9472   9.0101   9.1376   9.5690  10.1761  10.8850  11.7459  11.9664
    11.9860  12.0013  12.0496  12.1261  12.1529  12.2282  12.3592  12.5234
    12.7188  12.9396  13.1577  13.3828  13.6087  13.6432  14.0142  14.1286
    14.3907  14.7077  14.9740  15.1491  15.4278  15.4982  15.6966  16.0488
    16.1798  16.6789  16.7519  16.7752

          k = 0.0000 0.4330 0.0000 ( 23423 PWs)   bands (ev):

     2.7884   2.9156   3.1135   3.3788   3.6944   4.0475   4.4032   4.6985
     4.7727   4.8389   4.8468   4.8629   4.8757   4.8792   4.9318   4.9873
     5.0108   5.0748   5.0761   5.1151   5.1839   5.2472   5.3365   5.3672
     5.3761   5.4091   5.4506   5.5051   5.5198   5.5624   5.5655   5.6059
     5.6642   5.6909   5.6968   5.7543   5.7757   5.7881   5.7919   5.7999
     5.8129   5.8253   5.8355   5.8422   5.8907   5.9123   5.9206   5.9428
     5.9792   6.0630   6.0631   6.0921   6.0979   6.2031   6.2835   6.3090
     6.3118   6.3447   6.4408   6.4802   6.5228   6.5552   6.5555   6.6273
     6.6346   6.6548   6.6885   6.7169   6.7185   6.7413   6.7517   6.7581
     6.7655   6.7734   6.8256   6.8857   6.9001   6.9684   7.0112   7.0662
     7.1093   7.1346   7.1722   7.1907   7.1966   7.2747   7.2803   7.3210
     7.3550   7.3875   7.3949   7.4008   7.4028   7.4245   7.4356   7.4543
     7.5038   7.5071   7.5318   7.5546   7.5748   7.6286   7.6384   7.7065
     7.7574   7.8214   7.8342   7.8413   7.8920   7.9136   7.9884   7.9928
     8.0023   8.0612   8.0875   8.1490   8.1717   8.2921   8.3756   8.3955
     8.4213   8.4479   8.5095   8.5140   8.5382   8.5635   8.6133   8.6286
     8.6620   8.6631   8.6783   8.7283   8.7700   8.7931   8.8108   8.8466
     8.8839   9.2192   9.6861  10.2282  10.9161  11.6773  12.5149  12.5303
    12.5823  12.6490  12.6591  12.8527  12.8968  13.1264  13.2150  13.4222
    13.5111  13.5493  13.8669  14.0004  14.2825  14.3531  14.5307  14.5501
    14.8584  15.2677  15.3387  15.5657  15.6023  15.6552  15.9990  16.0600
    16.1180  16.5118  16.6889  17.0373

          k = 0.0000 0.5774 0.0000 ( 23470 PWs)   bands (ev):

     3.6168   3.7151   3.8531   4.0452   4.2648   4.5154   4.7795   4.9393
     5.0393   5.0416   5.0720   5.1148   5.1183   5.1195   5.2036   5.2397
     5.2424   5.2673   5.2913   5.3227   5.3658   5.3715   5.3748   5.4013
     5.4243   5.4384   5.4571   5.5225   5.5297   5.5305   5.5544   5.5568
     5.5735   5.5954   5.6466   5.6546   5.6780   5.6838   5.7122   5.7232
     5.7545   5.7825   5.7883   5.7994   5.8112   5.8169   5.8424   5.9674
     5.9682   5.9936   6.0523   6.0752   6.1460   6.2046   6.2580   6.2843
     6.3341   6.3397   6.3700   6.3996   6.4047   6.4080   6.4292   6.4605
     6.4673   6.4852   6.5212   6.5413   6.5669   6.5834   6.5893   6.5918
     6.5989   6.6208   6.9421   6.9804   6.9992   7.0482   7.0494   7.0530
     7.0541   7.0610   7.1714   7.2001   7.2566   7.3517   7.4214   7.4451
     7.5016   7.5247   7.5302   7.5459   7.5510   7.5546   7.5678   7.5829
     7.5880   7.5999   7.6487   7.6941   7.6998   7.7974   7.8152   7.8231
     7.8244   7.9474   8.0280   8.0628   8.1890   8.2073   8.2532   8.3730
     8.3764   8.4119   8.4305   8.4369   8.4527   8.4569   8.4844   8.4982
     8.5252   8.5300   8.5621   8.5630   8.5914   8.5996   8.6282   8.6461
     8.6505   8.6781   8.6863   8.6895   8.7111   8.7139   8.7688   8.8519
     9.2782   9.7721  10.3415  10.9650  11.6953  12.4614  13.0148  13.1344
    13.1945  13.2764  13.2865  13.2944  13.3036  13.4526  13.5302  13.6020
    13.7410  13.8024  13.8623  13.9957  14.7865  14.9198  14.9308  15.0341
    15.3206  15.3354  15.3872  15.5488  15.8700  15.8818  16.1554  16.3351
    16.4301  16.5231  16.8530  16.9068

          k = 0.0000 0.7217 0.0000 ( 23446 PWs)   bands (ev):

     4.4051   4.4672   4.4912   4.5509   4.6220   4.7238   4.8175   4.8518
     4.9076   4.9665   4.9682   4.9938   5.0590   5.0943   5.1462   5.1915
     5.1973   5.2227   5.2516   5.2576   5.2840   5.2891   5.3624   5.3644
     5.4215   5.4493   5.4969   5.5331   5.5583   5.5833   5.6070   5.6137
     5.6170   5.6367   5.6431   5.6712   5.7170   5.7200   5.7382   5.7501
     5.7693   5.7792   5.7922   5.8070   5.8189   5.8272   5.8784   5.9258
     6.0317   6.0458   6.1157   6.1438   6.1659   6.2023   6.2104   6.2435
     6.2575   6.3142   6.3167   6.3391   6.3508   6.3629   6.3748   6.4030
     6.4233   6.4260   6.4952   6.5298   6.5892   6.6219   6.6861   6.7110
     6.7123   6.7588   6.9722   6.9737   7.0135   7.0145   7.0776   7.1398
     7.1734   7.1745   7.1847   7.2328   7.3300   7.3551   7.3658   7.3929
     7.4058   7.4390   7.4801   7.5173   7.5343   7.6007   7.6224   7.6425
     7.6607   7.6721   7.7166   7.7510   7.8034   7.8256   7.8549   7.8629
     7.9383   8.0572   8.1061   8.1304   8.2481   8.3064   8.3841   8.5261
     8.5686   8.6247   8.6721   8.6821   8.6876   8.6958   8.7156   8.7304
     8.7347   8.7574   8.7829   8.7833   8.8053   8.8091   8.8886   8.8967
     8.9252   8.9320   9.3381   9.3541   9.3629   9.4298   9.5573   9.8055
    10.2139  10.7358  11.3389  11.7138  11.8072  11.9877  12.0105  12.2663
    12.6080  12.7072  13.0136  13.4293  13.4449  13.7853  13.9718  14.0207
    14.1477  14.1529  14.3159  14.4441  14.6631  14.7420  15.0152  15.1243
    15.5377  15.6195  16.0114  16.1304  16.1735  16.3477  16.4570  16.6094
    16.7120  16.8090  17.0760  17.1202

          k = 0.0000-0.8660 0.0000 ( 23420 PWs)   bands (ev):

     4.6920   4.6920   4.7755   4.7755   4.8275   4.8275   4.8319   4.8319
     4.9113   4.9113   4.9455   4.9455   5.0329   5.0329   5.0391   5.0391
     5.1150   5.1151   5.1889   5.1890   5.2520   5.2521   5.2531   5.2532
     5.4607   5.4607   5.4814   5.4815   5.5312   5.5312   5.5601   5.5602
     5.6290   5.6290   5.6744   5.6744   5.7667   5.7668   5.7718   5.7719
     5.8681   5.8681   5.9058   5.9058   5.9162   5.9162   5.9912   5.9912
     6.0081   6.0081   6.0602   6.0603   6.1125   6.1125   6.1468   6.1468
     6.2055   6.2055   6.2645   6.2645   6.3673   6.3673   6.4249   6.4249
     6.5467   6.5467   6.5780   6.5780   6.6362   6.6362   6.7288   6.7288
     6.9845   6.9845   6.9866   6.9866   7.0293   7.0294   7.0316   7.0316
     7.2192   7.2192   7.2357   7.2358   7.3027   7.3027   7.3434   7.3434
     7.3892   7.3892   7.4781   7.4781   7.5754   7.5754   7.6447   7.6448
     7.6937   7.6937   7.7468   7.7468   7.8211   7.8212   7.8644   7.8645
     7.9411   7.9411   8.0275   8.0276   8.2039   8.2039   8.4338   8.4338
     8.6396   8.6396   8.7906   8.7906   8.8238   8.8238   8.8413   8.8414
     8.8716   8.8716   8.9113   8.9113   8.9346   8.9347   9.0305   9.0305
     9.0650   9.0650  10.4257  10.4257  10.4577  10.4578  10.5615  10.5615
    10.7085  10.7085  10.9492  10.9492  11.2854  11.2854  11.7195  11.7195
    12.2327  12.2327  12.8078  12.8078  13.4062  13.4062  14.0285  14.0285
    14.5872  14.5872  15.0299  15.0299  15.7309  15.7309  15.7436  15.7436
    15.8953  15.8954  15.9494  15.9494  16.1756  16.1757  16.2523  16.2524
    16.4944  16.4945  16.5992  16.5993

          k = 0.1250 0.0000 0.0000 ( 23563 PWs)   bands (ev):

     1.6266   1.7698   2.0014   2.3042   2.6649   3.0563   3.4332   3.7366
     3.9238   3.9557   3.9992   4.0288   4.0687   4.1753   4.1762   4.2316
     4.2558   4.3305   4.4242   4.4468   4.5463   4.5669   4.6062   4.6220
     4.6633   4.7566   4.7836   4.9249   5.0093   5.0363   5.1965   5.4684
     5.7269   5.8509   5.9186   5.9990   6.0722   6.1516   6.1641   6.1776
     6.2173   6.2253   6.2671   6.2771   6.3060   6.3397   6.3428   6.3468
     6.3652   6.3758   6.4102   6.4228   6.4285   6.4300   6.4465   6.4548
     6.4639   6.4760   6.4782   6.5014   6.5371   6.5478   6.5537   6.5708
     6.5930   6.6012   6.6214   6.6291   6.6332   6.6650   6.6918   6.6968
     6.7670   6.7671   6.8235   6.8468   6.8499   6.9321   6.9325   6.9335
     7.0050   7.0603   7.1206   7.2928   7.3723   7.3815   7.4308   7.5054
     7.5712   7.5762   7.5874   7.6031   7.6415   7.6973   7.7355   7.7626
     7.8037   7.8187   7.8336   7.8736   7.8741   7.9233   7.9405   7.9504
     8.0417   8.0902   8.1072   8.1920   8.2239   8.2402   8.3149   8.3559
     8.3813   8.4131   8.4785   8.5146   8.5457   8.5881   8.5979   8.6515
     8.6631   8.6875   8.6955   8.7024   8.7255   8.7361   8.7550   8.7688
     8.7823   8.7839   8.8106   8.8322   8.8541   8.8643   8.8668   8.9273
     8.9582   9.0092   9.1207   9.1219   9.2905   9.3465   9.6689   9.9393
     9.9482  10.1371  10.2173  10.3364  10.6930  10.8252  10.9999  11.2738
    11.9584  12.6651  13.2802  13.4589  13.5369  13.6695  13.9255  13.9764
    14.2216  14.5241  14.8369  14.9148  15.1393  15.2167  15.5847  15.9002
    16.3727  16.4481  16.5334  16.9278

          k = 0.1250 0.1443 0.0000 ( 23537 PWs)   bands (ev):

     1.7783   1.9191   2.1490   2.4488   2.8075   3.1976   3.5748   3.8772
     4.0599   4.0819   4.1257   4.1574   4.1936   4.3066   4.3076   4.3495
     4.3567   4.4343   4.5473   4.5619   4.6455   4.6822   4.6966   4.7492
     4.7972   4.8320   4.9171   4.9828   5.1303   5.1632   5.2466   5.4918
     5.7183   5.8053   5.8462   5.9410   5.9982   6.0410   6.0961   6.1087
     6.1288   6.1859   6.2015   6.2287   6.2480   6.2785   6.2849   6.3045
     6.3190   6.3568   6.3957   6.4371   6.4427   6.4714   6.4760   6.4892
     6.4978   6.5097   6.5188   6.5225   6.5469   6.5749   6.5853   6.6121
     6.6172   6.6233   6.6508   6.6618   6.6892   6.6955   6.7068   6.7231
     6.7492   6.7594   6.7664   6.7959   6.8236   6.8814   6.8963   6.9285
     7.0133   7.0150   7.1441   7.1771   7.1979   7.2387   7.3495   7.4349
     7.4616   7.5159   7.5392   7.5546   7.5557   7.5727   7.6015   7.6671
     7.7132   7.7323   7.7625   7.8168   7.8442   7.8578   7.8656   7.8963
     7.9481   7.9830   8.0465   8.0660   8.1373   8.1520   8.2170   8.2189
     8.2755   8.3284   8.3583   8.3644   8.3899   8.4778   8.4789   8.5307
     8.5442   8.5482   8.5742   8.5875   8.6047   8.6345   8.6637   8.7036
     8.7176   8.7526   8.7536   8.7699   8.7860   8.7929   8.8393   8.8939
     9.0013   9.0360   9.1215   9.1521   9.6604   9.9801  10.1439  10.3095
    10.3563  10.4454  10.5724  10.7933  11.1651  11.1716  11.4155  11.7009
    12.3313  12.9985  13.4745  13.5601  13.6558  13.7417  14.0080  14.0185
    14.3303  14.6321  14.9411  14.9811  15.2477  15.3407  15.7144  15.9485
    16.4185  16.5330  16.6367  16.9769

          k = 0.1250 0.2887 0.0000 ( 23467 PWs)   bands (ev):

     2.2143   2.3482   2.5695   2.8570   3.2037   3.5835   3.9550   4.2496
     4.4123   4.4228   4.4567   4.5069   4.5240   4.5652   4.6504   4.6588
     4.6600   4.6690   4.7875   4.8657   4.9322   4.9556   4.9774   5.0795
     5.0969   5.1235   5.1988   5.2535   5.3482   5.4245   5.4842   5.5782
     5.5934   5.6964   5.7720   5.7933   5.8428   5.8570   5.8830   5.9707
     5.9854   6.0256   6.0393   6.0499   6.0684   6.0829   6.0994   6.1027
     6.1506   6.2061   6.2286   6.2804   6.3334   6.3745   6.4731   6.4936
     6.5202   6.5436   6.5845   6.6004   6.6131   6.6239   6.6476   6.6638
     6.6699   6.6828   6.7312   6.7579   6.7677   6.7814   6.7957   6.7966
     6.8391   6.8417   6.8645   6.8829   6.8899   6.9088   6.9188   6.9759
     6.9901   7.0274   7.0281   7.0481   7.0524   7.0995   7.1789   7.1889
     7.2044   7.2254   7.2510   7.3071   7.3566   7.3663   7.4081   7.4859
     7.5094   7.5180   7.5713   7.6212   7.6749   7.6897   7.7538   7.7797
     7.7841   7.7914   7.8573   7.8716   7.9380   7.9652   7.9799   8.0680
     8.1044   8.1255   8.1408   8.2161   8.2315   8.2402   8.2640   8.2752
     8.3328   8.3847   8.4250   8.4950   8.5517   8.6419   8.6566   8.6953
     8.7560   8.7589   8.7842   8.7876   8.8220   8.8301   8.8852   8.9787
     9.0193   9.1217   9.1954   9.7041  10.3162  10.7476  10.8213  10.9352
    11.0658  11.0996  11.3336  11.6628  11.9004  12.0886  12.3785  12.6050
    13.1992  13.5989  13.7199  13.8302  13.9506  14.1664  14.1910  14.4435
    14.6909  14.9750  15.2105  15.2756  15.5800  15.6303  15.9628  16.1201
    16.4250  16.8016  16.9403  16.9589

          k = 0.1250 0.4330 0.0000 ( 23435 PWs)   bands (ev):

     2.8794   2.9948   3.1920   3.4424   3.7472   4.0808   4.4130   4.6694
     4.7941   4.7988   4.8474   4.8625   4.8685   4.8924   4.9754   4.9795
     5.0093   5.0901   5.0927   5.1027   5.1372   5.2055   5.2506   5.3288
     5.3501   5.3755   5.3916   5.4350   5.4778   5.5269   5.5947   5.6085
     5.6538   5.7070   5.7177   5.7456   5.7535   5.7746   5.7985   5.8142
     5.8352   5.8435   5.8647   5.8856   5.9225   5.9384   5.9572   5.9799
     6.0203   6.0369   6.0753   6.1044   6.2085   6.2635   6.2798   6.3443
     6.3902   6.4310   6.4701   6.4949   6.5148   6.5246   6.5644   6.5912
     6.6178   6.6372   6.6609   6.6613   6.6839   6.7106   6.7302   6.7442
     6.7651   6.7838   6.8857   6.8865   6.9580   6.9658   6.9935   7.0501
     7.1370   7.1642   7.1733   7.2047   7.2062   7.2317   7.2519   7.2943
     7.3087   7.3292   7.3449   7.3538   7.3939   7.4188   7.4505   7.4845
     7.4967   7.5395   7.5399   7.5583   7.6033   7.6204   7.6411   7.6467
     7.6678   7.7302   7.8023   7.8054   7.8520   7.9207   7.9335   7.9347
     7.9625   8.0522   8.0952   8.1127   8.1645   8.1930   8.2048   8.2943
     8.3732   8.4414   8.4957   8.5042   8.6165   8.6299   8.6805   8.7244
     8.7324   8.7499   8.7552   8.7755   8.8028   8.8377   8.8881   8.9418
     9.0448   9.2297   9.7332  10.3222  11.0037  11.3737  11.4645  11.6326
    11.7906  11.8717  12.1845  12.5794  12.6610  13.0321  13.5069  13.5846
    13.7815  13.9355  14.2047  14.3004  14.5279  14.6120  14.6712  14.8400
    15.1640  15.3675  15.4933  15.6598  15.6735  15.8592  16.1227  16.1481
    16.3450  16.6647  16.7990  17.2628

          k = 0.1250 0.5774 0.0000 ( 23447 PWs)   bands (ev):

     3.6573   3.7311   3.8825   4.0472   4.2509   4.4637   4.6816   4.8649
     4.8725   4.9185   4.9634   4.9747   4.9758   5.0340   5.0712   5.0843
     5.1165   5.1192   5.2055   5.2133   5.2262   5.2379   5.3041   5.3321
     5.3927   5.4355   5.4371   5.4560   5.4594   5.4937   5.5428   5.5442
     5.5976   5.6098   5.6672   5.6982   5.7044   5.7450   5.7599   5.7688
     5.7727   5.7854   5.7913   5.8647   5.8925   5.9387   5.9407   5.9654
     6.0058   6.0746   6.0901   6.1235   6.1612   6.1642   6.2471   6.2700
     6.3109   6.3930   6.4293   6.4531   6.5079   6.5303   6.5325   6.5750
     6.5904   6.5975   6.6117   6.6152   6.6465   6.6780   6.7066   6.7350
     6.7553   6.7708   6.8694   6.8959   6.9520   6.9703   6.9761   7.0925
     7.1933   7.2509   7.2550   7.2748   7.3072   7.3530   7.3922   7.4226
     7.4421   7.4729   7.5008   7.5246   7.5489   7.5598   7.6180   7.6324
     7.6462   7.6556   7.7220   7.7269   7.7719   7.7761   7.9021   7.9111
     7.9247   7.9738   8.0765   8.1046   8.1691   8.2132   8.2412   8.2508
     8.3388   8.3531   8.3993   8.4379   8.4531   8.4583   8.4816   8.5097
     8.5182   8.5609   8.5614   8.5994   8.6213   8.6377   8.6446   8.6636
     8.7012   8.7289   8.7470   8.7594   8.7762   8.8261   8.8263   8.9247
     9.2595   9.7785  10.3733  11.0316  11.7537  12.0737  12.1968  12.4078
    12.5378  12.6968  13.0380  13.2888  13.3428  13.4188  13.4528  13.6721
    13.9203  14.0284  14.1847  14.2832  14.4561  14.5759  14.8745  15.0789
    15.2099  15.4404  15.4452  15.6520  15.8620  15.9491  16.2185  16.3001
    16.3951  16.7364  16.9062  16.9507

          k = 0.1250 0.7217 0.0000 ( 23455 PWs)   bands (ev):

     4.2707   4.3191   4.4708   4.5250   4.6061   4.6689   4.7249   4.7373
     4.7470   4.8076   4.8257   4.8653   4.9193   4.9619   4.9794   5.0300
     5.0685   5.0997   5.1037   5.1233   5.2004   5.2105   5.2487   5.2683
     5.2691   5.2995   5.3116   5.3475   5.4218   5.4269   5.4586   5.4625
     5.5082   5.5870   5.6006   5.6333   5.6678   5.7221   5.7296   5.7641
     5.7881   5.8322   5.8395   5.8736   5.9013   5.9234   5.9581   6.0102
     6.0318   6.0775   6.0847   6.1621   6.2355   6.2571   6.2612   6.3012
     6.3404   6.3536   6.3733   6.4415   6.4874   6.4968   6.5380   6.6154
     6.6291   6.6555   6.7398   6.7782   6.7788   6.7940   6.8327   6.8427
     6.9104   6.9222   6.9575   7.0217   7.0277   7.0419   7.0841   7.1095
     7.1917   7.1943   7.2640   7.2734   7.3816   7.4145   7.4864   7.4968
     7.5236   7.5528   7.5786   7.6446   7.6637   7.6704   7.7154   7.7459
     7.7660   7.7952   7.8572   7.8799   7.9228   7.9284   8.0431   8.0574
     8.0609   8.1772   8.2352   8.2443   8.3378   8.3419   8.4396   8.5539
     8.5674   8.5762   8.6062   8.6566   8.6645   8.6667   8.7024   8.7446
     8.7610   8.7764   8.7804   8.8064   8.8072   8.8772   8.8989   8.8990
     8.9249   8.9396   9.2711   9.3237   9.3600   9.4062   9.5245   9.7639
    10.1803  10.7241  11.3499  11.7960  11.8789  12.0315  12.0726  12.3096
    12.6386  12.7487  13.0220  13.0808  13.2192  13.4287  13.4877  13.5115
    13.7312  13.9930  14.0806  14.1790  14.4748  14.5792  14.8368  15.1281
    15.2593  15.5503  15.7380  15.9191  15.9939  16.2766  16.3180  16.5031
    16.5382  16.6495  16.8085  16.9830

          k = 0.1250-0.8660 0.0000 ( 23492 PWs)   bands (ev):

     4.4956   4.5533   4.5871   4.6129   4.6274   4.6772   4.7220   4.7344
     4.7510   4.7701   4.8421   4.8757   4.9270   4.9300   5.0088   5.0090
     5.0631   5.0793   5.1144   5.1230   5.1373   5.1393   5.1581   5.1642
     5.2305   5.2426   5.2933   5.2978   5.3412   5.3429   5.3752   5.3827
     5.4793   5.4809   5.5748   5.5965   5.6449   5.6470   5.7361   5.7398
     5.8246   5.8426   5.9187   5.9273   5.9335   5.9654   6.0067   6.0244
     6.0529   6.0576   6.0864   6.0948   6.1604   6.1800   6.2549   6.2614
     6.4219   6.4224   6.4405   6.4610   6.5968   6.6029   6.6331   6.6454
     6.7005   6.7245   6.7631   6.7674   6.8477   6.8495   6.8732   6.8886
     6.9126   6.9241   6.9783   6.9991   7.0712   7.0775   7.1260   7.1775
     7.2271   7.2661   7.3261   7.3619   7.4336   7.4556   7.4863   7.4920
     7.5315   7.5632   7.6127   7.6510   7.7123   7.7161   7.7779   7.8258
     7.8631   7.8689   7.9007   7.9330   7.9956   8.0077   8.0144   8.0328
     8.0851   8.1100   8.1423   8.1662   8.2496   8.2523   8.4418   8.4465
     8.6330   8.6422   8.7383   8.7554   8.7912   8.7915   8.8098   8.8383
     8.8651   8.8870   8.9036   8.9333   8.9461   8.9530   9.0307   9.0313
     9.0607   9.0700  10.4218  10.4226  10.4610  10.4656  10.5652  10.5654
    10.7005  10.7090  10.9312  10.9367  11.2565  11.2674  11.6895  11.7004
    12.2144  12.2203  12.8106  12.8121  13.4037  13.4468  13.9928  14.0143
    14.4432  14.4590  14.6482  14.6492  14.7885  14.8397  14.9958  15.0357
    15.2548  15.2702  15.4494  15.4774  15.8031  15.8263  15.8987  15.9570
    16.2395  16.2429  16.5813  16.6054

          k = 0.1250-0.7217 0.0000 ( 23455 PWs)   bands (ev):

     4.1947   4.3228   4.4298   4.5881   4.6556   4.6561   4.6667   4.7644
     4.7694   4.8069   4.8311   4.8620   4.9219   4.9386   4.9684   5.0205
     5.0816   5.0845   5.1076   5.1215   5.1968   5.2300   5.2403   5.2560
     5.2688   5.3057   5.3244   5.3619   5.4142   5.4303   5.4582   5.4667
     5.5158   5.5700   5.6037   5.6120   5.6694   5.7289   5.7298   5.7489
     5.8030   5.8239   5.8348   5.8607   5.9006   5.9169   5.9460   6.0334
     6.0472   6.0781   6.0786   6.1742   6.2118   6.2717   6.2884   6.3291
     6.3399   6.3547   6.3993   6.4295   6.4470   6.5186   6.5279   6.5977
     6.6915   6.6957   6.7672   6.7877   6.7985   6.8011   6.8516   6.8617
     6.8986   6.9236   6.9824   7.0004   7.0296   7.0615   7.1132   7.1325
     7.1428   7.1971   7.2162   7.2878   7.3574   7.4159   7.4732   7.4953
     7.5139   7.5294   7.5610   7.6218   7.6375   7.6667   7.7021   7.7219
     7.7317   7.8192   7.8621   7.8814   7.9367   7.9925   8.0375   8.0431
     8.0763   8.1706   8.2313   8.2625   8.3449   8.3505   8.4428   8.5456
     8.5465   8.6015   8.6020   8.6516   8.6629   8.6661   8.7345   8.7439
     8.7594   8.7789   8.7795   8.8007   8.8155   8.8250   8.8941   8.8987
     8.9300   8.9349   9.2728   9.3290   9.3632   9.4109   9.5258   9.7702
    10.1843  10.7197  11.3443  11.7881  11.8773  11.9944  12.0629  12.3033
    12.6224  12.7303  13.0067  13.0773  13.2098  13.4136  13.4364  13.5150
    13.7272  13.9665  14.1531  14.1822  14.4288  14.5927  14.8193  15.1169
    15.2781  15.5777  15.7350  15.8745  16.0458  16.2861  16.3459  16.4924
    16.5584  16.6628  16.9481  16.9570

          k = 0.1250-0.5774 0.0000 ( 23447 PWs)   bands (ev):

     3.6128   3.7356   3.8642   4.0630   4.2600   4.4803   4.6943   4.7644
     4.8608   4.9187   4.9422   4.9425   5.0023   5.0312   5.0637   5.0712
     5.1061   5.1455   5.2124   5.2170   5.2434   5.2466   5.3224   5.3347
     5.3977   5.4071   5.4611   5.4631   5.4767   5.4932   5.5536   5.5605
     5.5974   5.6032   5.6582   5.6792   5.6909   5.7363   5.7580   5.7655
     5.7803   5.7973   5.8331   5.8528   5.9004   5.9262   5.9333   5.9589
     5.9967   6.0840   6.1058   6.1144   6.1293   6.1426   6.2556   6.2887
     6.3304   6.3922   6.4534   6.4858   6.4875   6.5433   6.5728   6.5766
     6.5977   6.6014   6.6283   6.6549   6.6975   6.7101   6.7204   6.7452
     6.7606   6.8256   6.8312   6.9207   6.9521   6.9604   7.0016   7.0922
     7.1921   7.2086   7.2550   7.2580   7.3053   7.3221   7.3522   7.4017
     7.4422   7.4552   7.4927   7.5238   7.5262   7.5648   7.5850   7.6233
     7.6249   7.6854   7.7223   7.7225   7.7940   7.8500   7.9023   7.9194
     7.9237   7.9593   8.0846   8.0916   8.1819   8.1991   8.2184   8.2490
     8.3447   8.3569   8.4001   8.4275   8.4361   8.4520   8.4813   8.5129
     8.5378   8.5654   8.5882   8.5979   8.6207   8.6331   8.6480   8.6987
     8.7291   8.7316   8.7354   8.7586   8.7679   8.8309   8.8318   8.8556
     9.2576   9.7661  10.3600  10.9830  11.7337  12.0721  12.1948  12.4115
    12.4811  12.6953  13.0494  13.2756  13.3459  13.4177  13.4805  13.6546
    13.8859  14.0030  14.1457  14.2614  14.3246  14.7053  14.8188  15.0420
    15.2179  15.4448  15.4652  15.6765  15.8223  15.9320  16.2958  16.3590
    16.4103  16.7965  16.9027  16.9833

          k = 0.1250-0.4330 0.0000 ( 23435 PWs)   bands (ev):

     2.8629   2.9960   3.1833   3.4463   3.7470   4.0841   4.4129   4.6644
     4.7555   4.7567   4.7793   4.8544   4.8716   4.8996   4.9281   4.9698
     4.9976   5.0937   5.1005   5.1082   5.1548   5.2223   5.2772   5.3598
     5.3823   5.3879   5.4041   5.4288   5.4900   5.5144   5.6033   5.6392
     5.6651   5.6987   5.7366   5.7401   5.7548   5.7700   5.7884   5.8026
     5.8447   5.8565   5.8653   5.8811   5.9476   5.9532   5.9665   5.9691
     6.0238   6.0523   6.0607   6.0932   6.1840   6.2568   6.2951   6.3618
     6.4201   6.4277   6.4609   6.5027   6.5040   6.5611   6.5777   6.5901
     6.5987   6.6390   6.6601   6.6622   6.6826   6.7186   6.7272   6.7474
     6.7595   6.8385   6.9047   6.9113   6.9654   6.9711   7.0060   7.0381
     7.1258   7.1335   7.1667   7.2053   7.2073   7.2314   7.2802   7.2930
     7.2938   7.3198   7.3462   7.3462   7.4125   7.4270   7.4493   7.4840
     7.4921   7.5336   7.5357   7.5594   7.6021   7.6229   7.6516   7.6546
     7.6832   7.7416   7.8051   7.8115   7.8500   7.9212   7.9301   7.9352
     7.9922   8.0301   8.0579   8.0833   8.1551   8.1901   8.2070   8.2827
     8.3451   8.4406   8.5136   8.5164   8.6191   8.6465   8.6874   8.7307
     8.7363   8.7558   8.7834   8.7937   8.8345   8.8365   8.8532   8.9491
     8.9671   9.2162   9.7184  10.2654  10.9820  11.3728  11.4613  11.6332
    11.7252  11.8679  12.1910  12.5878  12.6606  13.0528  13.5412  13.5430
    13.7489  13.9543  14.2004  14.2478  14.5386  14.6345  14.6427  14.7406
    15.1513  15.2484  15.5495  15.6576  15.6674  15.9171  16.1644  16.1751
    16.3785  16.6331  16.9446  17.2805

          k = 0.1250-0.2887 0.0000 ( 23467 PWs)   bands (ev):

     2.2077   2.3485   2.5657   2.8578   3.2028   3.5830   3.9523   4.2457
     4.3984   4.4089   4.4518   4.4782   4.5234   4.5567   4.6518   4.6588
     4.6599   4.6629   4.7877   4.8643   4.9261   4.9555   4.9855   5.0701
     5.0991   5.1162   5.2121   5.2484   5.3402   5.4130   5.4672   5.5940
     5.6732   5.6829   5.7831   5.7954   5.8129   5.8967   5.9429   5.9705
     5.9914   6.0268   6.0312   6.0469   6.0695   6.0715   6.0998   6.1416
     6.1529   6.1983   6.2309   6.2961   6.3304   6.4043   6.4495   6.4792
     6.5215   6.5281   6.5842   6.5995   6.6051   6.6330   6.6517   6.6522
     6.6703   6.7049   6.7147   6.7450   6.7627   6.7894   6.7920   6.8027
     6.8396   6.8507   6.8522   6.8788   6.8926   6.9130   6.9337   6.9746
     6.9993   7.0133   7.0250   7.0484   7.0518   7.1358   7.1823   7.1825
     7.1969   7.2248   7.2694   7.2999   7.3576   7.4004   7.4045   7.4840
     7.5103   7.5584   7.5853   7.5958   7.6840   7.6951   7.7498   7.7831
     7.7936   7.8263   7.8421   7.8586   7.9408   7.9513   7.9857   8.0559
     8.0944   8.1283   8.1398   8.1847   8.2135   8.2308   8.2557   8.2761
     8.3442   8.3616   8.4532   8.5106   8.5403   8.6622   8.6712   8.6999
     8.7582   8.7766   8.7880   8.7928   8.8379   8.8405   8.9015   8.9625
     9.0253   9.0386   9.1850   9.6409  10.2949  10.7568  10.8159  10.9336
    10.9932  11.0915  11.3324  11.6656  11.8975  12.1004  12.3499  12.6261
    13.2200  13.5837  13.7169  13.8473  13.9376  14.1859  14.1911  14.4445
    14.6792  14.9588  15.2059  15.2800  15.5881  15.6157  15.8689  16.1001
    16.4382  16.8185  16.9184  16.9643

          k = 0.1250-0.1443 0.0000 ( 23537 PWs)   bands (ev):

     1.7759   1.9191   2.1476   2.4489   2.8070   3.1970   3.5733   3.8752
     4.0551   4.0792   4.1253   4.1450   4.1932   4.3066   4.3075   4.3493
     4.3557   4.4344   4.5457   4.5640   4.6434   4.6776   4.7000   4.7480
     4.7978   4.8334   4.9020   4.9869   5.1287   5.1606   5.2437   5.4925
     5.6842   5.8144   5.8859   5.9746   5.9795   6.0523   6.0978   6.1302
     6.1632   6.1733   6.2007   6.2110   6.2414   6.2790   6.2800   6.3121
     6.3609   6.3680   6.3826   6.4142   6.4402   6.4628   6.4819   6.4934
     6.5051   6.5078   6.5224   6.5236   6.5443   6.5690   6.5900   6.6007
     6.6182   6.6318   6.6431   6.6649   6.6790   6.6959   6.7130   6.7368
     6.7395   6.7528   6.7744   6.8128   6.8350   6.8890   6.8976   6.9299
     7.0130   7.0150   7.1347   7.1592   7.2008   7.2479   7.3374   7.4295
     7.4768   7.5134   7.5414   7.5551   7.5567   7.5941   7.6150   7.6734
     7.7151   7.7246   7.7462   7.7870   7.8217   7.8585   7.8814   7.8866
     7.9231   8.0029   8.0363   8.0616   8.1438   8.1514   8.2312   8.2340
     8.2954   8.3195   8.3574   8.3892   8.4033   8.4597   8.4786   8.5298
     8.5362   8.5387   8.5735   8.5907   8.6353   8.6623   8.6992   8.7015
     8.7130   8.7483   8.7539   8.7659   8.8026   8.8346   8.8415   8.9048
     8.9722   9.0439   9.0491   9.0843   9.6419   9.9912  10.1432  10.2837
    10.3127  10.4370  10.5652  10.7922  11.1632  11.1789  11.4007  11.7139
    12.3457  13.0109  13.4772  13.5594  13.6657  13.7330  14.0145  14.0185
    14.3255  14.6302  14.9412  14.9805  15.2509  15.3414  15.6770  15.9230
    16.4232  16.5431  16.6380  16.9675

          k = 0.2500 0.0000 0.0000 ( 23536 PWs)   bands (ev):

     1.9617   2.1015   2.3275   2.6239   2.9783   3.3654   3.7410   3.9067
     4.0170   4.0412   4.1759   4.2156   4.2747   4.2971   4.3574   4.3635
     4.4140   4.4608   4.4619   4.4812   4.5113   4.6126   4.6966   4.7469
     4.7689   4.8733   4.9230   5.0327   5.1079   5.1338   5.3035   5.5447
     5.7743   5.7947   5.8681   5.8889   5.9279   6.0387   6.0490   6.0615
     6.1161   6.1419   6.1617   6.1765   6.1867   6.2294   6.2903   6.2941
     6.3302   6.3639   6.3848   6.4148   6.4511   6.4789   6.5059   6.5148
     6.5355   6.5578   6.5657   6.5849   6.5939   6.6134   6.6277   6.6389
     6.6509   6.6744   6.7055   6.7078   6.7184   6.7390   6.7537   6.7574
     6.7985   6.8074   6.8255   6.8408   6.8684   6.8767   6.9157   6.9184
     6.9874   7.0334   7.1029   7.1072   7.1264   7.2356   7.2560   7.2865
     7.3451   7.3885   7.4343   7.4618   7.4921   7.5244   7.5639   7.5727
     7.6529   7.6645   7.6933   7.7205   7.7448   7.8280   7.8290   7.8659
     7.9416   7.9781   7.9798   8.0311   8.0543   8.1217   8.2169   8.2198
     8.2336   8.2919   8.3047   8.3434   8.3680   8.3985   8.4092   8.4236
     8.4599   8.4772   8.5017   8.5320   8.5381   8.5559   8.5723   8.5875
     8.6139   8.6208   8.6391   8.6602   8.6830   8.7142   8.7849   8.7935
     8.8025   8.8267   8.8439   8.8857   8.9200   8.9273   8.9408   8.9485
     9.1115   9.3932   9.7007   9.9661  10.4019  10.6723  11.1462  11.5089
    11.8440  11.9056  12.6672  13.4039  14.0717  14.1359  15.0706  15.1159
    15.3333  15.3882  15.5145  15.6085  15.9167  16.3555  16.6499  16.7708
    16.8146  17.1111  17.4050  17.7937

          k = 0.2500 0.1443 0.0000 ( 23484 PWs)   bands (ev):

     2.1092   2.2451   2.4693   2.7607   3.1119   3.4965   3.8725   4.0414
     4.1495   4.1728   4.3056   4.3435   4.3917   4.4216   4.4608   4.4938
     4.5241   4.5820   4.5830   4.6052   4.6424   4.7285   4.7813   4.8272
     4.8748   4.9525   5.0395   5.0960   5.2314   5.2422   5.3466   5.5468
     5.6980   5.7309   5.8104   5.8489   5.9009   5.9223   6.0074   6.0159
     6.0475   6.0611   6.0830   6.0935   6.1473   6.1703   6.2147   6.2367
     6.2737   6.3463   6.3664   6.3801   6.4063   6.4243   6.4542   6.4693
     6.5164   6.5416   6.5720   6.5829   6.6056   6.6146   6.6166   6.6336
     6.6538   6.6728   6.6951   6.7051   6.7268   6.7532   6.7622   6.7893
     6.7960   6.8259   6.8307   6.8408   6.8788   6.9049   6.9397   6.9449
     6.9784   7.0013   7.0364   7.1003   7.1089   7.1953   7.2146   7.2276
     7.2697   7.3041   7.3151   7.3363   7.4016   7.4400   7.4558   7.4742
     7.5161   7.5619   7.6224   7.6674   7.7156   7.7607   7.7816   7.8138
     7.8507   7.8552   7.9011   7.9309   7.9385   7.9938   8.0128   8.0387
     8.1384   8.1692   8.1962   8.2025   8.2188   8.2306   8.2760   8.2957
     8.3103   8.4172   8.4596   8.4723   8.5245   8.5366   8.5488   8.5899
     8.6123   8.6733   8.7156   8.7214   8.7425   8.7649   8.8005   8.8547
     8.9099   8.9877   9.1156   9.1395   9.2353   9.3283   9.3757   9.4557
     9.6063   9.6701  10.1071  10.1849  10.7058  10.9265  11.3906  11.7473
    12.1138  12.1676  12.8580  13.5738  14.1190  14.3001  15.1503  15.2946
    15.3813  15.4947  15.5746  15.7154  16.0063  16.4413  16.7413  16.8689
    16.9058  17.1966  17.4640  17.8238

          k = 0.2500 0.2887 0.0000 ( 23496 PWs)   bands (ev):

     2.5255   2.6503   2.8635   3.1356   3.4677   3.8316   4.1918   4.4036
     4.4746   4.4951   4.6179   4.6270   4.6602   4.6621   4.7249   4.7513
     4.7982   4.8393   4.8789   4.8815   4.9302   4.9885   5.0575   5.0975
     5.1092   5.2066   5.2590   5.3089   5.3844   5.4403   5.4513   5.5782
     5.6187   5.6234   5.7240   5.7277   5.7776   5.8227   5.8896   5.9180
     5.9276   5.9308   5.9603   5.9843   6.0149   6.0628   6.0922   6.1075
     6.1262   6.1281   6.1782   6.2146   6.2471   6.3214   6.3683   6.3734
     6.4290   6.4634   6.4970   6.5126   6.5537   6.5711   6.5725   6.6278
     6.6391   6.6662   6.6818   6.6856   6.7028   6.7427   6.7764   6.7975
     6.8295   6.8404   6.8562   6.8813   6.9037   6.9374   6.9576   6.9632
     6.9899   7.0113   7.0267   7.0483   7.1108   7.1336   7.1589   7.1598
     7.1778   7.2119   7.2488   7.2810   7.2935   7.3436   7.3614   7.3618
     7.4328   7.4435   7.4797   7.5423   7.5453   7.5813   7.6308   7.6797
     7.7261   7.7466   7.7471   7.8123   7.8366   7.8438   7.8918   7.9081
     7.9440   7.9684   8.0109   8.0734   8.0974   8.1601   8.1734   8.2259
     8.2523   8.3836   8.3872   8.4749   8.6022   8.6152   8.6532   8.7031
     8.7671   8.7720   8.7859   8.7981   8.8355   8.8680   8.9495   8.9941
     9.0114   9.0925   9.4636   9.8056   9.8558   9.9148  10.0124  10.0240
    10.1833  10.4675  10.6637  10.8808  11.4054  11.4469  12.0144  12.2935
    12.6660  12.9703  13.3660  14.0214  14.3347  14.7013  15.4095  15.5256
    15.6777  15.8310  15.8609  16.0055  16.2548  16.6425  17.0020  17.0558
    17.2046  17.2831  17.5556  17.6142

          k = 0.2500 0.4330 0.0000 ( 23431 PWs)   bands (ev):

     3.1311   3.2286   3.4146   3.6329   3.9034   4.1881   4.4640   4.6619
     4.7701   4.7788   4.7905   4.8129   4.8291   4.8824   4.9160   4.9563
     4.9888   5.0317   5.0387   5.1172   5.1197   5.1453   5.1585   5.2071
     5.2524   5.2536   5.3137   5.4286   5.4657   5.4889   5.5309   5.5689
     5.5871   5.6304   5.6860   5.7129   5.7561   5.7989   5.8228   5.8413
     5.8679   5.8893   5.9124   5.9318   5.9625   5.9910   6.0079   6.0505
     6.0705   6.1112   6.1325   6.1461   6.1910   6.1959   6.2453   6.2927
     6.3644   6.3857   6.4227   6.4549   6.5304   6.5524   6.5734   6.5788
     6.6270   6.6427   6.6598   6.6785   6.6980   6.7165   6.7173   6.7650
     6.8046   6.8711   6.9122   6.9365   6.9761   6.9840   6.9866   7.0287
     7.0308   7.1332   7.1820   7.1841   7.2104   7.2165   7.2646   7.2710
     7.3139   7.3386   7.3565   7.3921   7.4164   7.4547   7.4732   7.5003
     7.5325   7.5652   7.6033   7.6090   7.6293   7.6376   7.6648   7.7010
     7.7076   7.7279   7.7970   7.8109   7.8196   7.8635   7.8929   7.9387
     7.9719   8.0311   8.0423   8.0654   8.1154   8.1773   8.2226   8.2654
     8.3767   8.4017   8.4319   8.5781   8.6320   8.6780   8.7734   8.8077
     8.8261   8.8288   8.8434   8.8556   8.8564   8.8762   8.9745   9.0271
     9.1289   9.3384   9.9078  10.4127  10.4582  10.5497  10.5552  10.7144
    10.9524  11.2414  11.2897  11.7188  12.0450  12.2252  12.7968  12.8820
    13.3804  14.0159  14.0244  14.5563  14.8452  15.0923  15.7011  15.8350
    15.8884  15.9121  15.9449  16.1798  16.2676  16.4188  16.5252  16.6257
    16.9083  17.0175  17.4007  17.4346

          k = 0.2500 0.5774 0.0000 ( 23466 PWs)   bands (ev):

     3.7362   3.7975   3.9660   4.0957   4.2557   4.3927   4.5301   4.6321
     4.6501   4.6998   4.7220   4.7611   4.7654   4.8368   4.8828   4.9040
     4.9127   5.0026   5.0042   5.0500   5.0546   5.1261   5.1333   5.1862
     5.1986   5.2238   5.2308   5.2570   5.2890   5.3415   5.3668   5.4049
     5.4401   5.4886   5.5306   5.6335   5.6769   5.6771   5.7619   5.8221
     5.8475   5.8596   5.8953   5.9281   5.9615   5.9643   6.0028   6.0877
     6.1227   6.1877   6.2487   6.2564   6.3022   6.4026   6.4155   6.4602
     6.4793   6.5046   6.5343   6.5773   6.5940   6.6227   6.6405   6.6415
     6.6551   6.7186   6.7667   6.7824   6.7953   6.8314   6.8524   6.9217
     6.9250   6.9779   6.9985   7.0183   7.0858   7.1050   7.1733   7.1821
     7.2845   7.2850   7.3327   7.3532   7.3928   7.4856   7.4910   7.5142
     7.5228   7.5469   7.5580   7.6571   7.6685   7.7479   7.7879   7.8166
     7.8830   7.8849   7.9220   7.9402   7.9498   7.9711   7.9991   8.0622
     8.0713   8.0812   8.0895   8.1297   8.1322   8.1362   8.1998   8.2067
     8.2728   8.3102   8.3489   8.3593   8.4141   8.4425   8.4621   8.4962
     8.4979   8.5423   8.5796   8.6200   8.6925   8.7047   8.7476   8.7502
     8.7561   8.8276   8.8277   8.8586   8.8627   8.9388   8.9880   9.0861
     9.2373   9.8341  10.4913  11.0687  11.1428  11.2010  11.2815  11.4866
    11.7656  11.9281  12.1358  12.5821  12.7224  13.0900  13.4836  13.5883
    13.7602  13.8582  14.0817  14.2929  14.4238  14.7651  15.0232  15.0729
    15.1548  15.4562  15.6309  15.7441  15.8884  16.1753  16.4101  16.5495
    16.6524  17.0683  17.2205  17.4261

          k = 0.2500 0.7217 0.0000 ( 23545 PWs)   bands (ev):

     4.0791   4.1443   4.3309   4.3987   4.4046   4.4969   4.5156   4.5232
     4.5483   4.5878   4.6131   4.6497   4.6643   4.7366   4.7602   4.7728
     4.8266   4.8664   4.8722   4.8738   4.9278   4.9369   4.9479   5.0193
     5.0503   5.0852   5.0947   5.1352   5.1534   5.2291   5.2442   5.2490
     5.3154   5.3476   5.4102   5.4857   5.5534   5.6024   5.7199   5.7217
     5.7706   5.8577   5.8713   5.9434   5.9964   6.0203   6.0399   6.1465
     6.1532   6.2496   6.2746   6.3424   6.3591   6.3960   6.4065   6.4697
     6.5423   6.5513   6.5640   6.6013   6.6445   6.6693   6.6982   6.7284
     6.7635   6.8120   6.8188   6.8528   6.9419   6.9679   7.0299   7.0785
     7.1163   7.1221   7.2029   7.2187   7.2792   7.2973   7.3070   7.3739
     7.4202   7.4223   7.5599   7.5860   7.6495   7.6810   7.7438   7.8144
     7.8308   7.9013   7.9120   7.9270   7.9525   7.9651   8.0133   8.0825
     8.1432   8.1800   8.2070   8.2224   8.2296   8.2329   8.2765   8.3072
     8.3262   8.3395   8.4352   8.4576   8.4833   8.5402   8.5454   8.5630
     8.5864   8.5901   8.5992   8.6156   8.6639   8.6929   8.6990   8.7096
     8.7465   8.7783   8.7947   8.8263   8.8790   8.9113   8.9350   8.9499
     8.9534   9.0069   9.1305   9.2320   9.3341   9.3626   9.4519   9.6663
    10.1105  10.7162  11.4030  11.9359  11.9858  12.0069  12.0628  12.1403
    12.1441  12.2480  12.3895  12.5450  12.7684  12.8762  12.9587  13.2145
    13.3791  13.4558  13.6297  13.7918  13.9875  14.2873  14.3094  14.6871
    14.9055  15.3091  15.3626  15.3647  15.5649  15.7343  15.7570  15.9829
    16.0233  16.1967  16.4503  16.6106

          k = 0.2500-0.8660 0.0000 ( 23532 PWs)   bands (ev):

     4.2069   4.2605   4.3322   4.3355   4.4153   4.4683   4.4793   4.5095
     4.5444   4.5480   4.6420   4.6639   4.7090   4.7107   4.7397   4.7465
     4.8022   4.8041   4.8145   4.8155   4.8967   4.9090   4.9112   4.9226
     4.9537   4.9578   5.0469   5.0524   5.0818   5.0822   5.2301   5.2374
     5.3032   5.3115   5.3305   5.3318   5.5219   5.5234   5.6861   5.6889
     5.8205   5.8541   5.9453   5.9739   6.0557   6.0608   6.1119   6.1310
     6.1662   6.1710   6.2308   6.2421   6.4205   6.4261   6.4613   6.4641
     6.5305   6.5520   6.5723   6.5841   6.6506   6.6650   6.7137   6.7308
     6.7804   6.8061   6.8868   6.9150   6.9965   7.0086   7.0886   7.1104
     7.1710   7.1842   7.3013   7.3131   7.3711   7.3813   7.4376   7.4619
     7.5057   7.5272   7.6654   7.6983   7.7000   7.7046   7.8882   7.9164
     7.9231   7.9652   8.0629   8.0638   8.0887   8.1016   8.1028   8.1245
     8.2494   8.2601   8.3058   8.3446   8.3598   8.3711   8.3946   8.3978
     8.4046   8.4160   8.4334   8.4468   8.4777   8.4808   8.5295   8.5404
     8.6460   8.6621   8.7068   8.7253   8.7580   8.7632   8.7909   8.8141
     8.8347   8.8663   8.9061   8.9168   8.9706   8.9870   9.0359   9.0403
     9.0596   9.0748  10.3934  10.4092  10.4836  10.4929  10.6117  10.6190
    10.7286  10.7518  10.9195  10.9318  11.1971  11.2234  11.6021  11.6303
    12.1214  12.1450  12.7200  12.7609  13.3543  13.3712  13.5242  13.5513
    13.6490  13.6498  13.7659  13.8305  13.9385  14.0519  14.1391  14.1784
    14.3984  14.5483  14.7454  14.8057  15.0181  15.1373  15.4487  15.4937
    15.7759  15.8024  15.9741  15.9844

          k = 0.2500-0.7217 0.0000 ( 23545 PWs)   bands (ev):

     4.0067   4.1468   4.2811   4.4422   4.4662   4.4713   4.5030   4.5232
     4.5299   4.6134   4.6234   4.6308   4.6878   4.7208   4.7425   4.7611
     4.8301   4.8647   4.8734   4.8828   4.9298   4.9458   4.9484   5.0126
     5.0274   5.0971   5.1027   5.1299   5.1566   5.2326   5.2449   5.2516
     5.3249   5.3361   5.4097   5.4796   5.5441   5.6026   5.7094   5.7300
     5.7871   5.8541   5.8565   5.9511   6.0015   6.0302   6.0373   6.1646
     6.1723   6.2823   6.2873   6.3088   6.3671   6.4100   6.4431   6.5116
     6.5344   6.5374   6.5821   6.6112   6.6242   6.6751   6.7066   6.7109
     6.7764   6.8063   6.8555   6.8584   6.9467   6.9883   7.0213   7.0255
     7.1058   7.1145   7.1708   7.2361   7.2560   7.2819   7.3329   7.3979
     7.4244   7.4596   7.5436   7.5816   7.6487   7.6691   7.7452   7.7988
     7.8354   7.9001   7.9013   7.9479   7.9501   7.9511   8.0423   8.0683
     8.1220   8.1750   8.1828   8.2137   8.2245   8.2670   8.2760   8.2988
     8.3268   8.3593   8.4440   8.4809   8.4993   8.5230   8.5460   8.5555
     8.5807   8.5910   8.6038   8.6459   8.6673   8.6766   8.6859   8.7377
     8.7719   8.7839   8.7962   8.8116   8.8765   8.9108   8.9294   8.9412
     8.9451   8.9595   9.1306   9.2387   9.3315   9.3835   9.4563   9.6809
    10.1190  10.7070  11.3951  11.9491  11.9973  12.0313  12.0628  12.0806
    12.1306  12.2186  12.3379  12.5068  12.6781  12.8453  12.9209  13.1043
    13.3686  13.5257  13.5352  13.7779  14.0439  14.2894  14.4774  14.7310
    15.0571  15.2914  15.3882  15.4385  15.5512  15.5868  15.7205  15.9607
    16.1272  16.1631  16.4052  16.6729

          k = 0.2500-0.5774 0.0000 ( 23466 PWs)   bands (ev):

     3.6648   3.8031   3.9283   4.1219   4.2748   4.4171   4.5412   4.6061
     4.6366   4.6503   4.7260   4.7375   4.7621   4.8502   4.8737   4.8792
     4.9136   5.0026   5.0155   5.0463   5.0634   5.1254   5.1409   5.1883
     5.2065   5.2082   5.2340   5.2654   5.2902   5.3516   5.3798   5.4074
     5.4390   5.4878   5.5381   5.6111   5.6648   5.6903   5.7661   5.8253
     5.8415   5.8477   5.9328   5.9491   5.9505   5.9912   6.0230   6.0884
     6.1354   6.1932   6.2697   6.2751   6.3081   6.3997   6.4080   6.4525
     6.4999   6.5130   6.5500   6.5813   6.6178   6.6343   6.6387   6.6502
     6.6776   6.7147   6.7440   6.7710   6.8218   6.8482   6.8705   6.9164
     6.9320   6.9543   6.9873   7.0141   7.0951   7.1184   7.1423   7.1984
     7.2452   7.2916   7.3377   7.3391   7.4693   7.4713   7.5126   7.5214
     7.5331   7.5410   7.5723   7.6281   7.6612   7.7313   7.8007   7.8364
     7.8495   7.8912   7.9150   7.9331   7.9601   8.0015   8.0061   8.0626
     8.0724   8.0764   8.0788   8.1171   8.1195   8.1426   8.1963   8.2134
     8.2615   8.3146   8.3361   8.3611   8.4212   8.4424   8.4627   8.4871
     8.5085   8.5403   8.5775   8.6525   8.6986   8.7059   8.7513   8.7541
     8.8006   8.8301   8.8404   8.8758   8.8796   8.8898   8.9923   9.0149
     9.2275   9.8020  10.4625  11.0648  11.1169  11.1373  11.2777  11.4752
    11.7604  11.8927  12.1276  12.5800  12.6270  13.1013  13.4900  13.6406
    13.7200  13.8712  14.0372  14.3369  14.4163  14.7200  14.9798  15.0213
    15.1152  15.4829  15.6635  15.6914  15.8823  16.2272  16.4206  16.5018
    16.6977  17.2259  17.2517  17.4966

          k = 0.2500-0.4330 0.0000 ( 23431 PWs)   bands (ev):

     3.0969   3.2315   3.3976   3.6422   3.9052   4.1968   4.4660   4.6476
     4.6711   4.7376   4.7462   4.8245   4.8333   4.8705   4.9050   4.9267
     4.9774   5.0265   5.0690   5.1092   5.1368   5.1592   5.2048   5.2387
     5.2525   5.2550   5.3197   5.4664   5.4764   5.4796   5.5297   5.5623
     5.5908   5.6357   5.6667   5.7153   5.7468   5.7908   5.8230   5.8672
     5.9116   5.9198   5.9290   5.9336   5.9919   5.9970   6.0288   6.0302
     6.0476   6.1126   6.1457   6.1601   6.1916   6.2260   6.2371   6.2699
     6.3774   6.3946   6.4299   6.4662   6.5161   6.5503   6.5815   6.5914
     6.6229   6.6345   6.6688   6.6857   6.7060   6.7133   6.7332   6.7602
     6.8211   6.8833   6.9014   6.9716   6.9848   6.9858   7.0263   7.0306
     7.0588   7.1448   7.1480   7.1808   7.1882   7.2387   7.2614   7.2845
     7.3007   7.3429   7.3445   7.3894   7.4149   7.4195   7.4838   7.4893
     7.5606   7.5662   7.6032   7.6213   7.6344   7.6587   7.6588   7.6998
     7.7056   7.7488   7.8008   7.8093   7.8517   7.8623   7.8922   7.9220
     7.9747   8.0284   8.0299   8.0604   8.1011   8.1620   8.1938   8.2419
     8.3896   8.4124   8.4355   8.5611   8.6472   8.7306   8.7829   8.8098
     8.8102   8.8264   8.8597   8.8739   8.8903   8.8963   8.9176   9.0331
     9.0498   9.2963   9.8713  10.4124  10.4533  10.4569  10.5512  10.7059
    10.9493  11.2036  11.2900  11.7302  11.9452  12.2516  12.8249  12.8851
    13.4395  13.9444  14.0203  14.6096  14.8827  14.9294  15.6251  15.7563
    15.8579  15.8969  15.9615  16.1588  16.2626  16.4487  16.4781  16.6213
    16.9956  17.1112  17.4336  17.4839

          k = 0.2500-0.2887 0.0000 ( 23496 PWs)   bands (ev):

     2.5120   2.6511   2.8560   3.1379   3.4664   3.8319   4.1876   4.3813
     4.4659   4.4944   4.5877   4.6177   4.6406   4.6545   4.7024   4.7276
     4.7966   4.8370   4.8789   4.8808   4.9360   4.9902   5.0426   5.0963
     5.1220   5.2113   5.2311   5.3239   5.3747   5.4642   5.5376   5.5498
     5.6193   5.6329   5.7195   5.7809   5.8067   5.8090   5.8943   5.9084
     5.9212   5.9310   5.9657   6.0081   6.0184   6.0529   6.1002   6.1148
     6.1226   6.1470   6.1826   6.2416   6.2858   6.3347   6.3633   6.4023
     6.4365   6.4527   6.4800   6.5094   6.5239   6.5670   6.5842   6.6285
     6.6356   6.6607   6.6928   6.7066   6.7178   6.7368   6.7749   6.7880
     6.8287   6.8300   6.8602   6.8796   6.9120   6.9313   6.9649   6.9872
     6.9902   6.9968   7.0198   7.0629   7.0925   7.1256   7.1458   7.1840
     7.1841   7.2395   7.2642   7.2931   7.3020   7.3423   7.3677   7.3689
     7.4513   7.4517   7.5052   7.5572   7.5684   7.5953   7.6411   7.6757
     7.6943   7.7442   7.7601   7.7738   7.8178   7.8353   7.8903   7.9070
     7.9470   7.9700   7.9836   8.0436   8.0973   8.1682   8.1695   8.2056
     8.2603   8.3881   8.3965   8.4666   8.6259   8.6315   8.6840   8.6925
     8.7660   8.7730   8.8020   8.8281   8.8375   8.8790   8.9113   8.9753
     8.9984   9.0128   9.4303   9.8144   9.8545   9.9105   9.9361  10.0045
    10.1786  10.4702  10.6285  10.8953  11.3534  11.4318  12.0437  12.2906
    12.7047  12.9239  13.3744  14.0487  14.3684  14.6450  15.3994  15.4910
    15.6814  15.8470  15.8496  16.0126  16.2107  16.6014  17.0214  17.0314
    17.2168  17.2690  17.5417  17.6153

          k = 0.2500-0.1443 0.0000 ( 23484 PWs)   bands (ev):

     2.1045   2.2453   2.4665   2.7611   3.1111   3.4956   3.8695   4.0376
     4.1487   4.1683   4.3035   4.3353   4.3902   4.3991   4.4592   4.4919
     4.5246   4.5819   4.5829   4.6075   4.6412   4.7294   4.7700   4.8318
     4.8709   4.9543   5.0178   5.1011   5.2316   5.2400   5.3411   5.5529
     5.7025   5.7787   5.8181   5.8216   5.9034   5.9201   6.0015   6.0237
     6.0450   6.0626   6.0976   6.1363   6.1386   6.1757   6.2165   6.2753
     6.2884   6.3188   6.3622   6.3761   6.3974   6.4453   6.4491   6.5012
     6.5031   6.5266   6.5798   6.5822   6.6005   6.6139   6.6186   6.6378
     6.6444   6.6954   6.7054   6.7171   6.7288   6.7575   6.7690   6.7935
     6.7963   6.8213   6.8362   6.8549   6.8742   6.9099   6.9307   6.9596
     6.9731   7.0143   7.0311   7.0936   7.1170   7.1957   7.2064   7.2203
     7.2572   7.2624   7.3157   7.3232   7.4217   7.4559   7.4735   7.4793
     7.5693   7.5847   7.6276   7.6479   7.7094   7.7485   7.7726   7.8050
     7.8434   7.8732   7.9004   7.9243   7.9427   7.9653   8.0349   8.0545
     8.1188   8.1403   8.1931   8.2119   8.2258   8.2465   8.2621   8.2874
     8.3140   8.4356   8.4470   8.4676   8.5179   8.5299   8.5876   8.6064
     8.6358   8.6724   8.7131   8.7316   8.7377   8.7699   8.7942   8.8024
     8.9128   8.9279   9.1197   9.1256   9.2420   9.3328   9.3664   9.4508
     9.5434   9.6744  10.1232  10.1599  10.7279  10.8613  11.4136  11.7444
    12.1352  12.1450  12.8666  13.5854  14.1379  14.2801  15.1486  15.2941
    15.3686  15.5011  15.5745  15.7190  15.9844  16.4288  16.7601  16.8712
    16.8958  17.1916  17.4685  17.8120

          k = 0.3750 0.0000 0.0000 ( 23492 PWs)   bands (ev):

     2.4848   2.6161   2.8270   3.1041   3.4360   3.6656   3.7674   3.8010
     3.9150   4.0840   4.1587   4.2415   4.3738   4.4396   4.5004   4.5789
     4.6161   4.6339   4.6895   4.7260   4.8482   4.8503   4.8580   4.9197
     4.9836   5.0200   5.1147   5.1884   5.2298   5.3245   5.4837   5.5218
     5.6225   5.6716   5.7690   5.8043   5.8629   5.8960   5.9182   5.9220
     5.9437   5.9791   6.0391   6.0735   6.0906   6.1256   6.1429   6.1854
     6.2706   6.3134   6.3372   6.4143   6.4183   6.4630   6.4953   6.5191
     6.5204   6.5620   6.5654   6.5937   6.5987   6.6211   6.6422   6.6496
     6.6690   6.6931   6.7025   6.7029   6.7506   6.7794   6.8142   6.8255
     6.8412   6.8646   6.8907   6.9191   6.9304   6.9354   6.9523   6.9792
     7.0033   7.0081   7.0276   7.0691   7.1252   7.1496   7.1514   7.1827
[...]
     8.4988   8.5183   8.5489   8.5716   8.5969   8.6204   8.6662   8.6896
     8.7045   8.7079   8.7520   8.7578   8.7971   8.8157   8.9476   9.0889
     9.4087   9.5280   9.9745  10.0585  10.6027  10.7285  11.2923  11.4959
    12.0091  12.4023  12.8050  13.1207  13.5625  14.4244  15.1879  15.4881
    15.7569  15.9218  16.6152  17.1129  17.2765  17.3327  17.4423  17.6322
    17.8797  18.0259  18.3017  18.7593

          k =-0.5000 0.0000-0.0000 ( 23442 PWs)   bands (ev):

     3.1124   3.1124   3.1982   3.1982   3.4151   3.4151   3.6326   3.6326
     3.9190   3.9190   4.2024   4.2024   4.4707   4.4707   4.6600   4.6600
     4.7607   4.7607   4.8775   4.8775   5.0143   5.0143   5.1364   5.1364
     5.1703   5.1703   5.2292   5.2292   5.2991   5.2991   5.4571   5.4571
     5.5779   5.5779   5.7101   5.7101   5.8145   5.8145   5.8748   5.8748
     5.9253   5.9253   5.9752   5.9753   6.0674   6.0675   6.1315   6.1315
     6.1873   6.1873   6.2542   6.2542   6.3651   6.3651   6.4397   6.4397
     6.5333   6.5333   6.5896   6.5897   6.6303   6.6304   6.6528   6.6528
     6.6678   6.6678   6.6902   6.6902   6.6954   6.6955   6.7423   6.7423
     6.8152   6.8152   6.8792   6.8792   6.9015   6.9016   6.9494   6.9495
     6.9948   6.9948   7.1615   7.1615   7.1953   7.1954   7.1988   7.1989
     7.2353   7.2354   7.2785   7.2785   7.3698   7.3698   7.4189   7.4189
     7.4346   7.4346   7.5204   7.5204   7.5476   7.5476   7.5589   7.5589
     7.6167   7.6168   7.6316   7.6317   7.6659   7.6659   7.7161   7.7162
     7.7987   7.7987   7.8291   7.8291   7.9043   7.9043   7.9733   7.9734
     8.0285   8.0285   8.0702   8.0702   8.1047   8.1047   8.1646   8.1646
     8.2468   8.2469   8.3568   8.3568   8.3989   8.3989   8.5670   8.5670
     8.6616   8.6616   8.8148   8.8148   8.8274   8.8274   8.8565   8.8565
     9.3226   9.3226   9.8828   9.8829  10.5092  10.5092  11.2066  11.2067
    12.0057  12.0057  12.8746  12.8746  13.9761  13.9762  14.8589  14.8590
    15.8765  15.8767  16.4364  16.4372  17.4113  17.4119  17.8104  17.8105
    19.1559  19.1562  19.2979  19.2981

          k =-0.5000 0.1443-0.0000 ( 23476 PWs)   bands (ev):

     3.2477   3.2530   3.3322   3.3329   3.5401   3.5437   3.7515   3.7535
     4.0317   4.0325   4.3135   4.3155   4.5933   4.5934   4.8006   4.8081
     4.8995   4.9019   5.0072   5.0108   5.1353   5.1408   5.2117   5.2212
     5.2734   5.2781   5.3033   5.3174   5.3688   5.3726   5.4914   5.5067
     5.5893   5.5985   5.6686   5.6789   5.7342   5.7412   5.7594   5.7663
     5.8368   5.8401   5.8592   5.8671   5.9643   5.9710   5.9785   6.0021
     6.0428   6.0714   6.0840   6.0847   6.2211   6.2319   6.3480   6.3732
     6.4319   6.4601   6.4620   6.4865   6.5158   6.5160   6.5522   6.5769
     6.5995   6.6149   6.6289   6.6420   6.6499   6.6502   6.6693   6.6704
     6.6953   6.7122   6.7208   6.7254   6.7667   6.7794   6.9128   6.9184
     6.9824   6.9917   7.0886   7.0924   7.1703   7.1819   7.2914   7.3023
     7.3587   7.3665   7.3775   7.3826   7.3893   7.3906   7.4220   7.4264
     7.4534   7.4929   7.5093   7.5341   7.5855   7.5891   7.6510   7.6673
     7.7045   7.7121   7.7660   7.7680   7.7709   7.7913   7.8440   7.8652
     7.8668   7.8825   7.9416   7.9591   8.0818   8.0840   8.1031   8.1055
     8.1434   8.1542   8.1938   8.2101   8.2252   8.2388   8.2923   8.2973
     8.3039   8.3058   8.3492   8.3546   8.4325   8.4429   8.5302   8.5435
     8.6311   8.6647   8.7152   8.7176   8.7397   8.7413   9.0040   9.0180
     9.4547   9.4847   9.9947  10.0260  10.6138  10.6511  11.3245  11.3432
    12.1204  12.1501  12.9882  12.9973  14.1932  14.2103  14.9808  15.0006
    15.9952  15.9978  16.5289  16.5411  17.5459  17.5692  17.8650  17.8740
    19.2082  19.2206  19.3751  19.3983

          k =-0.5000 0.2887-0.0000 ( 23540 PWs)   bands (ev):

     3.6059   3.6240   3.6806   3.6835   3.8536   3.8660   4.0334   4.0414
     4.2736   4.2785   4.5197   4.5318   4.7838   4.7966   5.0516   5.0518
     5.2336   5.2407   5.2718   5.2942   5.3115   5.3275   5.3456   5.3541
     5.3850   5.3853   5.4228   5.4361   5.4652   5.4693   5.4997   5.5044
     5.5188   5.5197   5.5352   5.5742   5.6050   5.6066   5.6643   5.6650
     5.7160   5.7259   5.7940   5.8057   5.8236   5.8269   5.8407   5.8533
     5.9876   6.0064   6.0462   6.0555   6.0710   6.0754   6.1454   6.1581
     6.1993   6.2248   6.2470   6.2579   6.3244   6.3426   6.3901   6.4097
     6.4363   6.4495   6.4975   6.4996   6.5184   6.5186   6.5609   6.6022
     6.6046   6.6046   6.6059   6.6557   6.9400   6.9537   6.9672   6.9876
     7.0012   7.0097   7.0443   7.0520   7.1531   7.1839   7.2043   7.2180
     7.2635   7.2766   7.3402   7.3670   7.4208   7.4736   7.5272   7.5374
     7.5809   7.5849   7.6242   7.6278   7.6944   7.7122   7.7731   7.7786
     7.8215   7.8381   7.9503   7.9625   8.0207   8.0265   8.0411   8.0449
     8.1569   8.1893   8.2086   8.2225   8.2419   8.2618   8.3667   8.3678
     8.3962   8.4139   8.4302   8.4365   8.4486   8.4530   8.4872   8.4918
     8.5122   8.5162   8.5403   8.5679   8.5972   8.5978   8.6310   8.6410
     8.6834   8.6854   8.7007   8.7187   8.8482   8.8512   9.2616   9.2854
     9.7461   9.7870  10.3026  10.3485  10.9308  10.9956  11.6608  11.6913
    12.4474  12.5055  13.2808  13.3034  14.7630  14.8067  15.3622  15.3959
    16.3264  16.3447  16.8300  16.8674  17.8890  17.9596  18.0492  18.0609
    19.2646  19.2906  19.3353  19.3950

          k =-0.5000 0.4330-0.0000 ( 23522 PWs)   bands (ev):

     3.9524   3.9964   4.0306   4.0360   4.1728   4.2125   4.3040   4.3258
     4.4435   4.4648   4.5719   4.5998   4.7227   4.7472   4.8732   4.8777
     4.9650   4.9773   5.0221   5.0361   5.0944   5.1101   5.1408   5.1438
     5.2056   5.2164   5.3013   5.3160   5.3438   5.3510   5.4620   5.4633
     5.5054   5.5159   5.5928   5.5971   5.6207   5.6630   5.7457   5.7556
     5.8508   5.8522   5.9296   5.9427   5.9981   6.0117   6.0458   6.0545
     6.1056   6.1354   6.1693   6.1799   6.2176   6.2253   6.2936   6.2957
     6.3317   6.3432   6.3792   6.3920   6.4444   6.4466   6.4691   6.4892
     6.5407   6.5715   6.6242   6.6528   6.7091   6.7127   6.7394   6.7628
     6.7790   6.8172   6.8495   6.8549   6.8768   6.9230   6.9432   6.9452
     7.0245   7.0371   7.1175   7.1245   7.2219   7.2342   7.3999   7.4007
     7.4631   7.4674   7.5238   7.5250   7.5532   7.5585   7.5901   7.5998
     7.6078   7.6169   7.6996   7.7080   7.8250   7.8315   7.8489   7.8489
     8.0112   8.0173   8.0998   8.1239   8.2073   8.2154   8.2666   8.2696
     8.3692   8.3715   8.4534   8.4577   8.4984   8.5057   8.5365   8.5383
     8.5729   8.5777   8.6254   8.6286   8.6490   8.6921   8.7738   8.7786
     8.7885   8.7927   8.8140   8.8426   8.8520   8.8601   8.8762   8.8799
     8.9225   8.9252   9.0118   9.0129   9.2048   9.2086   9.6191   9.6407
    10.1472  10.1892  10.7556  10.8019  11.4135  11.4943  12.1599  12.1955
    12.9228  13.0054  13.6970  13.7316  15.4111  15.4897  15.9186  15.9635
    16.7522  16.7891  17.2892  17.3902  17.4968  17.5776  17.6564  17.6992
    17.9559  17.9958  18.1173  18.1205

          k =-0.5000 0.5774-0.0000 ( 23534 PWs)   bands (ev):

     4.0170   4.0608   4.1129   4.1153   4.2865   4.3350   4.4180   4.4523
     4.4777   4.4844   4.4969   4.4987   4.5840   4.6206   4.6397   4.6508
     4.7276   4.7315   4.7590   4.7625   4.8081   4.8101   4.8714   4.8813
     4.9371   4.9575   5.0264   5.0534   5.0939   5.0967   5.2464   5.2499
     5.2643   5.2681   5.3513   5.3568   5.5477   5.5613   5.7145   5.7332
     5.8585   5.8787   6.0239   6.0528   6.1589   6.1898   6.2275   6.2828
     6.3259   6.3298   6.3506   6.3537   6.4266   6.4398   6.4881   6.4909
     6.5243   6.5316   6.5610   6.5697   6.6123   6.6149   6.7023   6.7099
     6.7475   6.7651   6.8373   6.8607   6.9475   6.9576   7.0264   7.0333
     7.0878   7.0970   7.1961   7.2051   7.2564   7.2850   7.3162   7.3450
     7.4323   7.4454   7.5646   7.5673   7.6497   7.6777   7.7433   7.7942
     7.8370   7.8450   7.9099   7.9122   7.9287   7.9379   8.0228   8.0243
     8.1230   8.1330   8.1784   8.1964   8.2096   8.2116   8.2222   8.2242
     8.2605   8.2683   8.2818   8.2995   8.4313   8.4357   8.4678   8.4719
     8.5283   8.5401   8.5775   8.5779   8.5994   8.6035   8.6679   8.6843
     8.7343   8.7363   8.7715   8.7876   8.7944   8.8378   8.9072   8.9096
     8.9334   8.9778   9.1222   9.1232   9.2221   9.2252   9.3208   9.3316
     9.3550   9.3784   9.4559   9.4657   9.6798   9.6901  10.1142  10.1209
    10.6907  10.7206  11.3649  11.3952  12.0640  12.1461  12.8217  12.8588
    13.5434  13.6499  14.2609  14.2916  15.2791  15.2951  15.3615  15.3917
    15.5517  15.5798  15.7080  15.7330  15.9734  16.0081  16.4140  16.4447
    16.9006  16.9054  17.1916  17.1992

          k =-0.5000 0.7217-0.0000 ( 23516 PWs)   bands (ev):

     3.9678   4.0057   4.0652   4.0667   4.2464   4.2579   4.2833   4.2878
     4.3297   4.3344   4.4329   4.4396   4.4785   4.4874   4.5449   4.5528
     4.5770   4.5828   4.6063   4.6084   4.6476   4.6589   4.6966   4.7004
     4.7637   4.7725   4.8170   4.8332   4.9343   4.9397   5.0707   5.0709
     5.0965   5.0968   5.2195   5.2206   5.4802   5.4809   5.7136   5.7442
     5.9003   5.9258   6.0372   6.0981   6.1637   6.1832   6.2197   6.2352
     6.3062   6.3117   6.3433   6.3517   6.3993   6.4037   6.4436   6.4492
     6.5026   6.5078   6.6402   6.6627   6.7379   6.7559   6.8060   6.8222
     6.8918   6.9209   7.0157   7.0258   7.0927   7.1066   7.2690   7.2845
     7.3416   7.3508   7.4452   7.4678   7.5956   7.6040   7.7135   7.7545
     7.8323   7.8501   7.8824   7.9162   8.1070   8.1195   8.1533   8.1646
     8.2510   8.2641   8.3906   8.4083   8.4518   8.4591   8.5285   8.5445
     8.5617   8.5644   8.5907   8.5939   8.6422   8.6423   8.6612   8.6754
     8.6949   8.6996   8.7069   8.7101   8.7257   8.7323   8.7377   8.7416
     8.7538   8.7694   8.7831   8.7911   8.8027   8.8082   8.8357   8.8381
     8.8725   8.8728   8.9233   8.9324   8.9774   9.0263   9.0719   9.0723
     9.0758   9.0883   9.5718   9.6118   9.8053   9.8068  10.0452  10.0764
    10.1889  10.2222  10.2987  10.3298  10.4637  10.5056  10.8310  10.8642
    11.3894  11.3994  12.0343  12.0659  12.7286  12.7445  13.2991  13.3763
    13.4631  13.4667  13.5242  13.5550  13.6623  13.7775  13.9328  13.9740
    14.1625  14.3275  14.5205  14.5780  14.7920  14.9365  15.2037  15.3141
    15.5426  15.5610  15.8526  15.9208

          k =-0.5000-0.8660-0.0000 ( 23552 PWs)   bands (ev):

     3.9403   3.9758   4.0371   4.0383   4.1940   4.2124   4.2198   4.2474
     4.2670   4.2794   4.3892   4.3991   4.4393   4.4428   4.4852   4.4926
     4.5237   4.5309   4.5415   4.5421   4.6042   4.6189   4.6554   4.6587
     4.6940   4.7067   4.7364   4.7386   4.8771   4.8825   5.0096   5.0125
     5.0320   5.0326   5.1749   5.1762   5.4473   5.4516   5.7068   5.7390
     5.9177   5.9406   6.0245   6.0849   6.1586   6.1657   6.1980   6.2167
     6.3023   6.3115   6.3177   6.3209   6.3590   6.3753   6.3987   6.4010
     6.5453   6.6117   6.6694   6.7047   6.7669   6.7784   6.8236   6.8457
     7.0065   7.0306   7.0409   7.0642   7.1485   7.1550   7.2805   7.2885
     7.4486   7.4605   7.5661   7.5689   7.5994   7.6304   7.8567   7.8590
     7.8936   7.9536   8.0675   8.0705   8.1121   8.1256   8.3625   8.3677
     8.3835   8.3850   8.4952   8.5041   8.5594   8.5833   8.6695   8.6942
     8.6957   8.7315   8.7363   8.7409   8.7867   8.7900   8.7927   8.7927
     8.8136   8.8234   8.8360   8.8388   8.8472   8.8505   8.8579   8.8637
     8.8839   8.8883   8.9143   8.9168   8.9448   8.9557   8.9703   8.9858
     9.0102   9.0206   9.0250   9.0293   9.0586   9.0799   9.2327   9.2328
     9.2336   9.2336  10.1760  10.2792  10.5346  10.5478  10.9055  10.9856
    11.1891  11.2468  11.4540  11.4586  11.5660  11.6278  11.6835  11.7330
    11.7682  11.7973  11.8289  11.8646  11.8751  11.8836  11.9144  12.1270
    12.1275  12.1278  12.1279  12.3685  13.2804  13.6491  13.7265  13.7593
    13.8854  14.0985  14.2527  14.3127  14.4677  14.6278  14.8421  14.9578
    15.2487  15.4597  15.7958  15.7960

     the Fermi energy is    10.7342 ev

!    total energy              =  -20153.51208352 Ry

     total all-electron energy =   -988623.510451 Ry
     estimated scf accuracy    <          9.3E-09 Ry
     smearing contrib. (-TS)   =      -0.00375888 Ry
     internal energy E=F+TS    =  -20153.50832464 Ry

     The total energy is F=E-TS. E is the sum of the following terms:
     one-electron contribution =   -8785.01351886 Ry
     hartree contribution      =    4718.01521851 Ry
     xc contribution           =    -833.59168069 Ry
     ewald contribution        =    2752.41484174 Ry
     one-center paw contrib.   =  -18005.33318533 Ry

     convergence has been achieved in  17 iterations

     negative rho (up, down):  2.267E-03 0.000E+00

     Forces acting on atoms (cartesian axes, Ry/au):

     atom    1 type  1   force =    -0.00008115   -0.00001716    0.00033703
     atom    2 type  1   force =     0.00007202    0.00004360   -0.00029916
     atom    3 type  1   force =     0.00009148    0.00004199    0.00047711
     atom    4 type  1   force =     0.00310889    0.00586731   -0.00030587
     atom    5 type  1   force =    -0.00007806    0.00000984   -0.00020128
     atom    6 type  1   force =     0.00006818   -0.00000416   -0.00025930
     atom    7 type  1   force =    -0.00004638    0.00000094    0.00072607
     atom    8 type  1   force =    -0.00306408   -0.00586462    0.00034475
     atom    9 type  1   force =     0.00004422   -0.00001066   -0.00082040
     atom   10 type  1   force =     0.00004203    0.00000718   -0.00032249
     atom   11 type  1   force =    -0.00006905    0.00005689    0.00042727
     atom   12 type  1   force =    -0.00008244    0.00072023   -0.00034315
     atom   13 type  1   force =    -0.00001028   -0.00065589    0.00023915
     atom   14 type  1   force =     0.00006678   -0.00000527   -0.00025785
     atom   15 type  1   force =    -0.00003832   -0.00006520    0.00072675
     atom   16 type  1   force =    -0.00306433   -0.00592960    0.00034533
     atom   17 type  1   force =     0.00004690   -0.00000478   -0.00082112
     atom   18 type  1   force =     0.00003690    0.00001350   -0.00032278
     atom   19 type  1   force =    -0.00006625   -0.00001909    0.00042535
     atom   20 type  1   force =    -0.00007627    0.00065550   -0.00034249
     atom   21 type  1   force =    -0.00000760   -0.00065279    0.00023909
     atom   22 type  1   force =    -0.00007405   -0.00001894    0.00033384
     atom   23 type  1   force =     0.00006115   -0.00002964   -0.00029670
     atom   24 type  1   force =     0.00008945   -0.00001993    0.00047563
     atom   25 type  1   force =     0.00310998    0.00586816   -0.00030536
     atom   26 type  1   force =    -0.00007970    0.00001259   -0.00019940

     Total force =     0.002195     Total SCF correction =     0.000444
     SCF correction compared to forces is large: reduce conv_thr to get better values
     Energy error            =      7.7E-06 Ry
     Gradient error          =      8.2E-04 Ry/Bohr

     bfgs converged in  11 scf cycles and  10 bfgs steps
     (criteria: energy <  1.0E-04 Ry, force <  1.0E-03 Ry/Bohr)

     End of BFGS Geometry Optimization

     Final energy             =  -20153.5120835165 Ry

     File ./pwscf.bfgs deleted, as requested
Begin final coordinates

ATOMIC_POSITIONS (angstrom)
Au            0.0000000000        0.0000000000       -0.0124803225    0   0   1
Au            5.0991277561        0.4416000000       28.8577533494    0   0   1
Au            5.0991339819        0.4416000000       21.6434308137    0   0   1
Au            5.0991389889        0.0000000000       14.3960131070    0   0   1
Au            5.0991452147        0.0000000000        7.2077922021    0   0   1
Au            1.6997150733        0.0000000000        2.4203290335    0   0   1
Au            1.6996977676        0.4416000000       24.0358486448    0   0   1
Au            1.6997039934        0.4416000000       16.8541208140    0   0   1
Au            1.6997090005        0.0000000000        9.6053299431    0   0   1
Au            3.3994301414        0.0000000000        4.8107842205    0   0   1
Au            3.3994129888        0.4416000000       26.4249836950    0   0   1
Au            3.3994189086        0.4416000000       19.2521005526    0   0   1
Au            3.3994248284        0.0000000000       11.9974832547    0   0   1
Au            4.2492909414        1.4719970299        2.4203296319    0   0   1
Au            4.2492725751        1.9135970299       24.0358122470    0   0   1
Au            4.2492788009        1.9135970299       16.8541197284    0   0   1
Au            4.2492850215        1.4719970299        9.6053495902    0   0   1
Au            0.8498539674        1.4719970299        4.8107846595    0   0   1
Au            0.8498368147        1.9135970299       26.4250069633    0   0   1
Au            0.8498428875        1.9135970299       19.2520904931    0   0   1
Au            0.8498488838        1.4719970299       11.9975204174    0   0   1
Au            2.5495761740        1.4719970299       -0.0125084483    0   0   1
Au            2.5495526478        1.9135970299       28.8578246904    0   0   1
Au            2.5495578078        1.9135970299       21.6434825780    0   0   1
Au            2.5495637276        1.4719970299       14.3960056778    0   0   1
Au            2.5495699534        1.4719970299        7.2077579400    0   0   1
End final coordinates



     Writing all to output data dir ./pwscf.save/
 
     init_run     :     25.02s CPU     26.55s WALL (       1 calls)
     electrons    :  16102.68s CPU  16206.75s WALL (      11 calls)
     update_pot   :      6.71s CPU      6.76s WALL (      10 calls)
     forces       :    120.34s CPU    121.05s WALL (      11 calls)

     Called by init_run:
     wfcinit      :     24.23s CPU     24.93s WALL (       1 calls)
     potinit      :      0.44s CPU      0.56s WALL (       1 calls)
     hinit0       :      0.24s CPU      0.70s WALL (       1 calls)

     Called by electrons:
     c_bands      :  14173.21s CPU  14260.40s WALL (     273 calls)
     sum_band     :   1825.10s CPU   1838.36s WALL (     273 calls)
     v_of_rho     :      7.29s CPU      8.26s WALL (     273 calls)
     newd         :     19.11s CPU     20.66s WALL (     273 calls)
     PAW_pot      :     83.72s CPU     84.02s WALL (     283 calls)
     mix_rho      :      1.48s CPU      1.51s WALL (     273 calls)

     Called by c_bands:
     init_us_2    :     68.69s CPU     69.01s WALL (   28400 calls)
     init_us_2:cp :     68.58s CPU     68.95s WALL (   28400 calls)
     cegterg      :  13355.12s CPU  13438.17s WALL (   13650 calls)

     Called by *egterg:
     cdiaghg      :    807.92s CPU    814.69s WALL (   36408 calls)
     h_psi        :   7416.81s CPU   7471.64s WALL (   37508 calls)
     s_psi        :   1277.93s CPU   1282.56s WALL (   37508 calls)
     g_psi        :     22.92s CPU     23.05s WALL (   23808 calls)

     Called by h_psi:
     h_psi:calbec :   1310.34s CPU   1314.80s WALL (   37508 calls)
     vloc_psi     :   4766.95s CPU   4810.13s WALL (   37508 calls)
     add_vuspsi   :   1320.40s CPU   1324.96s WALL (   37508 calls)

     General routines
     calbec       :   2007.99s CPU   2014.82s WALL (   53858 calls)
     fft          :      9.55s CPU     10.86s WALL (    3145 calls)
     ffts         :      0.25s CPU      0.26s WALL (     273 calls)
     fftw         :   5519.49s CPU   5565.42s WALL (12821156 calls)
 
     Parallel routines
 
     PWSCF        :      4h31m CPU      4h33m WALL

 
   This run was terminated on:  19:33:13  18Feb2024            

=------------------------------------------------------------------------------=
   JOB DONE.
=------------------------------------------------------------------------------=
