MPI startup(): Warning: I_MPI_PMI_LIBRARY will be ignored since the hydra process manager was found
MPI startup(): Warning: I_MPI_PMI_LIBRARY will be ignored since the hydra process manager was found
MPI startup(): Warning: I_MPI_PMI_LIBRARY will be ignored since the hydra process manager was found
MPI startup(): Warning: I_MPI_PMI_LIBRARY will be ignored since the hydra process manager was found
MPI startup(): Warning: I_MPI_PMI_LIBRARY will be ignored since the hydra process manager was found
MPI startup(): Warning: I_MPI_PMI_LIBRARY will be ignored since the hydra process manager was found
MPI startup(): Warning: I_MPI_PMI_LIBRARY will be ignored since the hydra process manager was found
MPI startup(): Warning: I_MPI_PMI_LIBRARY will be ignored since the hydra process manager was found
MPI startup(): Warning: I_MPI_PMI_LIBRARY will be ignored since the hydra process manager was found
MPI startup(): Warning: I_MPI_PMI_LIBRARY will be ignored since the hydra process manager was found

     Program PWSCF v.7.0 starts on 15Feb2024 at 23:21:34 

     This program is part of the open-source Quantum ESPRESSO suite
     for quantum simulation of materials; please cite
         "P. Giannozzi et al., J. Phys.:Condens. Matter 21 395502 (2009);
         "P. Giannozzi et al., J. Phys.:Condens. Matter 29 465901 (2017);
         "P. Giannozzi et al., J. Chem. Phys. 152 154105 (2020);
          URL http://www.quantum-espresso.org", 
     in publications or presentations arising from this work. More details at
     http://www.quantum-espresso.org/quote

     Parallel version (MPI), running on    10 processors

     MPI processes distributed on     1 nodes
     R & G space division:  proc/nbgrp/npool/nimage =      10
     149046 MiB available memory on the printing compute node when the environment starts
 
     Reading input from GSF111_0.35.in
Warning: card &CELL ignored
Warning: card / ignored

     Current dimensions of program PWSCF are:
     Max number of different atomic species (ntypx) = 10
     Max number of k-points (npk) =  40000
     Max angular momentum in pseudopotentials (lmaxx) =  4

     File ./pwscf.bfgs deleted, as requested
     file Au.pbe-n-kjpaw_psl.1.0.0.UPF: wavefunction(s)  6S 5D renormalized
     Found identity + ( -0.5000  0.5000  0.0000) symmetry
     This is a supercell, fractional translations are disabled

     Subspace diagonalization in iterative solution of the eigenvalue problem:
     one sub-group per band group will be used
     scalapack distributed-memory algorithm (size of sub-group:  3*  3 procs)

 
     Parallelization info
     --------------------
     sticks:   dense  smooth     PW     G-vecs:    dense   smooth      PW
     Min          85      85     25                18799    18799    3045
     Max          87      87     26                18816    18816    3065
     Sum         859     859    251               188065   188065   30575
 
     Using Slab Decomposition
 


     bravais-lattice index     =            0
     lattice parameter (alat)  =       9.6360  a.u.
     unit-cell volume          =    3935.2145 (a.u.)^3
     number of atoms/cell      =           26
     number of atomic types    =            1
     number of electrons       =       286.00
     number of Kohn-Sham states=          172
     kinetic-energy cutoff     =      50.0000  Ry
     charge density cutoff     =     200.0000  Ry
     scf convergence threshold =      1.0E-06
     mixing beta               =       0.7000
     number of iterations used =            8  plain     mixing
     Exchange-correlation= SLA  PW   PBX  PBC
                           (   1   4   3   4   0   0   0)

     celldm(1)=   9.635999  celldm(2)=   0.000000  celldm(3)=   0.000000
     celldm(4)=   0.000000  celldm(5)=   0.000000  celldm(6)=   0.000000

     crystal axes: (cart. coord. in units of alat)
               a(1) = (   1.000000   0.000000   0.000000 )  
               a(2) = (   0.000000   0.577350   0.000000 )  
               a(3) = (  -0.000005   0.000000   7.617966 )  

     reciprocal axes: (cart. coord. in units 2 pi/alat)
               b(1) = (  1.000000  0.000000  0.000001 )  
               b(2) = (  0.000000  1.732052  0.000000 )  
               b(3) = (  0.000000  0.000000  0.131269 )  


     PseudoPot. # 1 for Au read from file:
     ./Au.pbe-n-kjpaw_psl.1.0.0.UPF
     MD5 check sum: 4db85c736373c707a97ce4c36c2a9d23
     Pseudo is Projector augmented-wave + core cor, Zval = 11.0
     Generated using &quot;atomic&quot; code by A. Dal Corso  v.6.3
     Shape of augmentation charge: PSQ
     Using radial grid of 1279 points,  6 beta functions with: 
                l(1) =   0
                l(2) =   0
                l(3) =   1
                l(4) =   1
                l(5) =   2
                l(6) =   2
     Q(r) pseudized with 0 coefficients 


     atomic species   valence    mass     pseudopotential
        Au            11.00   196.96657     Au( 1.00)

     No symmetry found



   Cartesian axes

     site n.     atom                  positions (alat units)
         1           Au  tau(   1) = (   0.0000000   0.0000000   0.0000000  )
         2           Au  tau(   2) = (   0.9999954   0.2020728   5.6568550  )
         3           Au  tau(   3) = (   0.9999966   0.2020728   4.2426411  )
         4           Au  tau(   4) = (   0.9999976   0.0000000   2.8284275  )
         5           Au  tau(   5) = (   0.9999988   0.0000000   1.4142138  )
         6           Au  tau(   6) = (   0.3333329   0.0000000   0.4714045  )
         7           Au  tau(   7) = (   0.3333296   0.2020728   4.7140455  )
         8           Au  tau(   8) = (   0.3333308   0.2020728   3.2998319  )
         9           Au  tau(   9) = (   0.3333318   0.0000000   1.8856185  )
        10           Au  tau(  10) = (   0.6666659   0.0000000   0.9428093  )
        11           Au  tau(  11) = (   0.6666625   0.2020728   5.1854506  )
        12           Au  tau(  12) = (   0.6666637   0.2020728   3.7712367  )
        13           Au  tau(  13) = (   0.6666649   0.0000000   2.3570234  )
        14           Au  tau(  14) = (   0.8333330   0.2886749   0.4714045  )
        15           Au  tau(  15) = (   0.8333294   0.4907478   4.7140455  )
        16           Au  tau(  16) = (   0.8333306   0.4907478   3.2998319  )
        17           Au  tau(  17) = (   0.8333318   0.2886749   1.8856185  )
        18           Au  tau(  18) = (   0.1666658   0.2886749   0.9428093  )
        19           Au  tau(  19) = (   0.1666624   0.4907478   5.1854506  )
        20           Au  tau(  20) = (   0.1666636   0.4907478   3.7712367  )
        21           Au  tau(  21) = (   0.1666648   0.2886749   2.3570234  )
        22           Au  tau(  22) = (   0.5000001   0.2886749   0.0000000  )
        23           Au  tau(  23) = (   0.4999955   0.4907478   5.6568550  )
        24           Au  tau(  24) = (   0.4999965   0.4907478   4.2426411  )
        25           Au  tau(  25) = (   0.4999977   0.2886749   2.8284275  )
        26           Au  tau(  26) = (   0.4999989   0.2886749   1.4142138  )

     number of k points=    50  Gaussian smearing, width (Ry)=  0.0200
                       cart. coord. in units 2pi/alat
        k(    1) = (   0.0000000   0.0000000   0.0000000), wk =   0.0208333
        k(    2) = (   0.0000000   0.1443376   0.0000000), wk =   0.0416667
        k(    3) = (   0.0000000   0.2886753   0.0000000), wk =   0.0416667
        k(    4) = (   0.0000000   0.4330129   0.0000000), wk =   0.0416667
        k(    5) = (   0.0000000   0.5773506   0.0000000), wk =   0.0416667
        k(    6) = (   0.0000000   0.7216882   0.0000000), wk =   0.0416667
        k(    7) = (   0.0000000  -0.8660259   0.0000000), wk =   0.0208333
        k(    8) = (   0.1250000   0.0000000   0.0000001), wk =   0.0416667
        k(    9) = (   0.1250000   0.1443376   0.0000001), wk =   0.0416667
        k(   10) = (   0.1250000   0.2886753   0.0000001), wk =   0.0416667
        k(   11) = (   0.1250000   0.4330129   0.0000001), wk =   0.0416667
        k(   12) = (   0.1250000   0.5773506   0.0000001), wk =   0.0416667
        k(   13) = (   0.1250000   0.7216882   0.0000001), wk =   0.0416667
        k(   14) = (   0.1250000  -0.8660259   0.0000001), wk =   0.0416667
        k(   15) = (   0.2500000   0.0000000   0.0000002), wk =   0.0416667
        k(   16) = (   0.2500000   0.1443376   0.0000002), wk =   0.0416667
        k(   17) = (   0.2500000   0.2886753   0.0000002), wk =   0.0416667
        k(   18) = (   0.2500000   0.4330129   0.0000002), wk =   0.0416667
        k(   19) = (   0.2500000   0.5773506   0.0000002), wk =   0.0416667
        k(   20) = (   0.2500000   0.7216882   0.0000002), wk =   0.0416667
        k(   21) = (   0.2500000  -0.8660259   0.0000002), wk =   0.0416667
        k(   22) = (   0.3750000   0.0000000   0.0000002), wk =   0.0416667
        k(   23) = (   0.3750000   0.1443376   0.0000002), wk =   0.0416667
        k(   24) = (   0.3750000   0.2886753   0.0000002), wk =   0.0416667
        k(   25) = (   0.3750000   0.4330129   0.0000002), wk =   0.0416667
        k(   26) = (   0.3750000   0.5773506   0.0000002), wk =   0.0416667
        k(   27) = (   0.3750000   0.7216882   0.0000002), wk =   0.0416667
        k(   28) = (   0.3750000  -0.8660259   0.0000002), wk =   0.0416667
        k(   29) = (  -0.5000000   0.0000000  -0.0000003), wk =   0.0208333
        k(   30) = (  -0.5000000   0.1443376  -0.0000003), wk =   0.0416667
        k(   31) = (  -0.5000000   0.2886753  -0.0000003), wk =   0.0416667
        k(   32) = (  -0.5000000   0.4330129  -0.0000003), wk =   0.0416667
        k(   33) = (  -0.5000000   0.5773506  -0.0000003), wk =   0.0416667
        k(   34) = (  -0.5000000   0.7216882  -0.0000003), wk =   0.0416667
        k(   35) = (  -0.5000000  -0.8660259  -0.0000003), wk =   0.0208333
        k(   36) = (  -0.1250000   0.1443376  -0.0000001), wk =   0.0416667
        k(   37) = (  -0.1250000   0.2886753  -0.0000001), wk =   0.0416667
        k(   38) = (  -0.1250000   0.4330129  -0.0000001), wk =   0.0416667
        k(   39) = (  -0.1250000   0.5773506  -0.0000001), wk =   0.0416667
        k(   40) = (  -0.1250000   0.7216882  -0.0000001), wk =   0.0416667
        k(   41) = (  -0.2500000   0.1443376  -0.0000002), wk =   0.0416667
        k(   42) = (  -0.2500000   0.2886753  -0.0000002), wk =   0.0416667
        k(   43) = (  -0.2500000   0.4330129  -0.0000002), wk =   0.0416667
        k(   44) = (  -0.2500000   0.5773506  -0.0000002), wk =   0.0416667
        k(   45) = (  -0.2500000   0.7216882  -0.0000002), wk =   0.0416667
        k(   46) = (  -0.3750000   0.1443376  -0.0000002), wk =   0.0416667
        k(   47) = (  -0.3750000   0.2886753  -0.0000002), wk =   0.0416667
        k(   48) = (  -0.3750000   0.4330129  -0.0000002), wk =   0.0416667
        k(   49) = (  -0.3750000   0.5773506  -0.0000002), wk =   0.0416667
        k(   50) = (  -0.3750000   0.7216882  -0.0000002), wk =   0.0416667

     Dense  grid:   188065 G-vectors     FFT dimensions: (  45,  25, 360)

     Estimated max dynamical RAM per process >     418.32 MB

     Estimated total dynamical RAM >       4.09 GB

     Initial potential from superposition of free atoms

     starting charge     285.9971, renormalised to     286.0000

     negative rho (up, down):  2.500E-03 0.000E+00
     Starting wfcs are  234 randomized atomic wfcs
     Checking if some PAW data can be deallocated... 

     total cpu time spent up to now is       28.7 secs

     Self-consistent Calculation

     iteration #  1     ecut=    50.00 Ry     beta= 0.70
     Davidson diagonalization with overlap
     ethr =  1.00E-02,  avg # of iterations =  4.9

     Threshold (ethr) on eigenvalues was too large:
     Diagonalizing with lowered threshold

     Davidson diagonalization with overlap
     ethr =  4.02E-04,  avg # of iterations =  4.4

     negative rho (up, down):  1.733E-03 0.000E+00

     total cpu time spent up to now is      179.4 secs

     total energy              =  -20152.80398985 Ry
     estimated scf accuracy    <       1.46274754 Ry

     iteration #  2     ecut=    50.00 Ry     beta= 0.70
     Davidson diagonalization with overlap
     c_bands:  5 eigenvalues not converged
     ethr =  5.11E-04,  avg # of iterations = 16.1

     negative rho (up, down):  1.734E-03 0.000E+00

     total cpu time spent up to now is      329.8 secs

     total energy              =  -20133.52476323 Ry
     estimated scf accuracy    <    2639.10404571 Ry

     iteration #  3     ecut=    50.00 Ry     beta= 0.70
     Davidson diagonalization with overlap
     ethr =  5.11E-04,  avg # of iterations = 11.1

     negative rho (up, down):  1.908E-03 0.000E+00

     total cpu time spent up to now is      450.1 secs

     total energy              =  -20152.25649746 Ry
     estimated scf accuracy    <       6.02423439 Ry

     iteration #  4     ecut=    50.00 Ry     beta= 0.70
     Davidson diagonalization with overlap
     ethr =  5.11E-04,  avg # of iterations = 10.2

     negative rho (up, down):  1.968E-03 0.000E+00

     total cpu time spent up to now is      549.7 secs

     total energy              =  -20148.61256192 Ry
     estimated scf accuracy    <     254.82791039 Ry

     iteration #  5     ecut=    50.00 Ry     beta= 0.70
     Davidson diagonalization with overlap
     ethr =  5.11E-04,  avg # of iterations = 13.0

     negative rho (up, down):  1.679E-03 0.000E+00

     total cpu time spent up to now is      676.9 secs

     total energy              =  -20135.19794138 Ry
     estimated scf accuracy    <    3195.29120187 Ry

     iteration #  6     ecut=    50.00 Ry     beta= 0.70
     Davidson diagonalization with overlap
     ethr =  5.11E-04,  avg # of iterations = 11.2

     negative rho (up, down):  1.641E-03 0.000E+00

     total cpu time spent up to now is      790.3 secs

     total energy              =  -20153.32960823 Ry
     estimated scf accuracy    <       2.11507570 Ry

     iteration #  7     ecut=    50.00 Ry     beta= 0.70
     Davidson diagonalization with overlap
     ethr =  5.11E-04,  avg # of iterations =  2.8

     negative rho (up, down):  1.688E-03 0.000E+00

     total cpu time spent up to now is      845.1 secs

     total energy              =  -20153.42715514 Ry
     estimated scf accuracy    <       1.67751224 Ry

     iteration #  8     ecut=    50.00 Ry     beta= 0.70
     Davidson diagonalization with overlap
     ethr =  5.11E-04,  avg # of iterations =  1.2

     negative rho (up, down):  1.744E-03 0.000E+00

     total cpu time spent up to now is      897.4 secs

     total energy              =  -20153.46294582 Ry
     estimated scf accuracy    <       1.15954043 Ry

     iteration #  9     ecut=    50.00 Ry     beta= 0.70
     Davidson diagonalization with overlap
     ethr =  4.05E-04,  avg # of iterations =  1.2

     negative rho (up, down):  1.884E-03 0.000E+00

     total cpu time spent up to now is      949.6 secs

     total energy              =  -20153.48470531 Ry
     estimated scf accuracy    <       0.46188462 Ry

     iteration # 10     ecut=    50.00 Ry     beta= 0.70
     Davidson diagonalization with overlap
     ethr =  1.61E-04,  avg # of iterations =  2.1

     negative rho (up, down):  2.170E-03 0.000E+00

     total cpu time spent up to now is     1004.5 secs

     total energy              =  -20153.48909490 Ry
     estimated scf accuracy    <       0.19153599 Ry

     iteration # 11     ecut=    50.00 Ry     beta= 0.70
     Davidson diagonalization with overlap
     ethr =  6.70E-05,  avg # of iterations =  4.4

     negative rho (up, down):  2.306E-03 0.000E+00

     total cpu time spent up to now is     1061.8 secs

     total energy              =  -20153.49083059 Ry
     estimated scf accuracy    <       0.07779254 Ry

     iteration # 12     ecut=    50.00 Ry     beta= 0.70
     Davidson diagonalization with overlap
     c_bands:  1 eigenvalues not converged
     ethr =  2.72E-05,  avg # of iterations = 10.8

     negative rho (up, down):  2.224E-03 0.000E+00

     total cpu time spent up to now is     1135.4 secs

     total energy              =  -20153.48462387 Ry
     estimated scf accuracy    <       0.68125656 Ry

     iteration # 13     ecut=    50.00 Ry     beta= 0.70
     Davidson diagonalization with overlap
     ethr =  2.72E-05,  avg # of iterations =  5.8

     negative rho (up, down):  2.441E-03 0.000E+00

     total cpu time spent up to now is     1195.3 secs

     total energy              =  -20153.49385100 Ry
     estimated scf accuracy    <       0.06320054 Ry

     iteration # 14     ecut=    50.00 Ry     beta= 0.70
     Davidson diagonalization with overlap
     ethr =  2.21E-05,  avg # of iterations =  3.4

     negative rho (up, down):  2.317E-03 0.000E+00

     total cpu time spent up to now is     1254.3 secs

     total energy              =  -20153.49381614 Ry
     estimated scf accuracy    <       0.11364336 Ry

     iteration # 15     ecut=    50.00 Ry     beta= 0.70
     Davidson diagonalization with overlap
     c_bands:  1 eigenvalues not converged
     ethr =  2.21E-05,  avg # of iterations = 11.1

     negative rho (up, down):  2.321E-03 0.000E+00

     total cpu time spent up to now is     1326.5 secs

     total energy              =  -20153.48073840 Ry
     estimated scf accuracy    <       1.53337853 Ry

     iteration # 16     ecut=    50.00 Ry     beta= 0.70
     Davidson diagonalization with overlap
     ethr =  2.21E-05,  avg # of iterations = 10.0

     negative rho (up, down):  2.333E-03 0.000E+00

     total cpu time spent up to now is     1392.7 secs

     total energy              =  -20153.49734111 Ry
     estimated scf accuracy    <       0.01626975 Ry

     iteration # 17     ecut=    50.00 Ry     beta= 0.70
     Davidson diagonalization with overlap
     c_bands:  1 eigenvalues not converged
     ethr =  5.69E-06,  avg # of iterations =  4.5

     negative rho (up, down):  2.336E-03 0.000E+00

     total cpu time spent up to now is     1453.1 secs

     total energy              =  -20153.49800619 Ry
     estimated scf accuracy    <       0.00021248 Ry

     iteration # 18     ecut=    50.00 Ry     beta= 0.70
     Davidson diagonalization with overlap
     c_bands:  1 eigenvalues not converged
     ethr =  7.43E-08,  avg # of iterations =  7.9

     negative rho (up, down):  2.337E-03 0.000E+00

     total cpu time spent up to now is     1555.5 secs

     total energy              =  -20153.49807068 Ry
     estimated scf accuracy    <       0.00155879 Ry

     iteration # 19     ecut=    50.00 Ry     beta= 0.70
     Davidson diagonalization with overlap
     ethr =  7.43E-08,  avg # of iterations =  2.1

     negative rho (up, down):  2.340E-03 0.000E+00

     total cpu time spent up to now is     1612.1 secs

     total energy              =  -20153.49810117 Ry
     estimated scf accuracy    <       0.00066829 Ry

     iteration # 20     ecut=    50.00 Ry     beta= 0.70
     Davidson diagonalization with overlap
     ethr =  7.43E-08,  avg # of iterations =  2.0

     negative rho (up, down):  2.347E-03 0.000E+00

     total cpu time spent up to now is     1668.0 secs

     total energy              =  -20153.49808314 Ry
     estimated scf accuracy    <       0.00019352 Ry

     iteration # 21     ecut=    50.00 Ry     beta= 0.70
     Davidson diagonalization with overlap
     ethr =  6.77E-08,  avg # of iterations =  2.0

     negative rho (up, down):  2.348E-03 0.000E+00

     total cpu time spent up to now is     1728.6 secs

     total energy              =  -20153.49802446 Ry
     estimated scf accuracy    <       0.00149221 Ry

     iteration # 22     ecut=    50.00 Ry     beta= 0.70
     Davidson diagonalization with overlap
     ethr =  6.77E-08,  avg # of iterations =  2.0

     negative rho (up, down):  2.349E-03 0.000E+00

     total cpu time spent up to now is     1787.6 secs

     total energy              =  -20153.49806820 Ry
     estimated scf accuracy    <       0.00116669 Ry

     iteration # 23     ecut=    50.00 Ry     beta= 0.70
     Davidson diagonalization with overlap
     ethr =  6.77E-08,  avg # of iterations =  1.6

     negative rho (up, down):  2.349E-03 0.000E+00

     total cpu time spent up to now is     1837.1 secs

     total energy              =  -20153.49801297 Ry
     estimated scf accuracy    <       0.00744278 Ry

     iteration # 24     ecut=    50.00 Ry     beta= 0.70
     Davidson diagonalization with overlap
     ethr =  6.77E-08,  avg # of iterations =  2.0

     negative rho (up, down):  2.350E-03 0.000E+00

     total cpu time spent up to now is     1894.1 secs

     total energy              =  -20153.49811513 Ry
     estimated scf accuracy    <       0.00026839 Ry

     iteration # 25     ecut=    50.00 Ry     beta= 0.70
     Davidson diagonalization with overlap
     ethr =  6.77E-08,  avg # of iterations =  1.1

     negative rho (up, down):  2.350E-03 0.000E+00

     total cpu time spent up to now is     1944.0 secs

     total energy              =  -20153.49811432 Ry
     estimated scf accuracy    <       0.00114398 Ry

     iteration # 26     ecut=    50.00 Ry     beta= 0.70
     Davidson diagonalization with overlap
     ethr =  6.77E-08,  avg # of iterations =  1.0

     negative rho (up, down):  2.350E-03 0.000E+00

     total cpu time spent up to now is     1994.4 secs

     total energy              =  -20153.49812711 Ry
     estimated scf accuracy    <       0.00024999 Ry

     iteration # 27     ecut=    50.00 Ry     beta= 0.70
     Davidson diagonalization with overlap
     ethr =  6.77E-08,  avg # of iterations =  1.0

     negative rho (up, down):  2.351E-03 0.000E+00

     total cpu time spent up to now is     2038.7 secs

     total energy              =  -20153.49813226 Ry
     estimated scf accuracy    <       0.00000288 Ry

     iteration # 28     ecut=    50.00 Ry     beta= 0.70
     Davidson diagonalization with overlap
     ethr =  1.01E-09,  avg # of iterations =  2.3

     negative rho (up, down):  2.351E-03 0.000E+00

     total cpu time spent up to now is     2102.1 secs

     total energy              =  -20153.49813166 Ry
     estimated scf accuracy    <       0.00002043 Ry

     iteration # 29     ecut=    50.00 Ry     beta= 0.70
     Davidson diagonalization with overlap
     ethr =  1.01E-09,  avg # of iterations =  1.7

     negative rho (up, down):  2.351E-03 0.000E+00

     total cpu time spent up to now is     2151.0 secs

     total energy              =  -20153.49813244 Ry
     estimated scf accuracy    <       0.00001110 Ry

     iteration # 30     ecut=    50.00 Ry     beta= 0.70
     Davidson diagonalization with overlap
     ethr =  1.01E-09,  avg # of iterations =  1.7

     negative rho (up, down):  2.351E-03 0.000E+00

     total cpu time spent up to now is     2205.8 secs

     total energy              =  -20153.49813290 Ry
     estimated scf accuracy    <       0.00000220 Ry

     iteration # 31     ecut=    50.00 Ry     beta= 0.70
     Davidson diagonalization with overlap
     ethr =  7.68E-10,  avg # of iterations =  1.0

     negative rho (up, down):  2.351E-03 0.000E+00

     total cpu time spent up to now is     2255.9 secs

     total energy              =  -20153.49813301 Ry
     estimated scf accuracy    <       0.00000150 Ry

     iteration # 32     ecut=    50.00 Ry     beta= 0.70
     Davidson diagonalization with overlap
     ethr =  5.26E-10,  avg # of iterations =  1.0

     negative rho (up, down):  2.351E-03 0.000E+00

     total cpu time spent up to now is     2306.8 secs

     End of self-consistent calculation

          k = 0.0000 0.0000 0.0000 ( 23605 PWs)   bands (ev):

     1.5113   1.6491   1.8881   2.1897   2.5567   2.9469   3.3236   3.6247
     3.8204   3.8898   3.9333   3.9780   4.0633   4.0672   4.0699   4.2065
     4.2201   4.2820   4.4020   4.4269   4.4858   4.5485   4.5594   4.5996
     4.6396   4.6808   4.8317   4.9105   4.9887   5.0131   5.1814   5.3850
     5.4502   5.5159   5.7482   5.9721   6.1392   6.1523   6.1775   6.2268
     6.2485   6.2660   6.3034   6.3135   6.3208   6.3294   6.3351   6.3517
     6.3521   6.3769   6.3790   6.3820   6.4032   6.4040   6.4272   6.4280
     6.4306   6.4553   6.4691   6.4771   6.5107   6.5178   6.5350   6.5421
     6.5577   6.5595   6.5753   6.5912   6.5976   6.6540   6.6662   6.6886
     6.7575   6.7608   6.8663   6.8666   6.8692   6.8694   6.8805   7.0348
     7.0623   7.1414   7.1802   7.2765   7.4729   7.5294   7.5554   7.5846
     7.6469   7.6833   7.6840   7.6955   7.6958   7.7169   7.7229   7.7614
     7.7785   7.8290   7.8747   7.8777   7.8893   7.9383   8.0104   8.0262
     8.0337   8.1140   8.1757   8.1832   8.3357   8.3459   8.3782   8.3881
     8.5087   8.5238   8.5297   8.5571   8.5674   8.6491   8.6953   8.6988
     8.7030   8.7322   8.7559   8.7574   8.7809   8.7971   8.7977   8.8043
     8.8221   8.8335   8.8405   8.8607   8.8818   8.9055   8.9373   8.9684
     9.0159   9.0453   9.1221   9.2161   9.2186   9.4189  10.2093  10.5102
    10.5680  10.6287  10.9357  11.2548  11.4718  11.6284  11.7296  11.7911
    11.8558  11.8795  11.9381  12.1171  12.1196  13.5212  13.7319  13.9774
    14.0079  14.2890  14.5436  14.8670  14.8880  15.0696  15.3463  15.9000
    16.2585  16.4058  16.4609  16.4710

          k = 0.0000 0.1443 0.0000 ( 23551 PWs)   bands (ev):

     1.6628   1.8006   2.0369   2.3372   2.7022   3.0918   3.4686   3.7683
     3.9580   4.0206   4.0493   4.1014   4.1859   4.2029   4.2056   4.2963
     4.3365   4.3872   4.5096   4.5536   4.5931   4.6415   4.6525   4.7349
     4.7651   4.7935   4.9045   4.9941   5.1164   5.1346   5.2375   5.4205
     5.4809   5.5092   5.7552   5.9368   6.0545   6.0873   6.1133   6.1274
     6.1467   6.1809   6.2429   6.2524   6.2638   6.2791   6.3183   6.3184
     6.3539   6.3624   6.3949   6.4003   6.4227   6.4405   6.4454   6.4472
     6.4579   6.4699   6.4857   6.5046   6.5199   6.5381   6.5562   6.5761
     6.5908   6.6110   6.6175   6.6322   6.6474   6.6548   6.6760   6.7047
     6.7186   6.7458   6.8188   6.8404   6.8418   6.8822   6.9375   6.9485
     6.9524   6.9962   7.1598   7.2460   7.2734   7.3431   7.4766   7.4818
     7.5030   7.5685   7.5780   7.6100   7.6220   7.6733   7.6942   7.7208
     7.7566   7.7689   7.7825   7.8133   7.8364   7.9146   7.9418   7.9692
     8.0280   8.0480   8.0888   8.1365   8.1559   8.2403   8.2454   8.3156
     8.3267   8.4143   8.4644   8.4721   8.4770   8.5072   8.5342   8.5700
     8.6008   8.6104   8.6197   8.6978   8.7118   8.7237   8.7294   8.7420
     8.7500   8.7656   8.7670   8.8021   8.8467   8.8654   8.8941   8.8974
     8.9260   9.0380   9.0478   9.1469   9.4316  10.0016  10.8588  10.9209
    11.0752  11.1008  11.3193  11.5337  11.6839  11.8045  11.9046  11.9949
    12.1081  12.2290  12.3676  12.5018  12.5288  13.5216  13.7713  14.0398
    14.0510  14.3815  14.6460  14.9291  15.0209  15.1798  15.5025  16.0552
    16.1893  16.4963  16.5388  16.6185

          k = 0.0000 0.2887 0.0000 ( 23495 PWs)   bands (ev):

     2.1017   2.2385   2.4638   2.7576   3.1117   3.4953   3.8692   4.1643
     4.3353   4.3515   4.3788   4.4379   4.5029   4.5210   4.5764   4.5789
     4.6064   4.6388   4.7475   4.8602   4.8928   4.9220   4.9400   5.0436
     5.0753   5.1042   5.1834   5.2111   5.3800   5.4251   5.4518   5.4708
     5.5721   5.6095   5.7535   5.8158   5.8318   5.8810   5.9113   5.9577
     5.9808   5.9811   6.0404   6.0623   6.0740   6.0834   6.1230   6.1335
     6.1806   6.1999   6.2020   6.2554   6.3691   6.3758   6.3923   6.4542
     6.4887   6.4932   6.5722   6.5951   6.6046   6.6153   6.6161   6.6399
     6.6604   6.6823   6.6861   6.6970   6.7445   6.7481   6.7805   6.7914
     6.7934   6.8265   6.8516   6.8689   6.8794   6.8986   6.9360   6.9701
     6.9859   7.0066   7.0668   7.1000   7.1309   7.1657   7.2075   7.2184
     7.2239   7.2987   7.3471   7.3682   7.4399   7.4400   7.4652   7.4756
     7.5482   7.5852   7.6250   7.6744   7.7103   7.7678   7.7896   7.8073
     7.8649   7.9104   7.9261   7.9435   7.9804   7.9813   8.0614   8.0764
     8.1151   8.1805   8.2178   8.2471   8.3150   8.3194   8.3375   8.4692
     8.4790   8.5032   8.5295   8.5537   8.5747   8.5970   8.6113   8.6512
     8.6847   8.7055   8.7176   8.7183   8.7888   8.7940   8.8519   8.9309
     8.9471   9.0803   9.1462   9.5173  10.1951  10.8352  11.7559  11.9718
    11.9881  12.0101  12.0562  12.1310  12.1345  12.2278  12.3518  12.5147
    12.7008  12.9321  13.1331  13.3758  13.5674  13.6064  14.0057  14.1820
    14.3667  14.7034  14.9584  15.1466  15.4204  15.5128  15.7724  16.0515
    16.1913  16.6743  16.7809  16.8400

          k = 0.0000 0.4330 0.0000 ( 23423 PWs)   bands (ev):

     2.7770   2.9095   3.1051   3.3767   3.6926   4.0466   4.3999   4.6753
     4.6881   4.7729   4.8401   4.8525   4.8652   4.8886   4.9260   4.9649
     4.9947   5.0682   5.0701   5.1114   5.1666   5.2234   5.3380   5.3440
     5.3688   5.3979   5.4090   5.4518   5.4943   5.5553   5.5628   5.6055
     5.6425   5.6747   5.6855   5.7342   5.7477   5.7819   5.7888   5.7936
     5.8024   5.8050   5.8287   5.8447   5.8994   5.9064   5.9068   5.9334
     5.9932   6.0440   6.0670   6.0930   6.1319   6.1931   6.2491   6.2685
     6.3169   6.3297   6.4212   6.4555   6.4839   6.5346   6.5470   6.5934
     6.6007   6.6228   6.6767   6.6845   6.7023   6.7284   6.7312   6.7444
     6.7631   6.7964   6.8266   6.8687   6.9147   6.9547   7.0194   7.0252
     7.1325   7.1506   7.1764   7.1948   7.1979   7.2733   7.2876   7.3219
     7.3618   7.3859   7.3986   7.4013   7.4025   7.4260   7.4475   7.4650
     7.5015   7.5080   7.5210   7.5521   7.6142   7.6150   7.6819   7.6936
     7.7687   7.8249   7.8321   7.8368   7.9008   7.9402   7.9807   7.9828
     8.0104   8.0565   8.0789   8.1152   8.1904   8.2666   8.3215   8.4133
     8.4201   8.4447   8.4872   8.4962   8.5263   8.5665   8.6025   8.6149
     8.6568   8.6582   8.6711   8.7342   8.7767   8.7829   8.8047   8.8329
     8.9745   9.1849   9.6791  10.1736  10.9311  11.6299  12.5112  12.5477
    12.6084  12.6372  12.6487  12.8250  12.9088  13.1047  13.2033  13.3959
    13.4586  13.5468  13.8280  13.9949  14.2484  14.3427  14.5891  14.6162
    14.8449  15.2314  15.3259  15.5957  15.6126  15.7073  15.9426  16.0767
    16.1996  16.5000  16.7386  16.9129

          k = 0.0000 0.5774 0.0000 ( 23470 PWs)   bands (ev):

     3.5877   3.7106   3.8356   4.0467   4.2591   4.5145   4.7742   4.7743
     5.0109   5.0330   5.0569   5.1027   5.1090   5.1127   5.1723   5.2242
     5.2335   5.2445   5.2842   5.2979   5.3521   5.3587   5.3695   5.3848
     5.4137   5.4158   5.4345   5.4855   5.4966   5.5040   5.5415   5.5457
     5.5745   5.5764   5.6397   5.6537   5.6706   5.6793   5.6983   5.7106
     5.7722   5.7884   5.7925   5.7958   5.8052   5.8701   5.8959   5.9507
     5.9580   5.9601   6.0373   6.0635   6.1237   6.1896   6.2052   6.2583
     6.3273   6.3284   6.3773   6.3925   6.3972   6.4036   6.4199   6.4376
     6.4638   6.4807   6.5172   6.5470   6.5782   6.5817   6.5837   6.5871
     6.6640   6.6837   6.7560   6.9679   6.9958   7.0472   7.0499   7.0521
     7.0546   7.0554   7.1818   7.2118   7.2388   7.2848   7.3685   7.4500
     7.4596   7.5158   7.5214   7.5364   7.5454   7.5470   7.5527   7.5633
     7.5862   7.6116   7.6425   7.6934   7.8152   7.8195   7.8425   7.8539
     7.8626   7.9561   8.0350   8.0761   8.1880   8.2103   8.2529   8.2571
     8.3637   8.4062   8.4277   8.4402   8.4532   8.4640   8.4952   8.5000
     8.5114   8.5197   8.5411   8.5589   8.5963   8.5969   8.6228   8.6349
     8.6437   8.6780   8.6800   8.6821   8.6947   8.7045   8.8541   8.9039
     9.2502   9.7301  10.3253  10.9128  11.7066  12.4218  12.8464  13.1557
    13.2130  13.2602  13.2752  13.2943  13.3437  13.4002  13.5392  13.6185
    13.7195  13.8330  13.8716  14.1162  14.7580  14.8947  14.9375  15.0532
    15.3010  15.3215  15.4048  15.5628  15.8611  15.8766  16.1472  16.3200
    16.4063  16.5703  16.8700  16.9214

          k = 0.0000 0.7217 0.0000 ( 23446 PWs)   bands (ev):

     4.3107   4.4605   4.4824   4.5529   4.6235   4.7079   4.7237   4.8555
     4.8694   4.9578   4.9596   4.9688   5.0362   5.0629   5.1333   5.1835
     5.1894   5.2172   5.2376   5.2612   5.2742   5.2802   5.3549   5.3563
     5.4264   5.4530   5.4770   5.5043   5.5102   5.5598   5.5824   5.5962
     5.6086   5.6250   5.6403   5.6663   5.6841   5.7148   5.7243   5.7403
     5.7668   5.7720   5.7808   5.7978   5.8112   5.8743   5.8810   5.9215
     5.9894   6.0383   6.1133   6.1148   6.1493   6.1975   6.2144   6.2493
     6.2636   6.3146   6.3273   6.3441   6.3491   6.3626   6.3729   6.3943
     6.4080   6.4377   6.4998   6.5935   6.6193   6.6254   6.6535   6.7093
     6.7110   6.7493   6.8344   6.9690   6.9715   7.0091   7.0127   7.1338
     7.1710   7.1736   7.1824   7.2173   7.2313   7.2755   7.3771   7.3819
     7.3994   7.4327   7.4673   7.5109   7.5425   7.5683   7.6224   7.6400
     7.6520   7.6568   7.7222   7.7893   7.8377   7.8493   7.9049   7.9126
     7.9931   8.0638   8.1123   8.1302   8.2436   8.3152   8.3248   8.5010
     8.5044   8.5781   8.6789   8.6799   8.6978   8.6996   8.7124   8.7192
     8.7295   8.7446   8.7594   8.7631   8.8756   8.8852   8.9005   8.9079
     8.9245   9.0121   9.3100   9.3456   9.3680   9.4404   9.5584   9.8034
    10.1934  10.6995  11.3197  11.7107  11.8020  11.9428  11.9986  12.2597
    12.5782  12.7140  12.9848  13.3990  13.4001  13.7546  13.9966  14.0796
    14.1565  14.1848  14.3240  14.4110  14.6871  14.7838  14.9618  15.1623
    15.5074  15.6563  15.9235  16.1085  16.1682  16.4570  16.4987  16.6056
    16.6932  16.8198  17.0426  17.1192

          k = 0.0000-0.8660 0.0000 ( 23420 PWs)   bands (ev):

     4.5968   4.5968   4.7422   4.7423   4.8187   4.8188   4.8244   4.8245
     4.8914   4.8914   4.9205   4.9205   5.0214   5.0214   5.0515   5.0515
     5.1193   5.1193   5.1789   5.1790   5.2433   5.2434   5.2466   5.2466
     5.4630   5.4630   5.4901   5.4901   5.5160   5.5160   5.5322   5.5322
     5.6127   5.6127   5.6739   5.6739   5.7242   5.7242   5.7495   5.7495
     5.8420   5.8420   5.8854   5.8854   5.9296   5.9296   5.9917   5.9918
     6.0068   6.0069   6.0653   6.0653   6.1041   6.1041   6.1225   6.1225
     6.2318   6.2318   6.2989   6.2989   6.3415   6.3415   6.4355   6.4355
     6.5459   6.5459   6.5869   6.5870   6.6019   6.6019   6.7367   6.7367
     6.9787   6.9787   6.9805   6.9806   7.0168   7.0168   7.0294   7.0294
     7.0385   7.0385   7.2534   7.2534   7.2957   7.2957   7.3340   7.3340
     7.3726   7.3726   7.4333   7.4333   7.5353   7.5353   7.6541   7.6542
     7.6762   7.6762   7.8066   7.8066   7.8517   7.8517   7.9040   7.9040
     7.9806   7.9806   8.0521   8.0522   8.1841   8.1841   8.4245   8.4245
     8.5727   8.5727   8.7593   8.7594   8.8155   8.8155   8.8376   8.8377
     8.8692   8.8692   8.9011   8.9012   9.0134   9.0135   9.0393   9.0394
     9.1218   9.1218  10.4114  10.4114  10.4577  10.4578  10.5583  10.5583
    10.7157  10.7157  10.9452  10.9453  11.2783  11.2783  11.6994  11.6994
    12.1994  12.1994  12.7894  12.7894  13.3696  13.3696  14.0422  14.0422
    14.5828  14.5828  15.0385  15.0386  15.7558  15.7558  15.7799  15.7799
    15.8640  15.8640  15.9559  15.9559  16.1923  16.1923  16.2589  16.2589
    16.4335  16.4336  16.6025  16.6026

          k = 0.1250 0.0000 0.0000 ( 23563 PWs)   bands (ev):

     1.6257   1.7629   2.0003   2.3006   2.6664   3.0562   3.4332   3.7332
     3.9249   3.9300   3.9880   4.0597   4.0763   4.1694   4.1721   4.2163
     4.2497   4.3202   4.4148   4.4413   4.5107   4.5697   4.5981   4.6161
     4.6719   4.7239   4.8704   4.9493   5.0143   5.0430   5.2174   5.4054
     5.4736   5.5069   5.7610   5.9819   6.0759   6.1415   6.1555   6.1704
     6.2059   6.2146   6.2613   6.2921   6.3025   6.3317   6.3364   6.3389
     6.3618   6.3710   6.3977   6.4043   6.4146   6.4213   6.4356   6.4474
     6.4505   6.4670   6.4785   6.5007   6.5316   6.5436   6.5573   6.5606
     6.5854   6.5948   6.6140   6.6226   6.6320   6.6552   6.6620   6.6995
     6.7336   6.7730   6.8274   6.8481   6.8676   6.9293   6.9309   6.9322
     7.0211   7.0471   7.1120   7.2797   7.3778   7.3824   7.4748   7.5282
     7.5385   7.5899   7.5926   7.5950   7.6469   7.6756   7.7415   7.7491
     7.8027   7.8173   7.8200   7.8632   7.8714   7.9089   7.9439   7.9564
     8.0406   8.0912   8.1083   8.1809   8.2312   8.2430   8.3183   8.3512
     8.3965   8.4683   8.4775   8.4971   8.5429   8.5853   8.6002   8.6550
     8.6555   8.6828   8.6884   8.6960   8.7187   8.7321   8.7491   8.7612
     8.7779   8.7824   8.8057   8.8300   8.8399   8.8471   8.8757   8.9378
     8.9753   8.9899   9.1186   9.1211   9.3015   9.3476   9.6693   9.9293
     9.9455  10.1325  10.2070  10.3301  10.6908  10.8282  10.9977  11.2735
    11.9604  12.6652  13.2816  13.4585  13.5318  13.6600  13.9199  14.0307
    14.2056  14.5196  14.8236  14.9131  15.1520  15.2137  15.5983  15.9206
    16.3828  16.4718  16.5378  16.9307

          k = 0.1250 0.1443 0.0000 ( 23537 PWs)   bands (ev):

     1.7764   1.9123   2.1474   2.4453   2.8087   3.1974   3.5745   3.8729
     4.0500   4.0586   4.1136   4.1847   4.2048   4.3007   4.3035   4.3328
     4.3438   4.4262   4.5344   4.5579   4.6265   4.6700   4.6984   4.7387
     4.7858   4.8290   4.9457   5.0311   5.1391   5.1627   5.2763   5.4511
     5.4724   5.4969   5.7455   5.9278   6.0030   6.0280   6.0858   6.0937
     6.1205   6.1741   6.2067   6.2139   6.2391   6.2586   6.2746   6.3054
     6.3096   6.3393   6.3766   6.4135   6.4400   6.4565   6.4611   6.4847
     6.4921   6.4962   6.5062   6.5150   6.5293   6.5691   6.5848   6.6034
     6.6090   6.6275   6.6440   6.6575   6.6676   6.6791   6.6940   6.7159
     6.7385   6.7535   6.7761   6.8163   6.8268   6.8818   6.9073   6.9335
     7.0103   7.0137   7.1186   7.1618   7.1983   7.2670   7.4073   7.4423
     7.4453   7.5036   7.5310   7.5449   7.5621   7.5676   7.6103   7.6299
     7.7051   7.7205   7.7454   7.7976   7.8426   7.8562   7.8651   7.9317
     7.9462   7.9784   8.0316   8.0726   8.1471   8.1573   8.2090   8.2166
     8.3157   8.3255   8.3443   8.3504   8.4136   8.4724   8.4822   8.5175
     8.5336   8.5483   8.5586   8.5794   8.6280   8.6378   8.6572   8.7056
     8.7260   8.7407   8.7544   8.7692   8.7828   8.8021   8.8475   8.8901
     9.0081   9.0332   9.1173   9.1393   9.6743   9.9845  10.1405  10.3086
    10.3223  10.4410  10.5662  10.7860  11.1648  11.1697  11.4072  11.6954
    12.3294  12.9956  13.4793  13.5548  13.6448  13.7303  14.0135  14.0635
    14.3132  14.6277  14.9260  14.9795  15.2608  15.3344  15.7271  15.9736
    16.4309  16.5588  16.6408  16.9829

          k = 0.1250 0.2887 0.0000 ( 23467 PWs)   bands (ev):

     2.2091   2.3416   2.5655   2.8537   3.2040   3.5830   3.9537   4.2433
     4.3622   4.4076   4.4468   4.5151   4.5412   4.5515   4.6333   4.6476
     4.6530   4.6556   4.7706   4.8591   4.9229   4.9445   4.9847   5.0577
     5.0771   5.1406   5.1850   5.2455   5.3680   5.3932   5.4081   5.4844
     5.5940   5.6270   5.7389   5.7530   5.8124   5.8633   5.8655   5.9753
     5.9833   6.0130   6.0263   6.0362   6.0575   6.0783   6.0849   6.1253
     6.1529   6.1920   6.2149   6.2173   6.3131   6.3146   6.4394   6.4512
     6.4765   6.5241   6.5782   6.5932   6.6087   6.6204   6.6290   6.6422
     6.6450   6.6700   6.7194   6.7335   6.7757   6.7758   6.7886   6.8002
     6.8315   6.8570   6.8663   6.8874   6.8889   6.9012   6.9240   6.9782
     6.9967   7.0180   7.0254   7.0369   7.0819   7.0867   7.1288   7.1907
     7.2017   7.2230   7.2867   7.3040   7.3618   7.3863   7.4178   7.4783
     7.5113   7.5535   7.5842   7.6154   7.6818   7.6974   7.7347   7.7760
     7.7912   7.8034   7.8513   7.8625   7.9299   7.9650   7.9835   8.0512
     8.0977   8.1243   8.1446   8.2070   8.2212   8.2323   8.2432   8.2884
     8.3366   8.4091   8.4290   8.5011   8.5539   8.6290   8.6313   8.6993
     8.7437   8.7473   8.7785   8.7854   8.8160   8.8242   8.8794   8.9865
     9.0172   9.1622   9.2068   9.6575  10.3310  10.7566  10.8161  10.9394
    11.0193  11.0936  11.3275  11.6515  11.9125  12.0752  12.3597  12.5909
    13.1891  13.5929  13.7105  13.8301  13.9290  14.1695  14.2193  14.4385
    14.6749  14.9664  15.2082  15.2575  15.5940  15.6400  16.0005  16.1090
    16.4631  16.8308  16.9634  16.9852

          k = 0.1250 0.4330 0.0000 ( 23435 PWs)   bands (ev):

     2.8668   2.9888   3.1826   3.4403   3.7449   4.0802   4.4109   4.6626
     4.6974   4.7935   4.7988   4.8557   4.8585   4.8851   4.9321   4.9636
     4.9851   5.0843   5.0873   5.0913   5.1237   5.1744   5.2438   5.2899
     5.3465   5.3544   5.4056   5.4321   5.4568   5.5258   5.5608   5.6088
     5.6572   5.6666   5.6925   5.7251   5.7509   5.7722   5.7923   5.8125
     5.8366   5.8407   5.8606   5.8812   5.9043   5.9382   5.9440   5.9580
     6.0127   6.0414   6.0526   6.1344   6.1588   6.2319   6.2813   6.3186
     6.3743   6.4122   6.4491   6.4729   6.4975   6.5189   6.5448   6.5708
     6.5819   6.6358   6.6402   6.6446   6.6688   6.7034   6.7252   6.7385
     6.7399   6.8490   6.8741   6.8983   6.9503   6.9586   6.9797   7.0482
     7.1253   7.1376   7.1796   7.2030   7.2039   7.2218   7.2637   7.2972
     7.3165   7.3260   7.3359   7.3673   7.4169   7.4404   7.4493   7.4828
     7.4965   7.5200   7.5357   7.5709   7.5805   7.6292   7.6293   7.6818
     7.6890   7.7389   7.8032   7.8253   7.8489   7.9112   7.9146   7.9312
     7.9625   8.0398   8.0775   8.1229   8.1432   8.1996   8.2165   8.2812
     8.3697   8.4222   8.4989   8.5122   8.5845   8.5966   8.6789   8.7129
     8.7212   8.7400   8.7454   8.7719   8.8122   8.8362   8.8991   8.9390
     9.1011   9.2045   9.7294  10.2698  11.0169  11.3877  11.4571  11.6378
    11.7444  11.8620  12.1725  12.5597  12.6901  13.0052  13.4678  13.5590
    13.7626  13.9112  14.2025  14.2936  14.5097  14.6491  14.6757  14.8307
    15.1527  15.3454  15.5914  15.6373  15.6683  15.8871  16.1611  16.1775
    16.3788  16.5902  16.8225  17.2945

          k = 0.1250 0.5774 0.0000 ( 23447 PWs)   bands (ev):

     3.6306   3.7253   3.8598   4.0466   4.2435   4.4637   4.6816   4.7641
     4.8579   4.8659   4.9458   4.9757   4.9764   5.0080   5.0488   5.0523
     5.1097   5.1282   5.1735   5.1948   5.2288   5.2312   5.2683   5.3257
     5.3875   5.3897   5.4144   5.4490   5.4578   5.4854   5.5310   5.5379
     5.5895   5.6031   5.6497   5.6577   5.7014   5.7315   5.7432   5.7523
     5.7648   5.7826   5.7978   5.8643   5.8914   5.9057   5.9273   5.9805
     6.0194   6.0455   6.0653   6.0991   6.1405   6.1869   6.2205   6.2316
     6.3352   6.3759   6.3852   6.4589   6.5010   6.5420   6.5484   6.5613
     6.5871   6.5983   6.6110   6.6228   6.6429   6.6681   6.7216   6.7336
     6.7493   6.7734   6.8663   6.9065   6.9496   6.9586   6.9630   7.0944
     7.1662   7.1893   7.2521   7.2579   7.3043   7.3171   7.3580   7.4187
     7.4437   7.4643   7.4840   7.5410   7.5417   7.5631   7.6004   7.6250
     7.6708   7.6971   7.7203   7.7408   7.8126   7.8230   7.8960   7.9069
     7.9161   7.9916   8.0610   8.1287   8.1859   8.2020   8.2163   8.2242
     8.3364   8.3597   8.3930   8.4052   8.4271   8.4631   8.4865   8.4979
     8.5104   8.5440   8.5690   8.5925   8.6063   8.6240   8.6337   8.6683
     8.7038   8.7240   8.7352   8.7387   8.7902   8.8246   8.8340   9.0170
     9.2397   9.7431  10.3599  10.9804  11.7636  12.0872  12.1881  12.4045
    12.4989  12.6807  12.9886  13.2635  13.3839  13.3978  13.4481  13.6648
    13.9253  13.9676  14.1791  14.2608  14.4525  14.7094  14.8512  15.0303
    15.2697  15.4277  15.4595  15.5714  15.9022  16.0394  16.2594  16.3363
    16.3872  16.7059  16.9018  16.9510

          k = 0.1250 0.7217 0.0000 ( 23455 PWs)   bands (ev):

     4.2429   4.2966   4.4009   4.5207   4.6094   4.6356   4.6648   4.7163
     4.7582   4.8053   4.8169   4.8585   4.9013   4.9303   4.9869   5.0256
     5.0671   5.0884   5.1015   5.1077   5.1902   5.2086   5.2456   5.2477
     5.2633   5.2796   5.3027   5.3364   5.3921   5.4272   5.4446   5.4592
     5.4882   5.5621   5.5747   5.6210   5.6642   5.6950   5.7113   5.7221
     5.7868   5.8112   5.8266   5.8765   5.8988   5.9391   5.9508   5.9715
     5.9916   6.0524   6.1308   6.1353   6.2102   6.2129   6.2689   6.3050
     6.3319   6.3673   6.3826   6.4298   6.4505   6.5220   6.5712   6.6090
     6.6194   6.6281   6.7038   6.7621   6.7840   6.7919   6.8229   6.8487
     6.8984   6.9306   6.9472   6.9964   7.0187   7.0448   7.0626   7.1083
     7.1603   7.1933   7.2442   7.2471   7.3854   7.3866   7.4745   7.4834
     7.4947   7.5487   7.5672   7.6424   7.6678   7.6712   7.7250   7.7513
     7.7910   7.8377   7.8487   7.8699   7.9457   7.9668   8.0311   8.0512
     8.0778   8.1800   8.2218   8.2374   8.3334   8.3396   8.3841   8.5142
     8.5293   8.5807   8.6301   8.6462   8.6519   8.6631   8.6985   8.7283
     8.7505   8.7741   8.7791   8.8005   8.8784   8.8850   8.9022   8.9056
     8.9206   9.0540   9.2805   9.2987   9.3468   9.4133   9.5256   9.7641
    10.1647  10.6929  11.3332  11.7892  11.8757  11.9875  12.0647  12.3089
    12.6190  12.7533  12.9993  13.0985  13.2213  13.3834  13.4608  13.5261
    13.7132  13.9259  14.1247  14.2140  14.4722  14.5882  14.8530  15.0578
    15.3121  15.5720  15.8072  15.9250  15.9803  16.3015  16.3222  16.5020
    16.5425  16.6387  16.8141  16.9760

          k = 0.1250-0.8660 0.0000 ( 23492 PWs)   bands (ev):

     4.4504   4.4881   4.5528   4.5864   4.6324   4.6631   4.6870   4.7040
     4.7598   4.7809   4.8022   4.8305   4.9384   4.9407   4.9872   4.9879
     5.0654   5.0820   5.1019   5.1028   5.1379   5.1405   5.1538   5.1626
     5.2183   5.2445   5.2864   5.2901   5.3241   5.3283   5.3543   5.3676
     5.4710   5.4813   5.5697   5.5802   5.6284   5.6413   5.7238   5.7286
     5.8051   5.8208   5.8900   5.9208   5.9262   5.9313   5.9919   5.9961
     6.0531   6.0536   6.0933   6.0991   6.1441   6.1752   6.2382   6.2670
     6.4003   6.4029   6.4378   6.4610   6.5718   6.5743   6.6019   6.6171
     6.7049   6.7123   6.7612   6.7662   6.8464   6.8468   6.8549   6.8665
     6.8897   6.9045   7.0048   7.0120   7.0584   7.0666   7.1334   7.1663
     7.1873   7.2314   7.3345   7.3471   7.4192   7.4405   7.4828   7.4899
     7.5225   7.5504   7.6005   7.6484   7.6996   7.7319   7.8036   7.8119
     7.8437   7.8568   7.9340   7.9571   7.9970   8.0050   8.0358   8.0564
     8.0828   8.1128   8.1439   8.1906   8.2423   8.2481   8.4322   8.4364
     8.5625   8.5824   8.7392   8.7504   8.7810   8.7830   8.8022   8.8183
     8.8622   8.8755   8.9105   8.9157   9.0178   9.0191   9.0363   9.0415
     9.1089   9.1304  10.4044  10.4180  10.4564  10.4637  10.5595  10.5610
    10.7044  10.7199  10.9278  10.9373  11.2521  11.2654  11.6746  11.6845
    12.1865  12.1875  12.7907  12.7931  13.3653  13.4079  14.0111  14.0302
    14.4520  14.4650  14.6679  14.6768  14.7702  14.8334  14.9639  15.0124
    15.2829  15.3123  15.4082  15.4490  15.7986  15.8254  15.9329  15.9830
    16.2487  16.2583  16.5982  16.6246

          k = 0.2500 0.0000 0.0000 ( 23536 PWs)   bands (ev):

     1.9598   2.0946   2.3258   2.6201   2.9796   3.3653   3.7411   3.8825
     4.0079   4.0365   4.1625   4.2148   4.2621   4.3450   4.3512   4.3585
     4.4063   4.4550   4.4577   4.4738   4.5091   4.6016   4.7017   4.7305
     4.7886   4.8370   4.9693   5.0519   5.1082   5.1377   5.3202   5.4616
     5.4755   5.5577   5.8034   5.8596   5.9282   6.0139   6.0155   6.0544
     6.1059   6.1365   6.1563   6.1702   6.2010   6.2376   6.2631   6.2919
     6.2996   6.3453   6.3810   6.4069   6.4492   6.4591   6.5026   6.5037
     6.5256   6.5257   6.5657   6.5792   6.5969   6.6131   6.6188   6.6302
     6.6467   6.6675   6.6908   6.7002   6.7094   6.7316   6.7533   6.7549
     6.7899   6.8036   6.8212   6.8351   6.8546   6.8641   6.9141   6.9186
     6.9744   7.0321   7.0995   7.1046   7.1111   7.2557   7.2658   7.3405
     7.3454   7.3875   7.4019   7.4548   7.4842   7.5119   7.5581   7.5898
     7.6438   7.6448   7.7021   7.7365   7.7408   7.8183   7.8413   7.8588
     7.9329   7.9921   7.9997   8.0401   8.0497   8.1316   8.2080   8.2212
     8.2222   8.3058   8.3158   8.3393   8.3738   8.3912   8.4079   8.4180
     8.4559   8.4719   8.5017   8.5290   8.5365   8.5511   8.5704   8.6018
     8.6063   8.6196   8.6365   8.6542   8.6824   8.7146   8.7772   8.7901
     8.7972   8.8204   8.8376   8.8735   8.9150   8.9197   8.9366   8.9521
     9.1119   9.3746   9.7006   9.9739  10.3992  10.6572  11.1452  11.5156
    11.8391  11.8983  12.6729  13.3990  14.1249  14.1634  15.0691  15.1173
    15.3410  15.4016  15.5051  15.6163  15.9164  16.3538  16.6725  16.7756
    16.8149  17.1103  17.3997  17.7965

          k = 0.2500 0.1443 0.0000 ( 23484 PWs)   bands (ev):

     2.1061   2.2382   2.4668   2.7569   3.1129   3.4962   3.8720   4.0108
     4.1407   4.1668   4.2887   4.3386   4.3766   4.4481   4.4796   4.4868
     4.5172   4.5761   4.5788   4.5997   4.6373   4.7127   4.7921   4.8089
     4.8755   4.9385   5.0380   5.1436   5.2207   5.2376   5.3735   5.4189
     5.5075   5.5745   5.7615   5.8237   5.8830   5.9165   5.9463   5.9764
     6.0440   6.0623   6.0895   6.0927   6.1443   6.1708   6.2080   6.2379
     6.2379   6.3286   6.3428   6.3710   6.3914   6.3984   6.4316   6.4484
     6.5250   6.5259   6.5606   6.5822   6.5883   6.6033   6.6216   6.6301
     6.6438   6.6704   6.6708   6.6967   6.7334   6.7447   6.7583   6.7849
     6.8101   6.8210   6.8346   6.8432   6.8695   6.8805   6.8851   6.9384
     6.9537   7.0123   7.0653   7.1010   7.1187   7.1825   7.1971   7.2151
     7.2730   7.2842   7.3110   7.3522   7.4127   7.4328   7.4650   7.4760
     7.5436   7.5889   7.6317   7.6739   7.7032   7.7245   7.7486   7.8154
     7.8558   7.8682   7.8993   7.9128   7.9144   7.9962   8.0293   8.0498
     8.1453   8.1527   8.1811   8.2149   8.2165   8.2243   8.2513   8.3221
     8.3377   8.3998   8.4361   8.4762   8.5295   8.5512   8.5830   8.5946
     8.6284   8.6710   8.7048   8.7245   8.7329   8.7700   8.7985   8.8612
     8.9110   8.9611   9.1173   9.1355   9.2315   9.3204   9.3711   9.4540
     9.5758   9.6687  10.1018  10.1925  10.6979  10.9014  11.3861  11.7568
    12.1036  12.1583  12.8624  13.5652  14.1722  14.3269  15.1487  15.2896
    15.3891  15.5085  15.5645  15.7228  16.0026  16.4387  16.7665  16.8722
    16.9055  17.1953  17.4566  17.8275

          k = 0.2500 0.2887 0.0000 ( 23496 PWs)   bands (ev):

     2.5182   2.6437   2.8579   3.1322   3.4672   3.8311   4.1906   4.3416
     4.4675   4.4876   4.5962   4.6137   4.6494   4.6514   4.7160   4.7822
     4.7909   4.8227   4.8731   4.8762   4.9235   4.9805   5.0539   5.0646
     5.1275   5.1792   5.2571   5.2978   5.3051   5.3711   5.4451   5.5455
     5.6061   5.6633   5.6836   5.7099   5.7704   5.7868   5.8629   5.9132
     5.9138   5.9290   5.9553   5.9636   6.0075   6.0497   6.0870   6.0933
     6.1098   6.1253   6.1844   6.1957   6.2503   6.2519   6.3569   6.3637
     6.4166   6.4233   6.4644   6.4860   6.5301   6.5565   6.5621   6.5985
     6.6027   6.6643   6.6667   6.6841   6.6976   6.7219   6.7728   6.7734
     6.8173   6.8238   6.8595   6.8753   6.8959   6.9494   6.9599   6.9666
     6.9768   7.0113   7.0220   7.0581   7.1042   7.1150   7.1467   7.1677
     7.1810   7.2231   7.2600   7.3004   7.3189   7.3525   7.3540   7.3562
     7.4415   7.4755   7.4925   7.5215   7.5217   7.6010   7.6139   7.6826
     7.7030   7.7431   7.7484   7.8169   7.8188   7.8318   7.8902   7.9061
     7.9350   7.9806   7.9959   8.0768   8.0963   8.1556   8.1614   8.2549
     8.2698   8.3913   8.4107   8.4643   8.5888   8.5959   8.6665   8.6999
     8.7568   8.7570   8.7836   8.7914   8.8263   8.8698   8.9574   8.9909
     9.0020   9.1114   9.4611   9.8072   9.8507   9.9133   9.9834  10.0106
    10.1813  10.4612  10.6739  10.8691  11.3897  11.4106  12.0035  12.3133
    12.6493  12.9531  13.3683  14.0047  14.3811  14.7280  15.4073  15.5302
    15.6649  15.8401  15.8437  16.0055  16.2362  16.6339  17.0308  17.0591
    17.2058  17.2769  17.5673  17.6594

          k = 0.2500 0.4330 0.0000 ( 23431 PWs)   bands (ev):

     3.1157   3.2223   3.4017   3.6302   3.8992   4.1878   4.4644   4.6448
     4.6598   4.7795   4.7819   4.8099   4.8157   4.8660   4.8758   4.9288
     4.9939   4.9964   5.0190   5.0933   5.1008   5.1408   5.1465   5.2209
     5.2438   5.2478   5.3025   5.4081   5.4673   5.5004   5.5237   5.5562
     5.5629   5.6350   5.6677   5.6789   5.7398   5.7410   5.7973   5.8266
     5.8428   5.8823   5.9112   5.9318   5.9562   5.9783   6.0076   6.0277
     6.0658   6.0911   6.1021   6.1447   6.1545   6.1901   6.2629   6.2916
     6.3357   6.3615   6.4069   6.4439   6.5184   6.5241   6.5675   6.5767
     6.6119   6.6136   6.6636   6.6705   6.6993   6.7193   6.7477   6.7576
     6.8401   6.8865   6.8946   6.9590   6.9792   6.9819   7.0111   7.0199
     7.0299   7.0601   7.1527   7.1786   7.1839   7.2331   7.2694   7.2800
     7.3099   7.3519   7.3573   7.3990   7.4115   7.4352   7.4822   7.5128
     7.5455   7.5593   7.5658   7.6043   7.6372   7.6430   7.6618   7.6856
     7.7104   7.7139   7.7904   7.8269   7.8395   7.8802   7.8852   7.9526
     7.9546   8.0233   8.0567   8.0574   8.1075   8.1621   8.2456   8.2504
     8.3472   8.4252   8.4433   8.5759   8.5899   8.6484   8.7424   8.8061
     8.8130   8.8255   8.8361   8.8524   8.8565   8.8811   8.9835   9.0234
     9.1681   9.3184   9.9020  10.4173  10.4533  10.5020  10.5593  10.7122
    10.9501  11.2520  11.2808  11.7030  12.0065  12.2026  12.7793  12.9179
    13.3553  13.9960  14.0271  14.5383  14.8724  15.0847  15.6488  15.8146
    15.8863  15.8925  15.9906  16.1650  16.2924  16.4213  16.4600  16.7037
    16.9322  17.1526  17.4317  17.4738

          k = 0.2500 0.5774 0.0000 ( 23466 PWs)   bands (ev):

     3.7188   3.7858   3.9349   4.0848   4.2448   4.3951   4.5363   4.5700
     4.6503   4.6707   4.7234   4.7415   4.7693   4.8219   4.8663   4.8745
     4.9080   4.9871   5.0040   5.0362   5.0430   5.1250   5.1357   5.1667
     5.1766   5.2078   5.2142   5.2520   5.2951   5.3349   5.3419   5.3723
     5.4501   5.4827   5.5115   5.5982   5.6087   5.6587   5.7102   5.7453
     5.8180   5.8653   5.8785   5.8953   5.9504   5.9639   5.9988   6.0784
     6.1436   6.1504   6.2140   6.2233   6.2864   6.3993   6.4271   6.4567
     6.4588   6.5088   6.5293   6.5787   6.5935   6.6087   6.6185   6.6336
     6.6534   6.7069   6.7514   6.8019   6.8062   6.8432   6.8595   6.9165
     6.9604   6.9661   7.0053   7.0218   7.0816   7.1202   7.1754   7.1945
     7.2669   7.2954   7.3317   7.3577   7.3766   7.4929   7.4936   7.5100
     7.5214   7.5487   7.5596   7.6666   7.6864   7.7576   7.7793   7.8220
     7.8580   7.8626   7.9212   7.9335   7.9348   7.9657   8.0120   8.0521
     8.0562   8.0627   8.0954   8.1330   8.1355   8.1431   8.1970   8.2185
     8.2601   8.3311   8.3343   8.3480   8.3907   8.4274   8.4488   8.4927
     8.5113   8.5349   8.5795   8.5830   8.6581   8.7104   8.7379   8.7559
     8.7584   8.8225   8.8235   8.8472   8.8533   8.9496   8.9844   9.1475
     9.2296   9.8070  10.4803  11.0770  11.1371  11.1531  11.2881  11.4853
    11.7654  11.9355  12.1287  12.5646  12.6901  13.0511  13.5241  13.5468
    13.8078  13.8212  14.0332  14.2835  14.4528  14.7365  15.0273  15.0701
    15.1358  15.4639  15.6310  15.7378  15.9373  16.2491  16.4135  16.5596
    16.6968  17.0412  17.1426  17.4864

          k = 0.2500 0.7217 0.0000 ( 23545 PWs)   bands (ev):

     4.0802   4.1130   4.2751   4.3752   4.3759   4.4805   4.4996   4.5133
     4.5519   4.5804   4.5825   4.6459   4.6672   4.7353   4.7466   4.7703
     4.8233   4.8717   4.8734   4.8786   4.9186   4.9251   4.9335   5.0156
     5.0335   5.0773   5.1049   5.1201   5.1402   5.2211   5.2418   5.2611
     5.2767   5.3471   5.4013   5.4850   5.4938   5.5551   5.6351   5.6744
     5.8121   5.8203   5.8236   5.9145   5.9701   5.9994   6.0018   6.0945
     6.1154   6.2526   6.2920   6.3231   6.3619   6.3667   6.3992   6.4424
     6.5396   6.5439   6.5744   6.5912   6.5941   6.6587   6.7102   6.7238
     6.7635   6.7948   6.8212   6.8605   6.9061   6.9665   7.0500   7.0707
     7.1169   7.1238   7.2168   7.2217   7.2567   7.3108   7.3391   7.3531
     7.4400   7.4624   7.5893   7.6200   7.6439   7.6607   7.6895   7.8128
     7.8511   7.9003   7.9187   7.9190   7.9393   7.9794   8.0061   8.1121
     8.1255   8.1867   8.1941   8.2089   8.2221   8.2303   8.2801   8.3005
     8.3097   8.3253   8.3868   8.4070   8.4721   8.5366   8.5446   8.5526
     8.5747   8.5848   8.6020   8.6120   8.6582   8.6800   8.7125   8.7129
     8.7580   8.7792   8.8068   8.8495   8.8683   8.9121   8.9247   8.9317
     8.9387   9.1278   9.1667   9.1994   9.3056   9.3655   9.4560   9.6749
    10.1067  10.6949  11.3914  11.9063  11.9806  12.0069  12.0682  12.1031
    12.1537  12.2679  12.4235  12.5753  12.8167  12.8759  12.9302  13.0231
    13.3004  13.4256  13.6157  13.9325  14.0821  14.3115  14.3234  14.6745
    14.8365  15.2747  15.3057  15.4015  15.5501  15.7323  15.7778  16.0202
    16.0282  16.2264  16.4135  16.5371

          k = 0.2500-0.8660 0.0000 ( 23532 PWs)   bands (ev):

     4.1908   4.2594   4.2778   4.3118   4.3981   4.4360   4.4696   4.4853
     4.5506   4.5645   4.5941   4.6180   4.7304   4.7314   4.7451   4.7526
     4.7804   4.7900   4.7974   4.7986   4.8931   4.9013   4.9018   4.9212
     4.9471   4.9472   5.0353   5.0364   5.0999   5.1127   5.1997   5.2361
     5.2884   5.2959   5.3391   5.3394   5.4705   5.4819   5.6268   5.6613
     5.7838   5.8145   5.9242   5.9639   6.0199   6.0454   6.0734   6.1107
     6.1343   6.1384   6.2279   6.2423   6.3850   6.3891   6.4242   6.4288
     6.5164   6.5348   6.5724   6.5754   6.6372   6.6437   6.7205   6.7496
     6.7933   6.8250   6.8872   6.8945   6.9428   6.9738   7.1084   7.1424
     7.1829   7.1995   7.2820   7.2838   7.3893   7.4002   7.4465   7.4491
     7.5238   7.5317   7.6911   7.7080   7.7202   7.7418   7.8439   7.8731
     7.9356   7.9956   8.0566   8.0578   8.0712   8.0721   8.0989   8.1640
     8.2413   8.2436   8.2877   8.3455   8.3534   8.3646   8.3869   8.3934
     8.3999   8.4102   8.4274   8.4373   8.4544   8.4769   8.5228   8.5257
     8.5992   8.6259   8.7255   8.7319   8.7499   8.7543   8.7767   8.7954
     8.8461   8.8729   8.9024   8.9269   9.0223   9.0226   9.0389   9.0445
     9.0915   9.1374  10.3845  10.4295  10.4639  10.4834  10.6006  10.6058
    10.7254  10.7578  10.9176  10.9378  11.2021  11.2341  11.6020  11.6328
    12.1088  12.1281  12.7123  12.7476  13.2979  13.3148  13.5315  13.5590
    13.6412  13.6422  13.7305  13.7770  14.0011  14.0711  14.2140  14.2870
    14.4265  14.6131  14.6990  14.8229  14.9580  15.0928  15.3874  15.3922
    15.7264  15.7593  15.9976  16.0062

          k = 0.3750 0.0000 0.0000 ( 23492 PWs)   bands (ev):

     2.4809   2.6089   2.8241   3.0997   3.4365   3.6488   3.7586   3.8000
     3.9060   4.0765   4.1578   4.2388   4.3660   4.4330   4.4919   4.5834
     4.6207   4.6386   4.7218   4.7313   4.8421   4.8423   4.8443   4.9157
     4.9715   5.0127   5.1231   5.1819   5.2463   5.3330   5.4217   5.4727
     5.5652   5.5726   5.6644   5.6956   5.7806   5.8795   5.8801   5.9241
     5.9392   5.9775   6.0091   6.0698   6.0800   6.1184   6.1450   6.1749
     6.1993   6.2490   6.3329   6.4186   6.4263   6.4556   6.4905   6.5142
     6.5166   6.5568   6.5584   6.5829   6.5858   6.6119   6.6396   6.6493
     6.6498   6.6843   6.6985   6.7018   6.7430   6.7716   6.8072   6.8132
     6.8420   6.8427   6.8948   6.9150   6.9188   6.9287   6.9422   6.9678
     7.0063   7.0128   7.0274   7.0640   7.1141   7.1434   7.1451   7.1975
     7.2047   7.2061   7.2554   7.3143   7.3182   7.3520   7.4065   7.4407
     7.4938   7.5023   7.5172   7.5325   7.6143   7.6337   7.6463   7.6693
     7.6709   7.7588   7.7728   7.7907   7.8743   7.8907   7.9614   7.9659
     7.9812   7.9821   8.0122   8.0257   8.0397   8.0528   8.0659   8.0777
     8.1075   8.1264   8.1859   8.1961   8.2487   8.2495   8.2770   8.3173
     8.3455   8.3501   8.3790   8.4339   8.4548   8.5386   8.5661   8.5874
     8.6460   8.6646   8.7039   8.7966   8.8184   8.8467   8.8721   8.9475
     9.1742   9.4110   9.7741   9.9384  10.4358  10.6165  11.1212  11.3508
    11.8820  12.2675  12.6323  12.8780  13.4964  14.3762  14.9663  15.3790
    15.6347  15.8289  16.4955  17.0018  17.1992  17.2752  17.4393  17.6041
    17.8002  17.9669  18.2541  18.8097

          k = 0.3750 0.1443 0.0000 ( 23495 PWs)   bands (ev):

     2.6216   2.7457   2.9569   3.2264   3.5580   3.7845   3.8986   3.9184
     4.0332   4.2002   4.2794   4.3512   4.4755   4.5644   4.6046   4.7110
     4.7394   4.7535   4.8473   4.8501   4.9406   4.9548   4.9566   4.9891
     5.0559   5.0976   5.2030   5.2824   5.3557   5.3702   5.4112   5.5095
     5.5607   5.6196   5.6678   5.6930   5.7613   5.7975   5.8202   5.8502
     5.8669   5.9083   5.9475   5.9832   6.0203   6.0414   6.0736   6.0787
     6.1327   6.1469   6.1970   6.2391   6.2828   6.3192   6.3290   6.4178
     6.4233   6.4482   6.4548   6.4984   6.5186   6.5468   6.5584   6.5815
     6.5898   6.6488   6.6766   6.6816   6.6901   6.6975   6.7086   6.7400
     6.7626   6.7955   6.8244   6.8428   6.8781   6.9303   6.9550   7.0026
     7.0068   7.0480   7.0668   7.1014   7.1363   7.1409   7.1676   7.2063
     7.2360   7.2658   7.2841   7.2971   7.3373   7.3608   7.3780   7.3961
     7.4165   7.4620   7.4663   7.4762   7.5329   7.5729   7.6549   7.6881
     7.6970   7.7353   7.7499   7.7733   7.7876   7.8525   7.8637   7.9291
     7.9500   7.9899   8.0114   8.0179   8.1070   8.1202   8.1686   8.1931
     8.2363   8.2696   8.2856   8.3170   8.3986   8.3995   8.4444   8.4859
     8.4895   8.5276   8.5577   8.5660   8.5947   8.6288   8.6448   8.6891
     8.7125   8.7168   8.7457   8.7642   8.7946   8.8065   8.9668   9.1096
     9.3962   9.5573   9.9477  10.0897  10.5848  10.7725  11.2571  11.5205
    12.0219  12.4320  12.7619  13.1392  13.6276  14.4560  15.1795  15.4790
    15.7966  15.9316  16.6200  17.1176  17.2773  17.3634  17.4747  17.6350
    17.8995  18.0442  18.2900  18.7626

          k = 0.3750 0.2887 0.0000 ( 23497 PWs)   bands (ev):

     3.0048   3.1187   3.3094   3.5552   3.8545   4.1349   4.1836   4.2649
     4.3373   4.4600   4.5198   4.5581   4.6725   4.7950   4.8068   4.9291
     4.9468   4.9634   5.0938   5.1054   5.1725   5.1734   5.1852   5.2325
     5.2698   5.2822   5.3087   5.3577   5.4149   5.4903   5.4988   5.5665
     5.5918   5.6136   5.6212   5.6989   5.7002   5.7310   5.7427   5.7698
     5.7913   5.8203   5.8433   5.8612   5.9053   5.9087   5.9475   5.9718
     5.9826   5.9933   6.0332   6.0691   6.0794   6.1626   6.1690   6.2086
     6.2658   6.2969   6.3046   6.3593   6.3829   6.3970   6.4161   6.4221
     6.4925   6.5001   6.5464   6.5619   6.5910   6.6018   6.6326   6.7016
     6.7077   6.7326   6.7354   6.7458   6.8365   6.8474   6.8875   6.9479
     6.9607   6.9819   7.0294   7.1396   7.1508   7.2239   7.2383   7.2536
     7.2985   7.3285   7.3296   7.3698   7.3711   7.4254   7.4475   7.4487
     7.4816   7.4977   7.5566   7.5689   7.6024   7.6247   7.6396   7.6593
     7.6911   7.7190   7.7693   7.7760   7.8955   7.9112   7.9567   7.9613
     7.9677   8.0477   8.1037   8.1276   8.1487   8.1718   8.1908   8.2281
     8.3096   8.3286   8.3986   8.4568   8.5117   8.5655   8.6049   8.6152
     8.6363   8.6678   8.6822   8.6951   8.6961   8.7814   8.8320   8.8859
     8.9361   9.0560   9.0999   9.1106   9.1696   9.2755   9.3424   9.4964
     9.8496   9.8925  10.4072  10.4251  11.0153  11.1451  11.6605  11.9056
    12.4225  12.8160  13.1339  13.8040  13.9711  14.7526  15.7484  15.7816
    16.2220  16.2615  16.9331  17.4096  17.4972  17.5298  17.5799  17.7723
    18.0541  18.1509  18.3386  18.6669

          k = 0.3750 0.4330 0.0000 ( 23475 PWs)   bands (ev):

     3.5052   3.5909   3.7446   3.9300   4.1425   4.3660   4.3770   4.5160
     4.5764   4.5816   4.6719   4.7097   4.7413   4.7475   4.8568   4.8618
     4.9379   4.9516   5.0031   5.0737   5.1116   5.1270   5.1695   5.2174
     5.2257   5.2414   5.2873   5.3180   5.3218   5.3441   5.4054   5.4551
     5.5096   5.5861   5.5876   5.6316   5.6629   5.6708   5.6980   5.7404
     5.8084   5.8481   5.8777   5.9330   5.9712   5.9747   6.0491   6.0664
     6.0893   6.1148   6.1710   6.1725   6.2288   6.2397   6.2729   6.2879
     6.2929   6.3238   6.3630   6.4069   6.4254   6.4338   6.5119   6.5391
     6.5930   6.6178   6.6335   6.6466   6.6838   6.7165   6.7762   6.7913
     6.8478   6.8637   6.8770   6.9009   6.9038   6.9438   6.9653   6.9766
     7.0056   7.0396   7.1318   7.1418   7.1879   7.2355   7.2840   7.3681
     7.3880   7.4332   7.4609   7.4951   7.5074   7.5465   7.5537   7.5897
     7.6140   7.6577   7.6610   7.7073   7.7330   7.7840   7.8056   7.8371
     7.8771   7.8984   7.9303   7.9846   7.9907   8.0078   8.0622   8.0980
     8.1739   8.1785   8.1900   8.2316   8.2816   8.3460   8.3750   8.3930
     8.4100   8.4224   8.4939   8.5248   8.5827   8.6984   8.7107   8.7501
     8.7740   8.7746   8.7896   8.7896   8.8175   8.9095   8.9482   9.0531
     9.1222   9.5689   9.5893   9.6259   9.6326   9.7163   9.8687  10.1353
    10.2432  10.5294  10.8858  11.0311  11.6337  11.6431  12.2590  12.4070
    13.0112  13.2673  13.6812  14.4583  14.6676  15.3006  16.2382  16.2748
    16.4990  16.6186  16.7199  16.8316  17.0019  17.1096  17.4379  17.5133
    17.7131  17.7881  17.9731  18.0445

          k = 0.3750 0.5774 0.0000 ( 23521 PWs)   bands (ev):

     3.8666   3.9127   4.0785   4.1974   4.2743   4.3278   4.3962   4.4044
     4.4819   4.5134   4.5688   4.5710   4.6438   4.6923   4.7006   4.7662
     4.8121   4.8167   4.8509   4.8646   4.8926   4.9236   4.9393   4.9668
     5.0228   5.0256   5.0554   5.1015   5.1292   5.1658   5.2122   5.2232
     5.2953   5.3641   5.3767   5.4068   5.4994   5.5206   5.6394   5.6582
     5.7814   5.8644   5.8958   6.0147   6.0728   6.1078   6.1438   6.1717
     6.1805   6.3083   6.3246   6.3523   6.4021   6.4589   6.4775   6.5311
     6.5329   6.5422   6.5624   6.5819   6.6118   6.6314   6.6994   6.7316
     6.7541   6.7947   6.8343   6.8490   6.9007   6.9023   6.9689   7.0192
     7.0242   7.0778   7.1079   7.1448   7.1464   7.3082   7.3281   7.3319
     7.3794   7.4147   7.4907   7.5434   7.5700   7.6953   7.7047   7.7346
     7.7554   7.7594   7.7717   7.8542   7.9138   7.9239   7.9466   7.9667
     8.0102   8.0768   8.0887   8.1171   8.1525   8.1786   8.1994   8.2064
     8.2364   8.2585   8.2631   8.2678   8.3116   8.3162   8.3270   8.3276
     8.3491   8.3642   8.4157   8.4440   8.4687   8.5001   8.5367   8.5612
     8.5698   8.6101   8.6207   8.6821   8.7129   8.7194   8.7542   8.7815
     8.8422   8.8608   8.8725   8.8921   8.8979   8.9847   9.0176   9.1487
     9.4255  10.0676  10.0790  10.1348  10.2260  10.3539  10.5410  10.7825
    10.8409  11.2505  11.4997  11.7604  12.2815  12.3802  12.9949  13.0458
    13.7046  13.8148  14.2683  14.4925  14.5919  14.8683  14.9874  15.2737
    15.3415  15.5475  15.7466  15.8305  16.2307  16.4136  16.4762  16.7068
    16.8188  16.9192  17.1774  17.2728

          k = 0.3750 0.7217 0.0000 ( 23544 PWs)   bands (ev):

     3.9950   4.0235   4.1183   4.1933   4.2326   4.2782   4.3605   4.3746
     4.3873   4.3880   4.4684   4.4795   4.5275   4.5401   4.6102   4.6253
     4.6398   4.6623   4.6797   4.6989   4.7066   4.7080   4.7944   4.7951
     4.8175   4.8596   4.8698   4.9538   4.9769   5.0117   5.0561   5.0812
     5.1335   5.1947   5.2352   5.2568   5.4095   5.4372   5.6053   5.6593
     5.8455   5.8464   5.9270   6.0329   6.0431   6.1102   6.1512   6.1682
     6.2761   6.2808   6.3428   6.3692   6.4097   6.4296   6.4478   6.4580
     6.4992   6.5011   6.6195   6.6588   6.6848   6.7152   6.7662   6.7849
     6.8847   6.8862   6.9149   7.0317   7.0723   7.0761   7.1692   7.2030
     7.3117   7.3164   7.4123   7.4332   7.4915   7.5409   7.6320   7.6579
     7.7521   7.7681   7.7925   7.8854   7.9574   7.9763   8.0549   8.0723
     8.1337   8.2340   8.2362   8.3124   8.3242   8.3396   8.3911   8.3941
     8.4396   8.4450   8.4969   8.5023   8.5438   8.5478   8.5668   8.5732
     8.5911   8.6068   8.6093   8.6157   8.6377   8.6555   8.6919   8.6926
     8.6977   8.7095   8.7096   8.7244   8.7423   8.7498   8.7684   8.7691
     8.7994   8.8548   8.8678   8.8893   8.9082   8.9704   8.9917   9.0036
     9.0303   9.0475   9.1471   9.1800   9.3722   9.4608   9.5604   9.7309
    10.1952  10.7438  10.8460  10.8794  11.0378  11.2157  11.3854  11.5892
    11.6345  11.9535  12.2962  12.3497  12.6289  12.7606  12.9248  12.9837
    13.0390  13.1238  13.7885  13.8123  13.8916  14.0278  14.2802  14.3522
    14.4325  14.5061  14.6591  14.6764  14.9612  15.0525  15.2838  15.4646
    15.5727  15.9944  16.0038  16.2971

          k = 0.3750-0.8660 0.0000 ( 23556 PWs)   bands (ev):

     3.9986   4.0674   4.0903   4.1153   4.2298   4.2504   4.2965   4.3065
     4.3678   4.3815   4.4069   4.4311   4.5330   4.5377   4.5623   4.5645
     4.5861   4.6003   4.6105   4.6108   4.6784   4.6982   4.7031   4.7157
     4.7250   4.7626   4.8341   4.8611   4.9327   4.9355   5.0418   5.0568
     5.0764   5.0781   5.1797   5.1939   5.3749   5.4130   5.5897   5.6668
     5.8424   5.8546   6.0042   6.0100   6.1033   6.1251   6.1425   6.1711
     6.2322   6.2826   6.2994   6.3323   6.3785   6.3938   6.4235   6.4238
     6.4859   6.4864   6.6739   6.6988   6.7185   6.7249   6.7788   6.7931
     6.9147   6.9196   7.0406   7.0616   7.1406   7.1425   7.1866   7.2316
     7.3934   7.4018   7.4894   7.5148   7.5807   7.5945   7.7542   7.7659
     7.8344   7.8530   7.9439   7.9639   8.0951   8.1080   8.2004   8.2024
     8.2569   8.2953   8.3705   8.3958   8.4496   8.4894   8.5303   8.5483
     8.5601   8.5770   8.5982   8.6197   8.6298   8.6391   8.6424   8.6663
     8.7062   8.7115   8.7356   8.7406   8.7548   8.7614   8.7735   8.7817
     8.7949   8.8107   8.8235   8.8460   8.8506   8.8631   8.8743   8.8888
     8.9308   8.9376   8.9509   8.9798   9.0371   9.0642   9.0824   9.0839
     9.0935   9.1469  10.3163  10.4214  10.4766  10.5132  10.7458  10.7826
    10.9123  10.9645  11.0854  11.1105  11.2586  11.3003  11.5226  11.5784
    11.8776  11.9183  12.2562  12.3475  12.5168  12.5480  12.6285  12.7675
    12.7835  12.7972  12.8080  12.8830  13.6358  13.7039  13.7485  13.8284
    13.9170  14.2553  14.3333  14.4606  14.5455  14.8311  14.9286  15.0674
    15.2045  15.3133  15.7358  15.8537

          k =-0.5000 0.0000-0.0000 ( 23442 PWs)   bands (ev):

     3.1091   3.1091   3.2229   3.2229   3.4031   3.4031   3.6317   3.6317
     3.9041   3.9041   4.1879   4.1880   4.4599   4.4599   4.6630   4.6630
     4.7869   4.7869   4.8985   4.8985   4.9736   4.9736   5.1210   5.1210
     5.1475   5.1475   5.2489   5.2489   5.3160   5.3161   5.4429   5.4429
     5.5303   5.5303   5.6389   5.6390   5.7281   5.7281   5.8303   5.8303
     5.9379   5.9379   5.9664   5.9664   6.0356   6.0356   6.0660   6.0660
     6.1733   6.1733   6.2393   6.2393   6.3400   6.3400   6.4191   6.4192
     6.5309   6.5309   6.5814   6.5814   6.6226   6.6227   6.6584   6.6584
     6.6839   6.6839   6.7031   6.7031   6.7084   6.7084   6.7460   6.7460
     6.8004   6.8004   6.8709   6.8709   6.8955   6.8955   6.9509   6.9509
     7.0008   7.0008   7.1535   7.1536   7.1803   7.1804   7.1864   7.1864
     7.2396   7.2396   7.2751   7.2751   7.3485   7.3485   7.4050   7.4050
     7.4317   7.4318   7.5072   7.5072   7.5484   7.5484   7.5601   7.5601
     7.6110   7.6110   7.6251   7.6251   7.6857   7.6857   7.7121   7.7121
     7.7927   7.7927   7.8512   7.8513   7.8914   7.8914   7.9640   7.9640
     8.0350   8.0350   8.0856   8.0856   8.1059   8.1060   8.1578   8.1578
     8.2414   8.2414   8.3581   8.3581   8.4262   8.4262   8.5644   8.5645
     8.6699   8.6699   8.8160   8.8160   8.8323   8.8323   8.8586   8.8586
     9.3301   9.3301   9.8923   9.8923  10.5013  10.5014  11.2314  11.2314
    11.9876  11.9876  12.9177  12.9177  13.9783  13.9784  14.8983  14.8983
    15.8741  15.8742  16.4555  16.4564  17.4305  17.4307  17.8199  17.8202
    19.1448  19.1451  19.3246  19.3248

          k =-0.5000 0.1443-0.0000 ( 23476 PWs)   bands (ev):

     3.2403   3.2474   3.3571   3.3580   3.5269   3.5298   3.7506   3.7538
     4.0158   4.0174   4.2971   4.3007   4.5774   4.5795   4.7972   4.8045
     4.9245   4.9262   5.0211   5.0293   5.0867   5.0999   5.2129   5.2223
     5.2598   5.2620   5.2992   5.3162   5.3759   5.3787   5.4600   5.4783
     5.5429   5.5512   5.6375   5.6381   5.6990   5.7003   5.7662   5.7712
     5.8298   5.8370   5.8696   5.8765   5.9257   5.9367   5.9569   5.9594
     6.0432   6.0643   6.0705   6.0732   6.1403   6.2025   6.2799   6.3051
     6.3836   6.4415   6.4481   6.4653   6.5035   6.5122   6.5519   6.5617
     6.5936   6.5942   6.6187   6.6274   6.6628   6.6635   6.6807   6.6812
     6.6967   6.7019   6.7180   6.7200   6.7726   6.8126   6.9129   6.9160
     6.9832   6.9862   7.0927   7.0950   7.1729   7.1793   7.2156   7.2949
     7.3421   7.3522   7.3677   7.3725   7.3879   7.3982   7.4104   7.4265
     7.4592   7.4615   7.5383   7.5627   7.5853   7.5900   7.6519   7.6709
     7.7223   7.7309   7.7514   7.7555   7.7748   7.8119   7.8427   7.8450
     7.8682   7.8814   8.0137   8.0199   8.0605   8.0791   8.0898   8.0908
     8.1076   8.1251   8.2142   8.2171   8.2271   8.2424   8.2777   8.2831
     8.3032   8.3038   8.3617   8.3786   8.4219   8.4383   8.5083   8.5466
     8.6619   8.6888   8.7073   8.7143   8.7419   8.7446   9.0227   9.0258
     9.4561   9.4811  10.0002  10.0317  10.6012  10.6404  11.3486  11.3703
    12.0976  12.1288  13.0368  13.0408  14.1911  14.2099  15.0172  15.0347
    15.9911  15.9948  16.5499  16.5612  17.5631  17.5858  17.8753  17.8869
    19.2006  19.2108  19.3982  19.4277

          k =-0.5000 0.2887-0.0000 ( 23540 PWs)   bands (ev):

     3.5837   3.6089   3.7066   3.7095   3.8382   3.8448   4.0346   4.0453
     4.2559   4.2643   4.5024   4.5190   4.7617   4.7811   5.0189   5.0194
     5.2092   5.2155   5.2624   5.3031   5.3148   5.3267   5.3526   5.3560
     5.3905   5.3934   5.4100   5.4150   5.4409   5.4515   5.4899   5.4906
     5.5212   5.5284   5.5339   5.5491   5.5991   5.6074   5.6696   5.6705
     5.6924   5.7343   5.7689   5.7880   5.8076   5.8113   5.8334   5.8669
     5.9634   5.9973   6.0162   6.0498   6.0738   6.0754   6.0999   6.1003
     6.1513   6.1682   6.1977   6.2109   6.2893   6.2981   6.3744   6.3764
     6.4400   6.4440   6.5074   6.5088   6.5331   6.5332   6.5803   6.5817
     6.5840   6.5855   6.6374   6.6860   6.8789   6.9221   6.9568   6.9822
     6.9929   7.0075   7.0239   7.0591   7.1558   7.1698   7.2018   7.2222
     7.2541   7.2729   7.3208   7.3483   7.4140   7.4439   7.5455   7.5563
     7.6027   7.6078   7.6387   7.6464   7.6696   7.7034   7.7646   7.7702
     7.8633   7.8851   7.9375   7.9598   8.0196   8.0266   8.0661   8.0813
     8.1264   8.1804   8.2340   8.2368   8.2626   8.2927   8.3455   8.3545
     8.3852   8.3908   8.4215   8.4348   8.4616   8.4786   8.4853   8.4986
     8.5116   8.5183   8.5294   8.5405   8.5951   8.5974   8.6256   8.6304
     8.6774   8.6784   8.6900   8.6987   8.8694   8.8821   9.2669   9.2855
     9.7354   9.7782  10.3035  10.3524  10.9107  10.9785  11.6852  11.7207
    12.4183  12.4766  13.3372  13.3494  14.7554  14.8010  15.3882  15.4182
    16.3207  16.3408  16.8478  16.8823  17.9055  17.9713  18.0524  18.0705
    19.2536  19.2779  19.3745  19.4507

          k =-0.5000 0.4330-0.0000 ( 23522 PWs)   bands (ev):

     3.9151   3.9872   4.0485   4.0584   4.1542   4.1626   4.2962   4.3260
     4.4297   4.4574   4.5716   4.5981   4.7228   4.7512   4.8612   4.8671
     4.9678   4.9923   5.0180   5.0341   5.0834   5.1100   5.1351   5.1502
     5.1992   5.2072   5.2659   5.2956   5.3164   5.3314   5.4233   5.4267
     5.4923   5.5188   5.5469   5.5666   5.5827   5.6253   5.7016   5.7069
     5.8042   5.8137   5.9066   5.9115   5.9751   6.0049   6.0337   6.0349
     6.0742   6.0998   6.1496   6.1584   6.2183   6.2259   6.2674   6.2813
     6.3629   6.3708   6.3769   6.4220   6.4596   6.4613   6.4923   6.4945
     6.5502   6.5519   6.6370   6.6614   6.6982   6.6996   6.7255   6.7438
     6.7839   6.8109   6.8513   6.8590   6.8783   6.9275   6.9427   6.9594
     7.0102   7.0416   7.1252   7.1252   7.2118   7.2257   7.3707   7.3835
     7.4246   7.4642   7.5070   7.5265   7.5383   7.5599   7.5899   7.5955
     7.6095   7.6163   7.7262   7.7304   7.8327   7.8332   7.8620   7.8693
     7.9867   8.0047   8.1169   8.1550   8.2019   8.2135   8.2714   8.2723
     8.3755   8.3838   8.4515   8.4569   8.4834   8.4867   8.5476   8.5563
     8.5873   8.5889   8.6154   8.6252   8.6363   8.6846   8.7645   8.7734
     8.7871   8.7876   8.8149   8.8252   8.8550   8.8609   8.8672   8.8738
     8.9338   8.9339   9.0067   9.0098   9.2110   9.2118   9.6159   9.6398
    10.1309  10.1803  10.7554  10.8074  11.3872  11.4721  12.1832  12.2241
    12.8930  12.9733  13.7530  13.7737  15.4138  15.4985  15.9194  15.9654
    16.7552  16.8000  17.2021  17.3007  17.5585  17.6170  17.6854  17.7200
    17.9394  17.9723  18.1430  18.1549

          k =-0.5000 0.5774-0.0000 ( 23534 PWs)   bands (ev):

     3.9939   4.0787   4.1115   4.1303   4.2574   4.2707   4.3744   4.4247
     4.5004   4.5070   4.5140   4.5151   4.5799   4.6019   4.6410   4.6454
     4.7275   4.7483   4.7670   4.7771   4.8255   4.8295   4.8595   4.8684
     4.9417   4.9423   5.0124   5.0155   5.0925   5.0999   5.2204   5.2237
     5.2395   5.2449   5.3017   5.3324   5.4613   5.4690   5.6058   5.6609
     5.8082   5.8224   5.9860   5.9916   6.1010   6.1248   6.2162   6.2754
     6.3213   6.3333   6.3710   6.3724   6.4311   6.4461   6.4779   6.4804
     6.5088   6.5111   6.5745   6.5782   6.6259   6.6321   6.7141   6.7237
     6.7652   6.7715   6.8576   6.8794   6.9422   6.9500   7.0505   7.0541
     7.0926   7.0966   7.2082   7.2117   7.2487   7.2605   7.3645   7.3776
     7.4448   7.4472   7.5827   7.5848   7.6482   7.6979   7.7032   7.7854
     7.8355   7.8561   7.8926   7.9085   7.9093   7.9238   7.9835   8.0220
     8.0812   8.1217   8.1853   8.1904   8.2138   8.2204   8.2218   8.2259
     8.2540   8.2556   8.2955   8.3275   8.4167   8.4321   8.4442   8.4561
     8.5410   8.5587   8.5838   8.5843   8.5962   8.6040   8.6801   8.6967
     8.7258   8.7415   8.7585   8.7770   8.7948   8.8456   8.9061   8.9082
     8.9178   8.9734   9.1473   9.1486   9.2135   9.2155   9.3117   9.3180
     9.3591   9.3789   9.4559   9.4686   9.6829   9.6997  10.1188  10.1245
    10.6793  10.7169  11.3686  11.4043  12.0333  12.1229  12.8398  12.8797
    13.5271  13.6317  14.2959  14.3151  15.2898  15.3067  15.3778  15.3919
    15.5499  15.5712  15.7755  15.7757  15.9371  15.9986  16.3801  16.4101
    16.8694  16.8708  17.1841  17.1936

          k =-0.5000 0.7217-0.0000 ( 23516 PWs)   bands (ev):

     3.9548   4.0283   4.0547   4.0763   4.2083   4.2133   4.2880   4.2926
     4.3577   4.3656   4.3871   4.4062   4.5060   4.5114   4.5415   4.5453
     4.5659   4.5876   4.6147   4.6155   4.6587   4.6652   4.6865   4.6880
     4.7356   4.7700   4.8222   4.8535   4.9412   4.9441   5.0351   5.0409
     5.0605   5.0623   5.1778   5.1959   5.3740   5.4118   5.5823   5.6628
     5.8337   5.8666   6.0162   6.0266   6.1169   6.1663   6.1894   6.2244
     6.2944   6.3128   6.3294   6.3341   6.3880   6.4014   6.4435   6.4483
     6.4743   6.4840   6.6740   6.6855   6.7555   6.7624   6.8191   6.8462
     6.8975   6.9179   7.0414   7.0553   7.1264   7.1373   7.1917   7.2216
     7.3456   7.3585   7.4954   7.5384   7.5761   7.5784   7.7036   7.7363
     7.8428   7.8664   7.9244   7.9698   8.0398   8.0712   8.1602   8.1656
     8.2747   8.3045   8.3993   8.3996   8.4380   8.4529   8.4908   8.5280
[...]
     5.1361   5.1984   5.2377   5.2874   5.3803   5.4410   5.4892   5.5194
     5.6040   5.6183   5.6760   5.7077   5.7889   5.8105   5.8517   5.9028
     5.9160   5.9340   5.9462   5.9758   6.0026   6.0512   6.0961   6.1028
     6.1169   6.1379   6.1730   6.2385   6.2707   6.2718   6.3229   6.3589
     6.4181   6.4288   6.4694   6.4705   6.5168   6.5594   6.5755   6.6029
     6.6129   6.6584   6.6859   6.6893   6.7080   6.7386   6.7676   6.7761
     6.8026   6.8314   6.8697   6.8734   6.9269   6.9313   6.9628   6.9777
     6.9882   7.0096   7.0135   7.0685   7.1011   7.1356   7.1416   7.1723
     7.1857   7.2222   7.2552   7.2892   7.3239   7.3448   7.3623   7.3628
     7.4408   7.4596   7.5118   7.5247   7.5607   7.6112   7.6307   7.6924
     7.7050   7.7565   7.7900   7.7913   7.8213   7.8609   7.8867   7.9019
     7.9603   7.9916   8.0087   8.0376   8.1012   8.1725   8.1781   8.2215
     8.2587   8.3877   8.3877   8.4538   8.5792   8.5986   8.6692   8.6951
     8.7577   8.7588   8.7808   8.7929   8.8343   8.8701   8.9396   8.9710
     8.9961   9.0145   9.4317   9.8159   9.8518   9.8991   9.9131  10.0017
    10.1754  10.4634  10.6415  10.8837  11.3241  11.4163  12.0332  12.3090
    12.6868  12.9096  13.3790  14.0289  14.4102  14.6768  15.3973  15.4940
    15.6694  15.8291  15.8588  16.0083  16.2022  16.5982  17.0290  17.0577
    17.2200  17.2674  17.5622  17.6318

          k =-0.2500 0.4330-0.0000 ( 23431 PWs)   bands (ev):

     3.0821   3.2248   3.3866   3.6390   3.9014   4.1966   4.4683   4.5417
     4.6530   4.7355   4.7465   4.8108   4.8233   4.8627   4.8746   4.9130
     4.9503   5.0042   5.0601   5.0977   5.1264   5.1467   5.1979   5.2310
     5.2438   5.2502   5.3100   5.4460   5.4852   5.4961   5.5079   5.5622
     5.5643   5.6251   5.6762   5.6816   5.7083   5.7669   5.7916   5.8389
     5.8435   5.9056   5.9204   5.9305   5.9727   5.9904   5.9997   6.0253
     6.0482   6.0961   6.1019   6.1490   6.1593   6.2320   6.2594   6.2804
     6.3519   6.3613   6.4010   6.4546   6.4916   6.5300   6.5680   6.5863
     6.6121   6.6211   6.6618   6.6726   6.7018   6.7183   6.7311   6.7500
     6.8443   6.8940   6.9040   6.9799   6.9824   6.9834   7.0173   7.0286
     7.0655   7.0927   7.1768   7.1809   7.2016   7.2445   7.2645   7.2870
     7.2980   7.3324   7.3761   7.3814   7.4059   7.4445   7.4624   7.5036
     7.5558   7.5748   7.5929   7.5964   7.6282   7.6555   7.6588   7.6819
     7.7247   7.7430   7.7931   7.8422   7.8769   7.8940   7.9089   7.9341
     7.9713   8.0150   8.0611   8.0636   8.0990   8.1575   8.1926   8.2481
     8.3587   8.4248   8.4304   8.5661   8.6151   8.6673   8.7461   8.7919
     8.8121   8.8256   8.8476   8.8527   8.8617   8.8938   8.9645   9.0319
     9.0542   9.2644   9.8623  10.4105  10.4209  10.4483  10.5574  10.7020
    10.9467  11.2164  11.2813  11.7159  11.9151  12.2309  12.8084  12.9173
    13.4095  13.9280  14.0271  14.5767  14.9055  14.9288  15.5838  15.7913
    15.8558  15.8848  15.9782  16.1521  16.2877  16.4406  16.4502  16.6480
    16.9824  17.2128  17.4602  17.5332

          k =-0.2500 0.5774-0.0000 ( 23466 PWs)   bands (ev):

     3.6441   3.7933   3.9104   4.1101   4.2632   4.4144   4.5148   4.5519
     4.6409   4.6451   4.7208   4.7339   4.7466   4.8325   4.8512   4.8586
     4.9100   4.9854   5.0090   5.0362   5.0474   5.1299   5.1420   5.1757
     5.1847   5.1848   5.2271   5.2638   5.3008   5.3461   5.3556   5.3807
     5.4509   5.4616   5.5218   5.5678   5.6106   5.6715   5.7505   5.7675
     5.8103   5.8523   5.8864   5.9268   5.9491   5.9726   6.0373   6.0570
     6.1493   6.1522   6.2250   6.2386   6.2964   6.3751   6.4293   6.4438
     6.4889   6.5065   6.5403   6.5794   6.5912   6.6062   6.6272   6.6391
     6.6674   6.6935   6.7500   6.7612   6.8223   6.8460   6.8767   6.9231
     6.9497   6.9700   6.9991   7.0197   7.1134   7.1156   7.1436   7.2093
     7.2324   7.2937   7.3391   7.3430   7.4685   7.4704   7.5110   7.5190
     7.5260   7.5410   7.6108   7.6258   7.7241   7.7420   7.7947   7.8238
     7.8335   7.8720   7.9129   7.9263   7.9736   7.9927   8.0010   8.0545
     8.0624   8.0829   8.0903   8.1227   8.1230   8.1588   8.1870   8.2206
     8.2484   8.3162   8.3339   8.3454   8.3947   8.4411   8.4703   8.5002
     8.5030   8.5368   8.5907   8.6207   8.6641   8.7084   8.7382   8.7448
     8.7870   8.8290   8.8441   8.8559   8.8686   8.9389   8.9963   9.0181
     9.1988   9.7597  10.4458  11.0675  11.0783  11.1310  11.2866  11.4715
    11.7598  11.9020  12.1198  12.5645  12.6019  13.0688  13.5260  13.5832
    13.7576  13.8546  14.0011  14.2975  14.4593  14.6948  14.9757  15.0331
    15.1008  15.4893  15.6631  15.7060  15.9082  16.2716  16.4293  16.5064
    16.7258  17.1792  17.2573  17.5335

          k =-0.2500 0.7217-0.0000 ( 23545 PWs)   bands (ev):

     3.9912   4.1308   4.2571   4.3921   4.4258   4.4431   4.5062   4.5140
     4.5357   4.5882   4.6021   4.6426   4.6904   4.7060   4.7165   4.7740
     4.8356   4.8521   4.8767   4.8926   4.9163   4.9208   4.9308   5.0202
     5.0308   5.0904   5.1071   5.1073   5.1539   5.2241   5.2380   5.2411
     5.3112   5.3232   5.3961   5.4690   5.4938   5.5637   5.6560   5.6838
     5.7984   5.8065   5.8465   5.9312   5.9838   6.0107   6.0225   6.0909
     6.1339   6.2527   6.3028   6.3109   6.3598   6.3749   6.4157   6.4680
     6.5222   6.5343   6.5771   6.5779   6.5974   6.6651   6.7111   6.7265
     6.7856   6.7916   6.8164   6.8786   6.9417   6.9635   7.0327   7.0350
     7.1145   7.1196   7.1826   7.2267   7.2650   7.2839   7.3292   7.3963
     7.4571   7.5086   7.5687   7.5974   7.6482   7.6609   7.7338   7.7533
     7.8718   7.8950   7.8984   7.9399   7.9500   7.9665   8.0528   8.0579
     8.1102   8.1664   8.1680   8.2018   8.2248   8.2528   8.2556   8.3147
     8.3158   8.3441   8.4031   8.4675   8.4719   8.5328   8.5436   8.5525
     8.5698   8.5896   8.6079   8.6312   8.6683   8.6723   8.6803   8.7428
     8.7436   8.7597   8.8406   8.8782   8.8972   8.9074   8.9172   8.9327
     8.9432   9.0183   9.1413   9.2165   9.3138   9.3904   9.4685   9.6923
    10.1102  10.6757  11.3784  11.9235  11.9846  12.0156  12.0338  12.0794
    12.1720  12.2937  12.3854  12.4711  12.6245  12.8469  12.8816  13.0447
    13.3403  13.4647  13.5255  13.8557  14.0746  14.3103  14.5285  14.7594
    15.0645  15.2029  15.2901  15.3942  15.5699  15.6144  15.7845  15.9364
    16.1104  16.2220  16.3765  16.5781

          k =-0.3750 0.1443-0.0000 ( 23495 PWs)   bands (ev):

     2.6149   2.7462   2.9532   3.2279   3.5576   3.7847   3.8977   3.9187
     4.0328   4.1970   4.2774   4.3484   4.4711   4.5589   4.6022   4.7100
     4.7442   4.7505   4.8078   4.8495   4.9337   4.9547   4.9567   4.9908
     5.0598   5.1016   5.1975   5.2713   5.3451   5.4131   5.4327   5.4914
     5.5832   5.6003   5.6698   5.6857   5.7459   5.7936   5.8334   5.8408
     5.8774   5.9133   5.9401   5.9877   6.0197   6.0405   6.0983   6.1047
     6.1377   6.1496   6.1975   6.2330   6.2848   6.2964   6.3876   6.4065
     6.4265   6.4442   6.4631   6.5048   6.5206   6.5361   6.5589   6.5710
     6.6059   6.6335   6.6621   6.6770   6.6899   6.6932   6.7179   6.7392
     6.7843   6.8087   6.8164   6.8510   6.8691   6.9478   6.9516   7.0141
     7.0299   7.0499   7.0660   7.0814   7.1295   7.1440   7.1708   7.2153
     7.2341   7.2824   7.3037   7.3102   7.3607   7.3649   7.3875   7.4090
     7.4223   7.4621   7.4792   7.4905   7.5440   7.5578   7.6123   7.6948
     7.7076   7.7419   7.7439   7.7858   7.7992   7.8328   7.8382   7.9486
     7.9509   7.9739   7.9849   8.0403   8.0900   8.1008   8.1629   8.1910
     8.2403   8.2537   8.2807   8.3076   8.3722   8.3892   8.4554   8.4741
     8.4822   8.5291   8.5449   8.5468   8.5892   8.6284   8.6568   8.6854
     8.7019   8.7207   8.7379   8.7916   8.7996   8.8107   8.9558   9.0952
     9.4089   9.5313   9.9737  10.0412  10.6145  10.7489  11.2870  11.4753
    12.0388  12.4301  12.7825  13.1166  13.6157  14.4758  15.1903  15.4757
    15.7822  15.9407  16.6181  17.1396  17.2836  17.3551  17.4538  17.6351
    17.8755  18.0370  18.2906  18.7491

          k =-0.3750 0.2887-0.0000 ( 23497 PWs)   bands (ev):

     2.9845   3.1204   3.2997   3.5609   3.8556   4.1321   4.1892   4.2643
     4.3372   4.4572   4.5214   4.5486   4.6539   4.7833   4.7857   4.8947
     4.9424   4.9600   5.0410   5.0896   5.1679   5.1822   5.1863   5.2307
     5.2908   5.3160   5.3465   5.3677   5.4237   5.5044   5.5137   5.5698
     5.6049   5.6455   5.6484   5.6837   5.6894   5.7363   5.7416   5.7493
     5.7855   5.7891   5.8611   5.8644   5.8741   5.8972   5.9463   5.9643
     5.9671   5.9849   6.0266   6.0937   6.1095   6.1559   6.2039   6.2594
     6.2613   6.3002   6.3162   6.3381   6.3708   6.4053   6.4270   6.4463
     6.5000   6.5090   6.5549   6.5554   6.5976   6.6064   6.6476   6.7031
     6.7135   6.7346   6.7364   6.7594   6.8174   6.8670   6.8791   6.9562
     6.9568   6.9851   7.0368   7.1148   7.1436   7.1929   7.2507   7.2689
     7.2790   7.3240   7.3486   7.3691   7.3726   7.4229   7.4306   7.4644
     7.4768   7.4940   7.5834   7.5877   7.6078   7.6325   7.6450   7.6593
     7.7094   7.7376   7.7971   7.8315   7.8889   7.9471   7.9556   7.9667
     7.9769   8.0508   8.1046   8.1197   8.1486   8.1536   8.1827   8.2289
     8.2618   8.3154   8.4002   8.4620   8.4709   8.5550   8.6004   8.6154
     8.6332   8.6662   8.6740   8.6982   8.7132   8.7287   8.8299   8.8458
     8.9298   9.0637   9.0980   9.1158   9.1648   9.2701   9.3017   9.4981
     9.8050   9.9114  10.3445  10.4426  11.0573  11.1074  11.7123  11.8291
    12.4490  12.8165  13.1751  13.7548  13.9425  14.7860  15.7651  15.7794
    16.1943  16.2847  16.9323  17.4148  17.4490  17.5102  17.5983  17.7493
    18.0194  18.1384  18.3213  18.6988

          k =-0.3750 0.4330-0.0000 ( 23475 PWs)   bands (ev):

     3.4518   3.5959   3.7263   3.9471   4.1529   4.3845   4.3985   4.4978
     4.5480   4.5953   4.6515   4.7086   4.7277   4.7361   4.8151   4.8335
     4.9389   4.9405   5.0379   5.0750   5.0998   5.1451   5.1698   5.2230
     5.2400   5.2672   5.2883   5.2884   5.3257   5.3517   5.4228   5.4608
     5.5057   5.5744   5.5872   5.6185   5.6686   5.6837   5.7018   5.7794
     5.8059   5.8782   5.8854   5.9291   5.9643   6.0054   6.0209   6.0622
     6.1069   6.1220   6.1662   6.1696   6.2227   6.2449   6.2809   6.2911
     6.3046   6.3439   6.3815   6.3843   6.4102   6.4679   6.5008   6.5294
     6.5905   6.6176   6.6387   6.6405   6.6862   6.6963   6.7246   6.7797
     6.8550   6.8724   6.8777   6.8790   6.9097   6.9394   6.9748   6.9948
     7.0095   7.1148   7.1309   7.1509   7.2065   7.2287   7.3001   7.3352
     7.4020   7.4037   7.4678   7.4893   7.5091   7.5461   7.5676   7.6083
     7.6179   7.6770   7.6773   7.7021   7.7309   7.7834   7.8056   7.8750
     7.8992   7.9200   7.9334   7.9843   7.9865   8.0245   8.1042   8.1233
     8.1575   8.1774   8.2104   8.2562   8.2756   8.3284   8.3440   8.3617
     8.4091   8.4195   8.5080   8.5605   8.5636   8.6830   8.7149   8.7480
     8.7739   8.7800   8.7932   8.8041   8.8267   8.8753   8.9533   8.9639
     9.0929   9.5718   9.5727   9.5891   9.6256   9.7046   9.8611  10.1324
    10.1900  10.5431  10.7883  11.0651  11.6002  11.6733  12.3133  12.3256
    13.0406  13.2740  13.7455  14.4056  14.5841  15.3404  16.2308  16.2783
    16.3876  16.6348  16.7159  16.8786  16.9491  17.0961  17.3943  17.5290
    17.7421  17.7578  17.9858  18.1297

          k =-0.3750 0.5774-0.0000 ( 23521 PWs)   bands (ev):

     3.7783   3.9246   4.0462   4.2356   4.3308   4.3538   4.3610   4.4151
     4.4665   4.4974   4.5627   4.5744   4.6525   4.6638   4.6824   4.7690
     4.7973   4.8129   4.8528   4.8673   4.8984   4.9293   4.9300   4.9895
     5.0156   5.0190   5.0685   5.0923   5.1299   5.1771   5.2115   5.2255
     5.3155   5.3496   5.3512   5.4071   5.5091   5.5298   5.6195   5.7262
     5.7712   5.8825   5.9224   6.0392   6.0696   6.1227   6.1513   6.1521
     6.2183   6.2823   6.3125   6.3674   6.3908   6.4534   6.4746   6.5269
     6.5360   6.5476   6.5639   6.5773   6.6154   6.6228   6.6838   6.7311
     6.7607   6.7785   6.8308   6.8743   6.9132   6.9221   6.9517   7.0123
     7.0215   7.0686   7.0978   7.1575   7.1824   7.2403   7.3192   7.3552
     7.3799   7.4505   7.4527   7.5032   7.5753   7.6479   7.7085   7.7292
     7.7374   7.7896   7.8267   7.8639   7.9190   7.9598   7.9691   8.0060
     8.0192   8.0893   8.0899   8.1127   8.1424   8.1570   8.2019   8.2098
     8.2414   8.2500   8.2615   8.2822   8.3010   8.3167   8.3285   8.3371
     8.3645   8.3983   8.4285   8.4466   8.4659   8.5011   8.5342   8.5607
     8.5917   8.6196   8.6424   8.6858   8.7233   8.7420   8.7527   8.7971
     8.8585   8.8718   8.8766   8.9048   8.9053   8.9531   9.0266   9.0349
     9.3938  10.0099  10.0902  10.1266  10.2303  10.3327  10.5290  10.7384
    10.8239  11.2464  11.4006  11.7793  12.2402  12.4003  12.9422  13.0702
    13.7386  13.8203  14.2905  14.4983  14.6114  14.8174  14.9993  15.2417
    15.2430  15.5889  15.7616  15.8712  16.2130  16.3903  16.5302  16.7007
    16.7249  16.9229  17.2224  17.2333

          k =-0.3750 0.7217-0.0000 ( 23544 PWs)   bands (ev):

     3.9125   4.0423   4.1775   4.1801   4.2009   4.3097   4.3238   4.3738
     4.3919   4.4053   4.4857   4.4979   4.5132   4.5212   4.5725   4.6369
     4.6542   4.6575   4.6859   4.6975   4.6987   4.7159   4.7679   4.8090
     4.8285   4.8668   4.8800   4.9377   4.9792   5.0104   5.0574   5.0769
     5.1633   5.1919   5.2104   5.2539   5.4101   5.4399   5.5943   5.6814
     5.8231   5.8589   5.9662   6.0473   6.0810   6.1092   6.1364   6.1928
     6.2361   6.2813   6.3467   6.3672   6.3977   6.4076   6.4603   6.4632
     6.5037   6.5099   6.5919   6.6905   6.6951   6.7480   6.7497   6.7679
     6.8639   6.8886   6.9558   7.0142   7.0551   7.0977   7.1747   7.1933
     7.2998   7.3240   7.4184   7.4757   7.4814   7.5007   7.6393   7.6622
     7.7164   7.7823   7.8121   7.8944   7.9686   7.9707   8.0287   8.0685
     8.0877   8.2138   8.2685   8.3085   8.3102   8.3410   8.3683   8.3777
     8.4574   8.4657   8.5131   8.5171   8.5389   8.5486   8.5738   8.5807
     8.5899   8.6006   8.6058   8.6261   8.6539   8.6652   8.6659   8.6955
     8.6959   8.7106   8.7258   8.7287   8.7470   8.7521   8.7727   8.7980
     8.8233   8.8708   8.8810   8.8878   8.9441   8.9805   8.9878   8.9885
     9.0373   9.0410   9.0513   9.1357   9.3622   9.5013   9.5851   9.7713
    10.2172  10.8018  10.8305  10.8584  11.0615  11.1833  11.3690  11.5871
    11.5971  11.9062  12.2591  12.2722  12.5419  12.7012  12.7905  13.0051
    13.0507  13.0971  13.7470  13.7760  13.8967  14.2702  14.3519  14.3871
    14.4576  14.5558  14.7228  14.9412  14.9951  15.0653  15.0917  15.3499
    15.5231  15.8836  16.0016  16.3064

     the Fermi energy is    10.7286 ev

!    total energy              =  -20153.49813291 Ry

     total all-electron energy =   -988623.496500 Ry
     estimated scf accuracy    <       0.00000019 Ry
     smearing contrib. (-TS)   =      -0.02240105 Ry
     internal energy E=F+TS    =  -20153.47573186 Ry

     The total energy is F=E-TS. E is the sum of the following terms:
     one-electron contribution =   -8805.07887780 Ry
     hartree contribution      =    4728.03075439 Ry
     xc contribution           =    -833.63149804 Ry
     ewald contribution        =    2762.55021339 Ry
     one-center paw contrib.   =  -18005.34632380 Ry

     convergence has been achieved in  32 iterations

     negative rho (up, down):  2.351E-03 0.000E+00

     Forces acting on atoms (cartesian axes, Ry/au):

     atom    1 type  1   force =    -0.00007041   -0.00000501   -0.00311116
     atom    2 type  1   force =     0.00004557    0.00004565    0.00333704
     atom    3 type  1   force =     0.00008217    0.00005725    0.00077667
     atom    4 type  1   force =     0.01802826    0.01061808   -0.04266322
     atom    5 type  1   force =    -0.00002190   -0.00002074   -0.00005143
     atom    6 type  1   force =     0.00009174   -0.00000723    0.00484787
     atom    7 type  1   force =    -0.00005058    0.00001225    0.00102880
     atom    8 type  1   force =    -0.01799291   -0.01060650    0.04229076
     atom    9 type  1   force =    -0.00001687   -0.00001711   -0.00043507
     atom   10 type  1   force =     0.00002558   -0.00000322   -0.00094648
     atom   11 type  1   force =    -0.00010283    0.00006248   -0.00470893
     atom   12 type  1   force =    -0.00019357    0.00082494    0.00194027
     atom   13 type  1   force =     0.00016671   -0.00078182   -0.00230373
     atom   14 type  1   force =     0.00008784   -0.00000726    0.00485043
     atom   15 type  1   force =    -0.00004361   -0.00004327    0.00103272
     atom   16 type  1   force =    -0.01799605   -0.01066830    0.04228545
     atom   17 type  1   force =    -0.00001586   -0.00001566   -0.00042981
     atom   18 type  1   force =     0.00002738   -0.00000852   -0.00094872
     atom   19 type  1   force =    -0.00010967    0.00000076   -0.00470990
     atom   20 type  1   force =    -0.00019382    0.00076244    0.00193926
     atom   21 type  1   force =     0.00017349   -0.00077875   -0.00230080
     atom   22 type  1   force =    -0.00006643   -0.00001166   -0.00309372
     atom   23 type  1   force =     0.00004732   -0.00001130    0.00333255
     atom   24 type  1   force =     0.00008225   -0.00000140    0.00076586
     atom   25 type  1   force =     0.01803577    0.01062252   -0.04267591
     atom   26 type  1   force =    -0.00001957   -0.00001865   -0.00004879

     Total force =     0.095535     Total SCF correction =     0.002646

     Writing all to output data dir ./pwscf.save/
 
     init_run     :     27.82s CPU     28.35s WALL (       1 calls)
     electrons    :   2256.70s CPU   2278.50s WALL (       1 calls)
     forces       :      8.31s CPU      8.38s WALL (       1 calls)

     Called by init_run:
     wfcinit      :     27.20s CPU     27.64s WALL (       1 calls)
     potinit      :      0.34s CPU      0.39s WALL (       1 calls)
     hinit0       :      0.19s CPU      0.22s WALL (       1 calls)

     Called by electrons:
     c_bands      :   2053.08s CPU   2072.48s WALL (      33 calls)
     sum_band     :    193.79s CPU    195.39s WALL (      33 calls)
     v_of_rho     :      0.77s CPU      1.05s WALL (      33 calls)
     newd         :      1.74s CPU      1.95s WALL (      33 calls)
     PAW_pot      :      7.48s CPU      7.52s WALL (      33 calls)
     mix_rho      :      0.12s CPU      0.13s WALL (      33 calls)

     Called by c_bands:
     init_us_2    :      5.10s CPU      5.20s WALL (    3400 calls)
     init_us_2:cp :      5.09s CPU      5.19s WALL (    3400 calls)
     cegterg      :   1978.92s CPU   1997.34s WALL (    1650 calls)

     Called by *egterg:
     cdiaghg      :    221.24s CPU    224.59s WALL (    9517 calls)
     h_psi        :   1179.44s CPU   1189.28s WALL (    9617 calls)
     s_psi        :    121.40s CPU    122.07s WALL (    9617 calls)
     g_psi        :      2.44s CPU      2.46s WALL (    7917 calls)

     Called by h_psi:
     h_psi:calbec :    158.77s CPU    159.46s WALL (    9617 calls)
     vloc_psi     :    893.36s CPU    899.57s WALL (    9617 calls)
     add_vuspsi   :    125.77s CPU    126.23s WALL (    9617 calls)

     General routines
     calbec       :    224.40s CPU    225.35s WALL (   11467 calls)
     fft          :      0.93s CPU      1.29s WALL (     375 calls)
     ffts         :      0.04s CPU      0.06s WALL (      33 calls)
     fftw         :    989.53s CPU    996.45s WALL ( 1694026 calls)
 
     Parallel routines
 
     PWSCF        :  38m21.01s CPU  39m11.15s WALL

 
   This run was terminated on:   0: 0:45  16Feb2024            

=------------------------------------------------------------------------------=
   JOB DONE.
=------------------------------------------------------------------------------=
