MPI startup(): Warning: I_MPI_PMI_LIBRARY will be ignored since the hydra process manager was found
MPI startup(): Warning: I_MPI_PMI_LIBRARY will be ignored since the hydra process manager was found
MPI startup(): Warning: I_MPI_PMI_LIBRARY will be ignored since the hydra process manager was found
MPI startup(): Warning: I_MPI_PMI_LIBRARY will be ignored since the hydra process manager was found
MPI startup(): Warning: I_MPI_PMI_LIBRARY will be ignored since the hydra process manager was found
MPI startup(): Warning: I_MPI_PMI_LIBRARY will be ignored since the hydra process manager was found
MPI startup(): Warning: I_MPI_PMI_LIBRARY will be ignored since the hydra process manager was found
MPI startup(): Warning: I_MPI_PMI_LIBRARY will be ignored since the hydra process manager was found
MPI startup(): Warning: I_MPI_PMI_LIBRARY will be ignored since the hydra process manager was found
MPI startup(): Warning: I_MPI_PMI_LIBRARY will be ignored since the hydra process manager was found

     Program PWSCF v.7.0 starts on 15Feb2024 at 19:50:54 

     This program is part of the open-source Quantum ESPRESSO suite
     for quantum simulation of materials; please cite
         "P. Giannozzi et al., J. Phys.:Condens. Matter 21 395502 (2009);
         "P. Giannozzi et al., J. Phys.:Condens. Matter 29 465901 (2017);
         "P. Giannozzi et al., J. Chem. Phys. 152 154105 (2020);
          URL http://www.quantum-espresso.org", 
     in publications or presentations arising from this work. More details at
     http://www.quantum-espresso.org/quote

     Parallel version (MPI), running on    10 processors

     MPI processes distributed on     1 nodes
     R & G space division:  proc/nbgrp/npool/nimage =      10
     174311 MiB available memory on the printing compute node when the environment starts
 
     Reading input from GSF111_0.05.in
Warning: card &CELL ignored
Warning: card / ignored

     Current dimensions of program PWSCF are:
     Max number of different atomic species (ntypx) = 10
     Max number of k-points (npk) =  40000
     Max angular momentum in pseudopotentials (lmaxx) =  4

     File ./pwscf.bfgs deleted, as requested
     file Au.pbe-n-kjpaw_psl.1.0.0.UPF: wavefunction(s)  6S 5D renormalized
     Found identity + ( -0.5000  0.5000  0.0000) symmetry
     This is a supercell, fractional translations are disabled

     Subspace diagonalization in iterative solution of the eigenvalue problem:
     one sub-group per band group will be used
     scalapack distributed-memory algorithm (size of sub-group:  3*  3 procs)

 
     Parallelization info
     --------------------
     sticks:   dense  smooth     PW     G-vecs:    dense   smooth      PW
     Min          85      85     25                18799    18799    3045
     Max          87      87     26                18816    18816    3065
     Sum         859     859    251               188065   188065   30575
 
     Using Slab Decomposition
 


     bravais-lattice index     =            0
     lattice parameter (alat)  =       9.6360  a.u.
     unit-cell volume          =    3935.2145 (a.u.)^3
     number of atoms/cell      =           26
     number of atomic types    =            1
     number of electrons       =       286.00
     number of Kohn-Sham states=          172
     kinetic-energy cutoff     =      50.0000  Ry
     charge density cutoff     =     200.0000  Ry
     scf convergence threshold =      1.0E-06
     mixing beta               =       0.7000
     number of iterations used =            8  plain     mixing
     Exchange-correlation= SLA  PW   PBX  PBC
                           (   1   4   3   4   0   0   0)

     celldm(1)=   9.635999  celldm(2)=   0.000000  celldm(3)=   0.000000
     celldm(4)=   0.000000  celldm(5)=   0.000000  celldm(6)=   0.000000

     crystal axes: (cart. coord. in units of alat)
               a(1) = (   1.000000   0.000000   0.000000 )  
               a(2) = (   0.000000   0.577350   0.000000 )  
               a(3) = (  -0.000005   0.000000   7.617966 )  

     reciprocal axes: (cart. coord. in units 2 pi/alat)
               b(1) = (  1.000000  0.000000  0.000001 )  
               b(2) = (  0.000000  1.732052  0.000000 )  
               b(3) = (  0.000000  0.000000  0.131269 )  


     PseudoPot. # 1 for Au read from file:
     ./Au.pbe-n-kjpaw_psl.1.0.0.UPF
     MD5 check sum: 4db85c736373c707a97ce4c36c2a9d23
     Pseudo is Projector augmented-wave + core cor, Zval = 11.0
     Generated using &quot;atomic&quot; code by A. Dal Corso  v.6.3
     Shape of augmentation charge: PSQ
     Using radial grid of 1279 points,  6 beta functions with: 
                l(1) =   0
                l(2) =   0
                l(3) =   1
                l(4) =   1
                l(5) =   2
                l(6) =   2
     Q(r) pseudized with 0 coefficients 


     atomic species   valence    mass     pseudopotential
        Au            11.00   196.96657     Au( 1.00)

     No symmetry found



   Cartesian axes

     site n.     atom                  positions (alat units)
         1           Au  tau(   1) = (   0.0000000   0.0000000   0.0000000  )
         2           Au  tau(   2) = (   0.9999954   0.0288675   5.6568550  )
         3           Au  tau(   3) = (   0.9999966   0.0288675   4.2426411  )
         4           Au  tau(   4) = (   0.9999976   0.0000000   2.8284275  )
         5           Au  tau(   5) = (   0.9999988   0.0000000   1.4142138  )
         6           Au  tau(   6) = (   0.3333329   0.0000000   0.4714045  )
         7           Au  tau(   7) = (   0.3333296   0.0288675   4.7140455  )
         8           Au  tau(   8) = (   0.3333308   0.0288675   3.2998319  )
         9           Au  tau(   9) = (   0.3333318   0.0000000   1.8856185  )
        10           Au  tau(  10) = (   0.6666659   0.0000000   0.9428093  )
        11           Au  tau(  11) = (   0.6666625   0.0288675   5.1854506  )
        12           Au  tau(  12) = (   0.6666637   0.0288675   3.7712367  )
        13           Au  tau(  13) = (   0.6666649   0.0000000   2.3570234  )
        14           Au  tau(  14) = (   0.8333330   0.2886749   0.4714045  )
        15           Au  tau(  15) = (   0.8333294   0.3175425   4.7140455  )
        16           Au  tau(  16) = (   0.8333306   0.3175425   3.2998319  )
        17           Au  tau(  17) = (   0.8333318   0.2886749   1.8856185  )
        18           Au  tau(  18) = (   0.1666658   0.2886749   0.9428093  )
        19           Au  tau(  19) = (   0.1666624   0.3175425   5.1854506  )
        20           Au  tau(  20) = (   0.1666636   0.3175425   3.7712367  )
        21           Au  tau(  21) = (   0.1666648   0.2886749   2.3570234  )
        22           Au  tau(  22) = (   0.5000001   0.2886749   0.0000000  )
        23           Au  tau(  23) = (   0.4999955   0.3175425   5.6568550  )
        24           Au  tau(  24) = (   0.4999965   0.3175425   4.2426411  )
        25           Au  tau(  25) = (   0.4999977   0.2886749   2.8284275  )
        26           Au  tau(  26) = (   0.4999989   0.2886749   1.4142138  )

     number of k points=    50  Gaussian smearing, width (Ry)=  0.0200
                       cart. coord. in units 2pi/alat
        k(    1) = (   0.0000000   0.0000000   0.0000000), wk =   0.0208333
        k(    2) = (   0.0000000   0.1443376   0.0000000), wk =   0.0416667
        k(    3) = (   0.0000000   0.2886753   0.0000000), wk =   0.0416667
        k(    4) = (   0.0000000   0.4330129   0.0000000), wk =   0.0416667
        k(    5) = (   0.0000000   0.5773506   0.0000000), wk =   0.0416667
        k(    6) = (   0.0000000   0.7216882   0.0000000), wk =   0.0416667
        k(    7) = (   0.0000000  -0.8660259   0.0000000), wk =   0.0208333
        k(    8) = (   0.1250000   0.0000000   0.0000001), wk =   0.0416667
        k(    9) = (   0.1250000   0.1443376   0.0000001), wk =   0.0416667
        k(   10) = (   0.1250000   0.2886753   0.0000001), wk =   0.0416667
        k(   11) = (   0.1250000   0.4330129   0.0000001), wk =   0.0416667
        k(   12) = (   0.1250000   0.5773506   0.0000001), wk =   0.0416667
        k(   13) = (   0.1250000   0.7216882   0.0000001), wk =   0.0416667
        k(   14) = (   0.1250000  -0.8660259   0.0000001), wk =   0.0416667
        k(   15) = (   0.2500000   0.0000000   0.0000002), wk =   0.0416667
        k(   16) = (   0.2500000   0.1443376   0.0000002), wk =   0.0416667
        k(   17) = (   0.2500000   0.2886753   0.0000002), wk =   0.0416667
        k(   18) = (   0.2500000   0.4330129   0.0000002), wk =   0.0416667
        k(   19) = (   0.2500000   0.5773506   0.0000002), wk =   0.0416667
        k(   20) = (   0.2500000   0.7216882   0.0000002), wk =   0.0416667
        k(   21) = (   0.2500000  -0.8660259   0.0000002), wk =   0.0416667
        k(   22) = (   0.3750000   0.0000000   0.0000002), wk =   0.0416667
        k(   23) = (   0.3750000   0.1443376   0.0000002), wk =   0.0416667
        k(   24) = (   0.3750000   0.2886753   0.0000002), wk =   0.0416667
        k(   25) = (   0.3750000   0.4330129   0.0000002), wk =   0.0416667
        k(   26) = (   0.3750000   0.5773506   0.0000002), wk =   0.0416667
        k(   27) = (   0.3750000   0.7216882   0.0000002), wk =   0.0416667
        k(   28) = (   0.3750000  -0.8660259   0.0000002), wk =   0.0416667
        k(   29) = (  -0.5000000   0.0000000  -0.0000003), wk =   0.0208333
        k(   30) = (  -0.5000000   0.1443376  -0.0000003), wk =   0.0416667
        k(   31) = (  -0.5000000   0.2886753  -0.0000003), wk =   0.0416667
        k(   32) = (  -0.5000000   0.4330129  -0.0000003), wk =   0.0416667
        k(   33) = (  -0.5000000   0.5773506  -0.0000003), wk =   0.0416667
        k(   34) = (  -0.5000000   0.7216882  -0.0000003), wk =   0.0416667
        k(   35) = (  -0.5000000  -0.8660259  -0.0000003), wk =   0.0208333
        k(   36) = (  -0.1250000   0.1443376  -0.0000001), wk =   0.0416667
        k(   37) = (  -0.1250000   0.2886753  -0.0000001), wk =   0.0416667
        k(   38) = (  -0.1250000   0.4330129  -0.0000001), wk =   0.0416667
        k(   39) = (  -0.1250000   0.5773506  -0.0000001), wk =   0.0416667
        k(   40) = (  -0.1250000   0.7216882  -0.0000001), wk =   0.0416667
        k(   41) = (  -0.2500000   0.1443376  -0.0000002), wk =   0.0416667
        k(   42) = (  -0.2500000   0.2886753  -0.0000002), wk =   0.0416667
        k(   43) = (  -0.2500000   0.4330129  -0.0000002), wk =   0.0416667
        k(   44) = (  -0.2500000   0.5773506  -0.0000002), wk =   0.0416667
        k(   45) = (  -0.2500000   0.7216882  -0.0000002), wk =   0.0416667
        k(   46) = (  -0.3750000   0.1443376  -0.0000002), wk =   0.0416667
        k(   47) = (  -0.3750000   0.2886753  -0.0000002), wk =   0.0416667
        k(   48) = (  -0.3750000   0.4330129  -0.0000002), wk =   0.0416667
        k(   49) = (  -0.3750000   0.5773506  -0.0000002), wk =   0.0416667
        k(   50) = (  -0.3750000   0.7216882  -0.0000002), wk =   0.0416667

     Dense  grid:   188065 G-vectors     FFT dimensions: (  45,  25, 360)

     Estimated max dynamical RAM per process >     418.32 MB

     Estimated total dynamical RAM >       4.09 GB

     Initial potential from superposition of free atoms

     starting charge     285.9971, renormalised to     286.0000

     negative rho (up, down):  2.612E-03 0.000E+00
     Starting wfcs are  234 randomized atomic wfcs
     Checking if some PAW data can be deallocated... 

     total cpu time spent up to now is       26.9 secs

     Self-consistent Calculation

     iteration #  1     ecut=    50.00 Ry     beta= 0.70
     Davidson diagonalization with overlap
     ethr =  1.00E-02,  avg # of iterations =  4.9

     Threshold (ethr) on eigenvalues was too large:
     Diagonalizing with lowered threshold

     Davidson diagonalization with overlap
     ethr =  4.16E-04,  avg # of iterations =  4.8

     negative rho (up, down):  1.794E-03 0.000E+00

     total cpu time spent up to now is      172.2 secs

     total energy              =  -20152.79286309 Ry
     estimated scf accuracy    <       1.50663781 Ry

     iteration #  2     ecut=    50.00 Ry     beta= 0.70
     Davidson diagonalization with overlap
     c_bands:  5 eigenvalues not converged
     c_bands:  1 eigenvalues not converged
     c_bands:  1 eigenvalues not converged
     c_bands:  5 eigenvalues not converged
     c_bands:  3 eigenvalues not converged
     ethr =  5.27E-04,  avg # of iterations = 16.8

     negative rho (up, down):  1.794E-03 0.000E+00

     total cpu time spent up to now is      326.2 secs

     total energy              =  -20129.85419593 Ry
     estimated scf accuracy    <    3263.65171079 Ry

     iteration #  3     ecut=    50.00 Ry     beta= 0.70
     Davidson diagonalization with overlap
     ethr =  5.27E-04,  avg # of iterations = 11.2

     negative rho (up, down):  2.027E-03 0.000E+00

     total cpu time spent up to now is      443.2 secs

     total energy              =  -20152.52795209 Ry
     estimated scf accuracy    <       3.75044149 Ry

     iteration #  4     ecut=    50.00 Ry     beta= 0.70
     Davidson diagonalization with overlap
     ethr =  5.27E-04,  avg # of iterations = 10.6

     negative rho (up, down):  2.075E-03 0.000E+00

     total cpu time spent up to now is      536.3 secs

     total energy              =  -20149.25439759 Ry
     estimated scf accuracy    <     167.25792788 Ry

     iteration #  5     ecut=    50.00 Ry     beta= 0.70
     Davidson diagonalization with overlap
     ethr =  5.27E-04,  avg # of iterations = 10.7

     negative rho (up, down):  2.072E-03 0.000E+00

     total cpu time spent up to now is      638.2 secs

     total energy              =  -20147.28226353 Ry
     estimated scf accuracy    <     934.65421590 Ry

     iteration #  6     ecut=    50.00 Ry     beta= 0.70
     Davidson diagonalization with overlap
     ethr =  5.27E-04,  avg # of iterations = 10.7

     negative rho (up, down):  2.046E-03 0.000E+00

     total cpu time spent up to now is      713.9 secs

     total energy              =  -20153.41153574 Ry
     estimated scf accuracy    <       1.59156483 Ry

     iteration #  7     ecut=    50.00 Ry     beta= 0.70
     Davidson diagonalization with overlap
     ethr =  5.27E-04,  avg # of iterations =  2.0

     negative rho (up, down):  2.068E-03 0.000E+00

     total cpu time spent up to now is      768.1 secs

     total energy              =  -20153.48138477 Ry
     estimated scf accuracy    <       0.91289920 Ry

     iteration #  8     ecut=    50.00 Ry     beta= 0.70
     Davidson diagonalization with overlap
     ethr =  3.19E-04,  avg # of iterations =  1.8

     negative rho (up, down):  2.103E-03 0.000E+00

     total cpu time spent up to now is      820.9 secs

     total energy              =  -20153.49731195 Ry
     estimated scf accuracy    <       0.70895027 Ry

     iteration #  9     ecut=    50.00 Ry     beta= 0.70
     Davidson diagonalization with overlap
     ethr =  2.48E-04,  avg # of iterations =  1.5

     negative rho (up, down):  2.200E-03 0.000E+00

     total cpu time spent up to now is      869.4 secs

     total energy              =  -20153.50836508 Ry
     estimated scf accuracy    <       0.43504872 Ry

     iteration # 10     ecut=    50.00 Ry     beta= 0.70
     Davidson diagonalization with overlap
     ethr =  1.52E-04,  avg # of iterations =  1.7

     negative rho (up, down):  2.351E-03 0.000E+00

     total cpu time spent up to now is      915.6 secs

     total energy              =  -20153.52062216 Ry
     estimated scf accuracy    <       0.05707736 Ry

     iteration # 11     ecut=    50.00 Ry     beta= 0.70
     Davidson diagonalization with overlap
     c_bands:  1 eigenvalues not converged
     c_bands:  1 eigenvalues not converged
     ethr =  2.00E-05,  avg # of iterations = 10.6

     negative rho (up, down):  2.425E-03 0.000E+00

     total cpu time spent up to now is      982.1 secs

     total energy              =  -20153.52272993 Ry
     estimated scf accuracy    <       0.01399159 Ry

     iteration # 12     ecut=    50.00 Ry     beta= 0.70
     Davidson diagonalization with overlap
     c_bands:  1 eigenvalues not converged
     c_bands:  1 eigenvalues not converged
     ethr =  4.89E-06,  avg # of iterations = 11.0

     negative rho (up, down):  2.393E-03 0.000E+00

     total cpu time spent up to now is     1058.7 secs

     total energy              =  -20153.51854103 Ry
     estimated scf accuracy    <       0.28369109 Ry

     iteration # 13     ecut=    50.00 Ry     beta= 0.70
     Davidson diagonalization with overlap
     ethr =  4.89E-06,  avg # of iterations =  9.2

     negative rho (up, down):  2.453E-03 0.000E+00

     total cpu time spent up to now is     1125.2 secs

     total energy              =  -20153.52425405 Ry
     estimated scf accuracy    <       0.02674965 Ry

     iteration # 14     ecut=    50.00 Ry     beta= 0.70
     Davidson diagonalization with overlap
     ethr =  4.89E-06,  avg # of iterations =  2.7

     negative rho (up, down):  2.430E-03 0.000E+00

     total cpu time spent up to now is     1179.7 secs

     total energy              =  -20153.52463048 Ry
     estimated scf accuracy    <       0.02005380 Ry

     iteration # 15     ecut=    50.00 Ry     beta= 0.70
     Davidson diagonalization with overlap
     c_bands:  1 eigenvalues not converged
     ethr =  4.89E-06,  avg # of iterations = 11.3

     negative rho (up, down):  2.434E-03 0.000E+00

     total cpu time spent up to now is     1243.2 secs

     total energy              =  -20153.52027003 Ry
     estimated scf accuracy    <       0.52536053 Ry

     iteration # 16     ecut=    50.00 Ry     beta= 0.70
     Davidson diagonalization with overlap
     c_bands:  1 eigenvalues not converged
     ethr =  4.89E-06,  avg # of iterations = 11.2

     negative rho (up, down):  2.441E-03 0.000E+00

     total cpu time spent up to now is     1308.7 secs

     total energy              =  -20153.52545932 Ry
     estimated scf accuracy    <       0.00166204 Ry

     iteration # 17     ecut=    50.00 Ry     beta= 0.70
     Davidson diagonalization with overlap
     ethr =  5.81E-07,  avg # of iterations =  2.0

     negative rho (up, down):  2.443E-03 0.000E+00

     total cpu time spent up to now is     1359.7 secs

     total energy              =  -20153.52555149 Ry
     estimated scf accuracy    <       0.00005266 Ry

     iteration # 18     ecut=    50.00 Ry     beta= 0.70
     Davidson diagonalization with overlap
     ethr =  1.84E-08,  avg # of iterations =  6.3

     negative rho (up, down):  2.443E-03 0.000E+00

     total cpu time spent up to now is     1473.8 secs

     total energy              =  -20153.52559140 Ry
     estimated scf accuracy    <       0.00006301 Ry

     iteration # 19     ecut=    50.00 Ry     beta= 0.70
     Davidson diagonalization with overlap
     ethr =  1.84E-08,  avg # of iterations =  1.5

     negative rho (up, down):  2.447E-03 0.000E+00

     total cpu time spent up to now is     1522.6 secs

     total energy              =  -20153.52557154 Ry
     estimated scf accuracy    <       0.00036918 Ry

     iteration # 20     ecut=    50.00 Ry     beta= 0.70
     Davidson diagonalization with overlap
     ethr =  1.84E-08,  avg # of iterations =  2.0

     negative rho (up, down):  2.449E-03 0.000E+00

     total cpu time spent up to now is     1577.4 secs

     total energy              =  -20153.52556675 Ry
     estimated scf accuracy    <       0.00017221 Ry

     iteration # 21     ecut=    50.00 Ry     beta= 0.70
     Davidson diagonalization with overlap
     ethr =  1.84E-08,  avg # of iterations =  2.0

     negative rho (up, down):  2.451E-03 0.000E+00

     total cpu time spent up to now is     1633.0 secs

     total energy              =  -20153.52558172 Ry
     estimated scf accuracy    <       0.00009449 Ry

     iteration # 22     ecut=    50.00 Ry     beta= 0.70
     Davidson diagonalization with overlap
     ethr =  1.84E-08,  avg # of iterations =  1.7

     negative rho (up, down):  2.451E-03 0.000E+00

     total cpu time spent up to now is     1682.9 secs

     total energy              =  -20153.52558694 Ry
     estimated scf accuracy    <       0.00000699 Ry

     iteration # 23     ecut=    50.00 Ry     beta= 0.70
     Davidson diagonalization with overlap
     ethr =  2.44E-09,  avg # of iterations =  2.0

     negative rho (up, down):  2.451E-03 0.000E+00

     total cpu time spent up to now is     1739.8 secs

     total energy              =  -20153.52558400 Ry
     estimated scf accuracy    <       0.00015910 Ry

     iteration # 24     ecut=    50.00 Ry     beta= 0.70
     Davidson diagonalization with overlap
     ethr =  2.44E-09,  avg # of iterations =  2.1

     negative rho (up, down):  2.451E-03 0.000E+00

     total cpu time spent up to now is     1798.5 secs

     total energy              =  -20153.52558164 Ry
     estimated scf accuracy    <       0.00014924 Ry

     iteration # 25     ecut=    50.00 Ry     beta= 0.70
     Davidson diagonalization with overlap
     ethr =  2.44E-09,  avg # of iterations =  2.0

     negative rho (up, down):  2.451E-03 0.000E+00

     total cpu time spent up to now is     1852.5 secs

     total energy              =  -20153.52558758 Ry
     estimated scf accuracy    <       0.00002697 Ry

     iteration # 26     ecut=    50.00 Ry     beta= 0.70
     Davidson diagonalization with overlap
     ethr =  2.44E-09,  avg # of iterations =  1.1

     negative rho (up, down):  2.451E-03 0.000E+00

     total cpu time spent up to now is     1899.8 secs

     total energy              =  -20153.52558615 Ry
     estimated scf accuracy    <       0.00024797 Ry

     iteration # 27     ecut=    50.00 Ry     beta= 0.70
     Davidson diagonalization with overlap
     ethr =  2.44E-09,  avg # of iterations =  1.0

     negative rho (up, down):  2.451E-03 0.000E+00

     total cpu time spent up to now is     1946.5 secs

     total energy              =  -20153.52558846 Ry
     estimated scf accuracy    <       0.00000121 Ry

     iteration # 28     ecut=    50.00 Ry     beta= 0.70
     Davidson diagonalization with overlap
     ethr =  4.23E-10,  avg # of iterations =  1.9

     negative rho (up, down):  2.451E-03 0.000E+00

     total cpu time spent up to now is     1997.1 secs

     End of self-consistent calculation

          k = 0.0000 0.0000 0.0000 ( 23605 PWs)   bands (ev):

     1.5070   1.6515   1.8831   2.1892   2.5511   2.9426   3.3191   3.6221
     3.8118   3.8960   3.9199   3.9586   4.0668   4.0727   4.0728   4.2073
     4.2314   4.2877   4.4048   4.4276   4.4930   4.5341   4.5671   4.6023
     4.6604   4.6990   4.7023   4.8769   4.9809   5.0022   5.1567   5.4391
     5.7290   5.9387   6.0435   6.1349   6.1608   6.1611   6.2176   6.2429
     6.2511   6.2913   6.3108   6.3177   6.3184   6.3201   6.3493   6.3517
     6.3543   6.3582   6.3687   6.3821   6.4044   6.4060   6.4105   6.4122
     6.4278   6.4678   6.4711   6.4806   6.4822   6.4978   6.5332   6.5363
     6.5512   6.5529   6.5803   6.5820   6.5843   6.5962   6.6071   6.7314
     6.7390   6.7498   6.7956   6.8712   6.8717   6.8720   6.8725   7.0028
     7.0625   7.1340   7.1656   7.2636   7.4840   7.5519   7.5735   7.5889
     7.6578   7.6773   7.6875   7.6925   7.7054   7.7110   7.7300   7.7638
     7.7836   7.7943   7.8439   7.8609   7.8672   7.9505   7.9946   8.0007
     8.0424   8.1225   8.1644   8.1692   8.3291   8.3582   8.3790   8.3882
     8.4836   8.5178   8.5207   8.5621   8.5741   8.6386   8.6841   8.6953
     8.7015   8.7380   8.7587   8.7591   8.7803   8.7951   8.8037   8.8057
     8.8189   8.8360   8.8383   8.8593   8.8812   8.9065   8.9381   8.9715
     9.0184   9.0255   9.0692   9.2215   9.2220   9.4029  10.2035  10.5080
    10.5604  10.6297  10.9314  11.2415  11.4686  11.6241  11.7278  11.7989
    11.8505  11.8883  11.9166  12.1225  12.1227  13.5583  13.7341  13.9323
    14.0011  14.2905  14.5552  14.8648  14.8879  15.0527  15.3527  15.8988
    16.1899  16.3704  16.4551  16.4704

          k = 0.0000 0.1443 0.0000 ( 23551 PWs)   bands (ev):

     1.6596   1.8029   2.0327   2.3367   2.6969   3.0876   3.4643   3.7664
     3.9507   4.0274   4.0465   4.0829   4.1897   4.2083   4.2085   4.3031
     4.3533   4.3899   4.5177   4.5532   4.5785   4.6442   4.6617   4.7381
     4.7662   4.8000   4.8480   4.9367   5.1001   5.1269   5.2138   5.4713
     5.7322   5.8912   5.9838   6.0181   6.0520   6.0965   6.1325   6.1455
     6.1647   6.2243   6.2284   6.2443   6.2664   6.2819   6.3346   6.3451
     6.3811   6.3905   6.4071   6.4144   6.4204   6.4237   6.4483   6.4672
     6.4713   6.4790   6.4871   6.5036   6.5431   6.5480   6.5580   6.5662
     6.5814   6.5968   6.6147   6.6261   6.6328   6.6355   6.6542   6.6663
     6.6817   6.6863   6.7904   6.8027   6.8402   6.8534   6.9472   6.9561
     6.9680   6.9681   7.1371   7.2375   7.3383   7.3500   7.4305   7.4716
     7.5071   7.5761   7.5792   7.5918   7.6407   7.6863   7.7336   7.7373
     7.7580   7.7694   7.7727   7.8027   7.8259   7.9142   7.9152   7.9257
     8.0530   8.0673   8.0763   8.0961   8.1267   8.2023   8.2565   8.2697
     8.3806   8.3855   8.4310   8.4749   8.4753   8.5066   8.5278   8.5802
     8.6084   8.6335   8.6376   8.6707   8.7028   8.7078   8.7345   8.7373
     8.7509   8.7663   8.7779   8.8021   8.8410   8.8697   8.8864   8.9319
     8.9409   9.0134   9.0583   9.0719   9.3896  10.0482  10.8486  10.9158
    11.0673  11.1085  11.3112  11.5190  11.6771  11.7985  11.9005  11.9999
    12.1097  12.2368  12.3764  12.5064  12.5343  13.5629  13.7742  13.9632
    14.0779  14.3843  14.6606  14.9270  15.0229  15.1621  15.5144  16.0635
    16.0918  16.4587  16.5375  16.5581

          k = 0.0000 0.2887 0.0000 ( 23495 PWs)   bands (ev):

     2.1024   2.2406   2.4624   2.7568   3.1074   3.4916   3.8662   4.1647
     4.3322   4.3875   4.3945   4.4226   4.5167   4.5190   4.5818   4.5822
     4.6118   4.6681   4.7602   4.8650   4.8703   4.9251   4.9457   5.0199
     5.0861   5.1332   5.1484   5.2422   5.3213   5.4082   5.4803   5.6050
     5.7323   5.7615   5.7846   5.8093   5.8613   5.9043   5.9154   5.9511
     6.0012   6.0247   6.0295   6.0406   6.0570   6.0887   6.1335   6.1588
     6.1659   6.2096   6.2683   6.2819   6.3751   6.4034   6.4483   6.4856
     6.5363   6.5418   6.5673   6.6020   6.6185   6.6245   6.6524   6.6586
     6.6740   6.6848   6.6923   6.7010   6.7091   6.7230   6.7596   6.7726
     6.8132   6.8148   6.8243   6.8396   6.8578   6.9077   6.9231   6.9538
     6.9715   6.9740   7.0420   7.0916   7.1120   7.1968   7.2098   7.2241
     7.2895   7.3252   7.3573   7.3737   7.3783   7.4042   7.4567   7.4672
     7.5229   7.5497   7.6052   7.6766   7.7088   7.7712   7.7857   7.8009
     7.8529   7.9012   7.9268   7.9512   7.9538   7.9631   8.0306   8.0664
     8.1347   8.1751   8.2168   8.2539   8.3043   8.3222   8.3474   8.4427
     8.5060   8.5148   8.5171   8.5527   8.5760   8.6093   8.6145   8.6634
     8.6871   8.7103   8.7163   8.7313   8.7824   8.7859   8.8788   8.9266
     8.9450   8.9663   9.1265   9.5755  10.1661  10.8948  11.7408  11.9629
    11.9707  11.9937  12.0421  12.1190  12.1550  12.2226  12.3555  12.5208
    12.7195  12.9392  13.1629  13.3808  13.6157  13.6508  14.0114  14.1083
    14.3962  14.7084  14.9784  15.1461  15.4277  15.4929  15.6593  16.0432
    16.1713  16.6764  16.7393  16.7496

          k = 0.0000 0.4330 0.0000 ( 23423 PWs)   bands (ev):

     2.7867   2.9111   3.1099   3.3745   3.6910   4.0435   4.3996   4.6943
     4.7673   4.8422   4.8580   4.8727   4.8748   4.8769   4.9230   4.9924
     5.0033   5.0734   5.0744   5.1067   5.1829   5.2495   5.3273   5.3675
     5.3716   5.4042   5.4352   5.5068   5.5507   5.5601   5.5682   5.6027
     5.6619   5.6893   5.6931   5.7613   5.7681   5.7866   5.7942   5.7966
     5.8083   5.8214   5.8223   5.8316   5.8711   5.9085   5.9172   5.9288
     5.9635   6.0624   6.0683   6.0775   6.0867   6.1969   6.2851   6.3065
     6.3199   6.3411   6.4483   6.4818   6.5373   6.5535   6.5610   6.6271
     6.6481   6.6559   6.6854   6.6943   6.7140   6.7466   6.7535   6.7569
     6.7604   6.7647   6.8186   6.8848   6.8882   6.9703   6.9947   7.0776
     7.1147   7.1243   7.1550   7.1806   7.1853   7.2602   7.2747   7.3266
     7.3488   7.3766   7.3856   7.3981   7.4050   7.4092   7.4272   7.4468
     7.4973   7.5010   7.5192   7.5476   7.5639   7.6159   7.6220   7.6899
     7.7525   7.8190   7.8225   7.8426   7.8981   7.9054   7.9849   8.0020
     8.0113   8.0474   8.0843   8.1542   8.1592   8.2894   8.3814   8.3887
     8.4087   8.4444   8.5133   8.5208   8.5316   8.5572   8.6110   8.6394
     8.6573   8.6576   8.6789   8.7187   8.7568   8.7890   8.8145   8.8364
     8.8396   9.2187   9.6811  10.2370  10.9069  11.6858  12.5127  12.5174
    12.5707  12.6458  12.6547  12.8552  12.8868  13.1281  13.2129  13.4256
    13.5300  13.5424  13.8815  13.9945  14.3045  14.3407  14.4864  14.5353
    14.8578  15.2812  15.3319  15.5216  15.6013  15.6480  16.0191  16.0538
    16.0825  16.5088  16.6757  17.0786

          k = 0.0000 0.5774 0.0000 ( 23470 PWs)   bands (ev):

     3.6194   3.7103   3.8524   4.0401   4.2622   4.5118   4.7768   5.0069
     5.0325   5.0395   5.0501   5.1117   5.1127   5.1142   5.2212   5.2355
     5.2374   5.2479   5.2885   5.3245   5.3639   5.3648   5.3707   5.4005
     5.4228   5.4381   5.4509   5.5224   5.5260   5.5402   5.5501   5.5549
     5.5617   5.5966   5.6436   5.6640   5.6720   5.6752   5.7140   5.7293
     5.7414   5.7550   5.7719   5.7966   5.7971   5.8144   5.8292   5.9634
     5.9636   5.9969   6.0509   6.0715   6.1496   6.2151   6.2513   6.3131
     6.3277   6.3392   6.3443   6.3996   6.4018   6.4105   6.4225   6.4628
     6.4819   6.4895   6.5083   6.5195   6.5353   6.5644   6.5881   6.5891
     6.5893   6.5967   6.9762   6.9885   6.9956   7.0519   7.0524   7.0528
     7.0574   7.0578   7.1592   7.1890   7.2594   7.3403   7.4406   7.4811
     7.5049   7.5200   7.5233   7.5342   7.5450   7.5459   7.5658   7.5698
     7.5845   7.5979   7.6196   7.6429   7.6851   7.7817   7.7925   7.8227
     7.8229   7.9406   8.0221   8.0516   8.1886   8.1953   8.2450   8.3693
     8.4004   8.4053   8.4288   8.4400   8.4511   8.4549   8.4610   8.4919
     8.5294   8.5445   8.5577   8.5631   8.5684   8.5961   8.6264   8.6459
     8.6505   8.6625   8.6816   8.6946   8.7065   8.7153   8.7201   8.8432
     9.2780   9.7768  10.3404  10.9736  11.6865  12.4667  13.0880  13.1225
    13.1496  13.2793  13.2825  13.2853  13.2866  13.4953  13.5213  13.5547
    13.7474  13.7671  13.8602  13.9671  14.7901  14.9184  14.9203  15.0240
    15.3285  15.3333  15.3800  15.5389  15.8730  15.8770  16.1526  16.3369
    16.4557  16.4890  16.8460  16.9008

          k = 0.0000 0.7217 0.0000 ( 23446 PWs)   bands (ev):

     4.4370   4.4596   4.4877   4.5398   4.6150   4.7184   4.8469   4.8641
     4.8942   4.9614   4.9627   4.9941   5.0690   5.0852   5.1457   5.1865
     5.1928   5.2080   5.2428   5.2505   5.2793   5.2801   5.3583   5.3607
     5.4235   5.4403   5.4938   5.5316   5.5689   5.5766   5.6118   5.6120
     5.6161   5.6279   5.6493   5.6618   5.7089   5.7185   5.7349   5.7544
     5.7661   5.7781   5.7884   5.8035   5.8050   5.8193   5.8705   5.9227
     6.0237   6.0591   6.1169   6.1467   6.1669   6.1955   6.2291   6.2317
     6.2658   6.2998   6.3023   6.3240   6.3466   6.3618   6.3688   6.3969
     6.4218   6.4297   6.4640   6.4897   6.5821   6.6175   6.7044   6.7138
     6.7145   6.7316   6.9741   6.9753   7.0134   7.0140   7.1229   7.1421
     7.1736   7.1764   7.1769   7.2176   7.3202   7.3527   7.3780   7.4083
     7.4236   7.4390   7.4757   7.4987   7.5296   7.6115   7.6220   7.6300
     7.6541   7.6749   7.7013   7.7013   7.7871   7.8260   7.8539   7.8600
     7.9075   8.0546   8.1016   8.1206   8.2444   8.2986   8.3880   8.5263
     8.5722   8.6319   8.6632   8.6728   8.6758   8.6813   8.7123   8.7274
     8.7316   8.7454   8.7548   8.7637   8.7959   8.8066   8.8810   8.8901
     8.9287   8.9334   9.3312   9.3388   9.3553   9.4227   9.5549   9.8052
    10.2167  10.7416  11.3405  11.6907  11.8026  11.9949  11.9974  12.2675
    12.6136  12.6993  13.0243  13.4310  13.4646  13.8082  13.9306  14.0047
    14.1302  14.1474  14.3089  14.4444  14.6537  14.7254  15.0346  15.1011
    15.5491  15.5982  16.0500  16.1318  16.1728  16.2771  16.4556  16.6075
    16.7120  16.8019  17.0850  17.1156

          k = 0.0000-0.8660 0.0000 ( 23420 PWs)   bands (ev):

     4.7346   4.7346   4.7625   4.7625   4.8227   4.8227   4.8258   4.8258
     4.9196   4.9196   4.9349   4.9349   5.0257   5.0257   5.0307   5.0308
     5.1111   5.1111   5.1790   5.1791   5.2485   5.2485   5.2488   5.2488
     5.4594   5.4594   5.4693   5.4693   5.5273   5.5273   5.5604   5.5604
     5.6266   5.6266   5.6697   5.6697   5.7682   5.7682   5.7739   5.7739
     5.8723   5.8723   5.8997   5.8997   5.9222   5.9222   5.9788   5.9788
     6.0073   6.0073   6.0507   6.0507   6.1107   6.1107   6.1530   6.1530
     6.1919   6.1919   6.2489   6.2490   6.3834   6.3834   6.4044   6.4044
     6.5374   6.5374   6.5719   6.5719   6.6537   6.6537   6.6924   6.6924
     6.9846   6.9847   6.9865   6.9866   7.0311   7.0312   7.0334   7.0335
     7.2174   7.2174   7.2678   7.2678   7.3042   7.3043   7.3373   7.3373
     7.3799   7.3799   7.4712   7.4713   7.6122   7.6122   7.6272   7.6273
     7.7052   7.7052   7.7310   7.7310   7.7754   7.7754   7.8585   7.8585
     7.9259   7.9259   8.0222   8.0223   8.1988   8.1988   8.4295   8.4296
     8.6426   8.6427   8.7924   8.7924   8.8209   8.8209   8.8313   8.8314
     8.8616   8.8616   8.8727   8.8728   8.9377   8.9377   9.0229   9.0230
     9.0686   9.0686  10.4065  10.4065  10.4508  10.4508  10.5461  10.5461
    10.7044  10.7044  10.9470  10.9470  11.2872  11.2872  11.7244  11.7244
    12.2402  12.2402  12.8118  12.8119  13.4130  13.4130  14.0180  14.0180
    14.5812  14.5813  15.0199  15.0199  15.7164  15.7164  15.7282  15.7282
    15.8955  15.8956  15.9418  15.9419  16.1643  16.1643  16.2475  16.2475
    16.5061  16.5063  16.5973  16.5974

          k = 0.1250 0.0000 0.0000 ( 23563 PWs)   bands (ev):

     1.6217   1.7653   1.9956   2.3002   2.6608   3.0518   3.4285   3.7309
     3.9166   3.9553   3.9951   4.0155   4.0633   4.1748   4.1749   4.2275
     4.2504   4.3251   4.4185   4.4382   4.5381   4.5484   4.6021   4.6156
     4.6546   4.7450   4.7709   4.9197   5.0091   5.0373   5.1910   5.4650
     5.7402   5.9322   6.0517   6.0764   6.0771   6.1506   6.1768   6.1938
     6.2449   6.2514   6.2617   6.2747   6.3000   6.3355   6.3443   6.3483
     6.3593   6.3795   6.3910   6.3928   6.4141   6.4225   6.4288   6.4513
     6.4525   6.4723   6.4752   6.4820   6.5350   6.5396   6.5466   6.5600
     6.5949   6.5997   6.6112   6.6160   6.6238   6.6239   6.6549   6.6685
     6.6829   6.7769   6.8112   6.8212   6.8501   6.9347   6.9353   6.9359
     6.9974   7.0190   7.1017   7.2719   7.3734   7.4284   7.4758   7.4958
     7.5467   7.5523   7.5927   7.6006   7.6555   7.7014   7.7288   7.7559
     7.7952   7.8191   7.8191   7.8402   7.8711   7.8896   7.9359   7.9488
     8.0098   8.1062   8.1195   8.1758   8.1987   8.2348   8.3311   8.3516
     8.3571   8.4026   8.4828   8.5260   8.5347   8.5800   8.5976   8.6549
     8.6654   8.6826   8.6956   8.6999   8.7187   8.7277   8.7472   8.7643
     8.7774   8.7931   8.8072   8.8333   8.8437   8.8502   8.8748   8.9014
     8.9488   9.0044   9.1239   9.1248   9.2815   9.3408   9.6630   9.9359
     9.9435  10.1324  10.2144  10.3336  10.6902  10.8244  10.9995  11.2702
    11.9544  12.6612  13.2744  13.4522  13.5319  13.6660  13.9212  13.9548
    14.2223  14.5229  14.8384  14.9109  15.1347  15.2137  15.5749  15.8901
    16.3666  16.4363  16.5324  16.9230

          k = 0.1250 0.1443 0.0000 ( 23537 PWs)   bands (ev):

     1.7729   1.9146   2.1430   2.4448   2.8033   3.1930   3.5698   3.8711
     4.0518   4.0821   4.1218   4.1402   4.1882   4.3061   4.3063   4.3474
     4.3516   4.4289   4.5415   4.5558   4.6234   4.6756   4.6909   4.7450
     4.7909   4.8131   4.9063   4.9781   5.1277   5.1634   5.2411   5.4890
     5.7243   5.8885   5.9214   6.0033   6.0295   6.0410   6.1051   6.1149
     6.1482   6.1908   6.2044   6.2247   6.2349   6.2564   6.2718   6.2941
     6.3392   6.3541   6.4093   6.4275   6.4490   6.4639   6.4733   6.4800
     6.4869   6.5099   6.5117   6.5163   6.5466   6.5681   6.5848   6.5972
     6.6093   6.6232   6.6363   6.6561   6.6619   6.6695   6.6860   6.7036
     6.7376   6.7400   6.7551   6.7636   6.8191   6.8763   6.8844   6.9175
     7.0151   7.0162   7.1221   7.1746   7.1846   7.2303   7.4020   7.4025
     7.4541   7.5191   7.5361   7.5441   7.5504   7.5709   7.6113   7.6668
     7.7116   7.7342   7.7584   7.8158   7.8335   7.8509   7.8559   7.8783
     7.9130   7.9878   8.0282   8.0370   8.1355   8.1402   8.2158   8.2357
     8.2693   8.3242   8.3569   8.3640   8.3905   8.4664   8.5014   8.5249
     8.5342   8.5375   8.5785   8.5843   8.6281   8.6340   8.6600   8.6948
     8.7063   8.7456   8.7517   8.7627   8.7872   8.7925   8.8334   8.9006
     8.9843   9.0338   9.0818   9.1343   9.6462   9.9754  10.1378  10.3041
    10.3387  10.4383  10.5671  10.7911  11.1622  11.1725  11.4109  11.7030
    12.3330  12.9992  13.4681  13.5545  13.6563  13.7362  13.9898  14.0132
    14.3304  14.6304  14.9433  14.9773  15.2440  15.3391  15.6921  15.9288
    16.4134  16.5241  16.6359  16.9680

          k = 0.1250 0.2887 0.0000 ( 23467 PWs)   bands (ev):

     2.2087   2.3438   2.5634   2.8531   3.1996   3.5790   3.9499   4.2434
     4.4031   4.4264   4.4510   4.4868   4.5187   4.5584   4.6464   4.6582
     4.6589   4.6671   4.7845   4.8606   4.9135   4.9458   4.9736   5.0744
     5.0824   5.1162   5.2030   5.2487   5.3390   5.4178   5.4809   5.5941
     5.6448   5.6981   5.7722   5.8271   5.8612   5.8978   5.9012   5.9627
     5.9761   6.0120   6.0430   6.0489   6.0619   6.0647   6.0837   6.1016
     6.1326   6.1956   6.2259   6.2908   6.3338   6.3914   6.4735   6.5075
     6.5319   6.5578   6.5778   6.5981   6.5992   6.6166   6.6396   6.6633
     6.6738   6.7172   6.7283   6.7398   6.7483   6.7574   6.7876   6.7891
     6.8326   6.8450   6.8521   6.8675   6.8773   6.8971   6.9050   6.9691
     6.9826   7.0182   7.0193   7.0301   7.0479   7.1026   7.1751   7.1865
     7.2173   7.2245   7.2581   7.2714   7.3535   7.3541   7.4033   7.4833
     7.4893   7.5258   7.5798   7.6155   7.6737   7.6768   7.7542   7.7809
     7.7879   7.7912   7.8432   7.8649   7.9353   7.9526   7.9869   8.0548
     8.0975   8.1175   8.1499   8.1998   8.2221   8.2252   8.2637   8.2712
     8.3292   8.3676   8.4286   8.4963   8.5384   8.6566   8.6604   8.6895
     8.7558   8.7633   8.7804   8.7809   8.8159   8.8286   8.8961   8.9572
     9.0143   9.0761   9.1826   9.6925  10.3011  10.7401  10.8142  10.9268
    11.0518  11.0931  11.3310  11.6629  11.8934  12.0926  12.3711  12.6118
    13.2050  13.5910  13.7151  13.8305  13.9491  14.1529  14.1927  14.4411
    14.6891  14.9699  15.2061  15.2806  15.5775  15.6151  15.9139  16.1081
    16.4152  16.7950  16.9147  16.9587

          k = 0.1250 0.4330 0.0000 ( 23435 PWs)   bands (ev):

     2.8728   2.9907   3.1859   3.4393   3.7439   4.0777   4.4089   4.6629
     4.7791   4.7849   4.8420   4.8559   4.8656   4.8914   4.9599   4.9860
     5.0002   5.0910   5.0915   5.1008   5.1410   5.2152   5.2586   5.3472
     5.3542   5.3717   5.3837   5.4282   5.4778   5.5147   5.6088   5.6119
     5.6493   5.7061   5.7322   5.7488   5.7530   5.7634   5.7860   5.8004
     5.8299   5.8404   5.8611   5.8744   5.9317   5.9324   5.9509   5.9826
     6.0171   6.0376   6.0638   6.0861   6.2150   6.2588   6.2825   6.3570
     6.3985   6.4257   6.4723   6.4962   6.5324   6.5360   6.5663   6.5923
     6.6296   6.6364   6.6486   6.6623   6.6805   6.6985   6.7174   6.7414
     6.7600   6.7803   6.8619   6.8920   6.9571   6.9661   6.9960   7.0400
     7.1335   7.1542   7.1808   7.1933   7.1991   7.2357   7.2451   7.2856
     7.3055   7.3216   7.3355   7.3439   7.3937   7.4084   7.4353   7.4768
     7.4903   7.5319   7.5373   7.5466   7.5975   7.6175   7.6260   7.6361
     7.6597   7.7198   7.8041   7.8094   7.8521   7.9187   7.9275   7.9346
     7.9756   8.0449   8.0855   8.0911   8.1572   8.1871   8.1988   8.2838
     8.3582   8.4427   8.4867   8.5070   8.6253   8.6394   8.6812   8.7275
     8.7309   8.7468   8.7667   8.7757   8.7964   8.8249   8.8660   8.9372
     9.0014   9.2249   9.7241  10.3143  10.9884  11.3626  11.4584  11.6249
    11.7777  11.8676  12.1860  12.5833  12.6485  13.0422  13.5245  13.5740
    13.7766  13.9458  14.1995  14.2827  14.5341  14.6058  14.6535  14.7991
    15.1609  15.2879  15.4993  15.6624  15.6670  15.8739  16.1188  16.1484
    16.3457  16.6606  16.8404  17.2568

          k = 0.1250 0.5774 0.0000 ( 23447 PWs)   bands (ev):

     3.6448   3.7286   3.8758   4.0487   4.2517   4.4645   4.6803   4.8508
     4.8575   4.9223   4.9460   4.9624   4.9929   5.0510   5.0687   5.0708
     5.1173   5.1179   5.2092   5.2125   5.2254   5.2354   5.3171   5.3262
     5.3901   5.4302   5.4437   5.4514   5.4517   5.4880   5.5384   5.5406
     5.5917   5.6033   5.6751   5.6819   5.7032   5.7304   5.7544   5.7610
     5.7712   5.7853   5.8102   5.8477   5.8967   5.9330   5.9400   5.9548
     6.0049   6.0721   6.1011   6.1259   6.1421   6.1427   6.2734   6.2763
     6.3118   6.4065   6.4427   6.4810   6.4976   6.5263   6.5367   6.5547
     6.5838   6.5957   6.6086   6.6163   6.6435   6.6824   6.6996   6.7354
     6.7577   6.7690   6.8619   6.8775   6.9530   6.9689   6.9793   7.0819
     7.1976   7.2497   7.2552   7.2727   7.2997   7.3516   7.3781   7.4168
     7.4354   7.4597   7.5068   7.5158   7.5356   7.5424   7.5950   7.6248
     7.6256   7.6530   7.7127   7.7170   7.7665   7.7824   7.9000   7.9100
     7.9207   7.9579   8.0752   8.0828   8.1609   8.2088   8.2383   8.2408
     8.3368   8.3450   8.3972   8.4262   8.4546   8.4573   8.4750   8.5110
     8.5341   8.5541   8.5618   8.5973   8.6260   8.6319   8.6471   8.6713
     8.6901   8.7241   8.7463   8.7555   8.7634   8.8161   8.8216   8.8816
     9.2577   9.7787  10.3680  11.0258  11.7393  12.0633  12.1914  12.4034
    12.5245  12.6952  13.0513  13.2736  13.3268  13.4210  13.4593  13.6630
    13.9086  14.0390  14.1693  14.2878  14.3497  14.6132  14.8580  15.0756
    15.1923  15.4425  15.4463  15.7077  15.7891  15.9236  16.2637  16.3052
    16.3824  16.7531  16.9037  16.9608

          k = 0.1250 0.7217 0.0000 ( 23455 PWs)   bands (ev):

     4.2468   4.3188   4.4568   4.5795   4.6012   4.6606   4.7204   4.7402
     4.7512   4.8007   4.8217   4.8582   4.9223   4.9501   4.9688   5.0233
     5.0669   5.0922   5.0971   5.1197   5.1956   5.2115   5.2458   5.2583
     5.2639   5.2989   5.3117   5.3451   5.4207   5.4208   5.4539   5.4632
     5.5112   5.5826   5.6017   5.6215   5.6643   5.7237   5.7260   5.7673
     5.8042   5.8228   5.8353   5.8567   5.8966   5.9139   5.9521   6.0168
     6.0392   6.0696   6.1022   6.1634   6.2387   6.2668   6.2676   6.2941
     6.3350   6.3442   6.3751   6.4294   6.4776   6.4950   6.5152   6.6102
     6.6536   6.6666   6.7657   6.7804   6.7806   6.7923   6.8246   6.8398
     6.9093   6.9157   6.9550   7.0226   7.0230   7.0371   7.0903   7.0956
     7.1879   7.1881   7.2382   7.2690   7.3577   7.4080   7.4836   7.4981
     7.5288   7.5392   7.6033   7.6315   7.6389   7.6521   7.7081   7.7297
     7.7331   7.8029   7.8557   7.8788   7.9202   7.9440   8.0403   8.0422
     8.0603   8.1700   8.2286   8.2442   8.3332   8.3393   8.4481   8.5569
     8.5661   8.5679   8.5829   8.6511   8.6590   8.6632   8.6987   8.7363
     8.7403   8.7743   8.7745   8.8005   8.8076   8.8365   8.8878   8.8923
     8.9303   8.9388   9.2574   9.3208   9.3519   9.4003   9.5222   9.7650
    10.1833  10.7276  11.3492  11.7718  11.8732  12.0279  12.0555  12.3070
    12.6359  12.7359  13.0266  13.0667  13.2095  13.4331  13.4720  13.5069
    13.7298  14.0131  14.0795  14.1638  14.4556  14.5788  14.8220  15.1578
    15.2271  15.5464  15.7176  15.8963  16.0083  16.2641  16.3309  16.4858
    16.5478  16.6483  16.8407  16.9738

          k = 0.1250-0.8660 0.0000 ( 23492 PWs)   bands (ev):

     4.5177   4.5377   4.6107   4.6112   4.6353   4.6615   4.7322   4.7343
     4.7414   4.7513   4.8550   4.8695   4.9182   4.9204   5.0061   5.0061
     5.0633   5.0690   5.1150   5.1186   5.1294   5.1304   5.1556   5.1572
     5.2285   5.2321   5.2912   5.2931   5.3393   5.3394   5.3763   5.3786
     5.4759   5.4761   5.5785   5.5873   5.6408   5.6422   5.7361   5.7379
     5.8312   5.8371   5.9212   5.9257   5.9504   5.9632   6.0122   6.0214
     6.0548   6.0563   6.0791   6.0825   6.1689   6.1759   6.2441   6.2450
     6.4222   6.4231   6.4369   6.4449   6.6005   6.6040   6.6338   6.6368
     6.7240   6.7328   6.7483   6.7501   6.8448   6.8454   6.8950   6.8975
     6.9159   6.9208   6.9574   6.9722   7.0685   7.0723   7.1342   7.1591
     7.2329   7.2479   7.3196   7.3311   7.4366   7.4429   7.4884   7.4897
     7.5379   7.5464   7.6193   7.6276   7.7211   7.7234   7.8015   7.8193
     7.8620   7.8640   7.9175   7.9304   7.9817   7.9840   8.0095   8.0148
     8.0897   8.0997   8.1407   8.1480   8.2416   8.2426   8.4390   8.4405
     8.6406   8.6447   8.7336   8.7387   8.7863   8.7869   8.8073   8.8181
     8.8606   8.8615   8.8982   8.9108   8.9422   8.9471   9.0239   9.0239
     9.0663   9.0711  10.4031  10.4052  10.4559  10.4565  10.5505  10.5507
    10.6989  10.7012  10.9303  10.9320  11.2606  11.2645  11.6962  11.7005
    12.2221  12.2249  12.8149  12.8161  13.4255  13.4422  13.9870  13.9955
    14.4373  14.4437  14.6377  14.6394  14.7995  14.8181  15.0129  15.0275
    15.2422  15.2467  15.4644  15.4741  15.8030  15.8104  15.9045  15.9268
    16.2332  16.2338  16.5804  16.5894

          k = 0.2500 0.0000 0.0000 ( 23536 PWs)   bands (ev):

     1.9570   2.0970   2.3218   2.6198   2.9741   3.3609   3.7362   3.9060
     4.0119   4.0352   4.1713   4.2075   4.2683   4.2855   4.3520   4.3585
     4.4078   4.4603   4.4607   4.4733   4.5044   4.6068   4.6764   4.7361
     4.7635   4.8680   4.9101   5.0283   5.1067   5.1333   5.2984   5.5420
     5.7844   5.8135   5.9180   5.9330   5.9387   6.0420   6.0543   6.1068
     6.1111   6.1561   6.1578   6.1792   6.2239   6.2594   6.2861   6.3137
     6.3418   6.3804   6.4096   6.4371   6.4596   6.4614   6.4936   6.5135
     6.5197   6.5549   6.5638   6.5789   6.5843   6.5968   6.6245   6.6351
     6.6480   6.6715   6.6799   6.6867   6.7014   6.7110   6.7148   6.7486
     6.7728   6.8062   6.8148   6.8379   6.8389   6.8495   6.8740   6.9155
     6.9769   7.0359   7.0647   7.1028   7.1077   7.2470   7.2672   7.2978
     7.3227   7.3846   7.3916   7.4599   7.4934   7.5293   7.5471   7.5874
     7.6363   7.6479   7.6869   7.7156   7.7419   7.8001   7.8292   7.8532
     7.9197   7.9840   7.9851   8.0246   8.0331   8.1229   8.1882   8.2112
     8.2239   8.3016   8.3084   8.3519   8.3616   8.3921   8.3999   8.4174
     8.4522   8.4698   8.5048   8.5302   8.5344   8.5514   8.5738   8.5746
     8.6069   8.6206   8.6323   8.6673   8.6785   8.7251   8.7794   8.7915
     8.8131   8.8375   8.8483   8.8823   8.9186   8.9210   8.9347   8.9499
     9.1046   9.3862   9.6946   9.9589  10.3972  10.6715  11.1418  11.5053
    11.8426  11.9029  12.6605  13.4004  14.0505  14.1222  15.0670  15.1100
    15.3245  15.3831  15.5112  15.6002  15.9126  16.3529  16.6387  16.7692
    16.8128  17.1107  17.4045  17.7897

          k = 0.2500 0.1443 0.0000 ( 23484 PWs)   bands (ev):

     2.1035   2.2407   2.4630   2.7567   3.1076   3.4918   3.8669   4.0412
     4.1442   4.1659   4.3014   4.3345   4.3881   4.3989   4.4566   4.4883
     4.5182   4.5814   4.5818   4.5985   4.6362   4.7249   4.7555   4.8214
     4.8666   4.9407   5.0278   5.0910   5.2282   5.2424   5.3412   5.5470
     5.7343   5.7817   5.8024   5.8765   5.9038   5.9147   6.0263   6.0413
     6.0491   6.0503   6.0885   6.1329   6.1646   6.1981   6.2098   6.2328
     6.2797   6.3389   6.3552   6.3734   6.4126   6.4485   6.4765   6.4819
     6.5258   6.5441   6.5675   6.5872   6.5978   6.5999   6.6146   6.6284
     6.6492   6.6733   6.6921   6.6972   6.7106   6.7349   6.7457   6.7590
     6.7766   6.8162   6.8260   6.8262   6.8593   6.9053   6.9258   6.9537
     6.9584   6.9747   7.0116   7.0912   7.1024   7.1895   7.1970   7.2115
     7.2587   7.3023   7.3292   7.3487   7.3869   7.4218   7.4501   7.4673
     7.5146   7.5555   7.6097   7.6479   7.7114   7.7684   7.7875   7.8148
     7.8261   7.8442   7.8993   7.9276   7.9330   7.9707   8.0210   8.0242
     8.1363   8.1565   8.2017   8.2047   8.2109   8.2193   8.2773   8.2830
     8.3031   8.4356   8.4449   8.4803   8.5168   8.5201   8.5835   8.5872
     8.6012   8.6694   8.7105   8.7264   8.7360   8.7748   8.7879   8.8304
     8.9050   8.9642   9.1118   9.1294   9.2313   9.3249   9.3677   9.4510
     9.5884   9.6695  10.1103  10.1705  10.7106  10.9086  11.3948  11.7414
    12.1187  12.1598  12.8543  13.5750  14.1045  14.2806  15.1465  15.2904
    15.3689  15.4916  15.5718  15.7081  15.9966  16.4350  16.7355  16.8683
    16.9009  17.1946  17.4656  17.8155

          k = 0.2500 0.2887 0.0000 ( 23496 PWs)   bands (ev):

     2.5183   2.6461   2.8566   3.1321   3.4635   3.8273   4.1861   4.4056
     4.4673   4.4896   4.6051   4.6253   4.6482   4.6557   4.7214   4.7220
     4.7929   4.8359   4.8779   4.8799   4.9264   4.9856   5.0365   5.0950
     5.1035   5.2027   5.2410   5.3125   5.3808   5.4489   5.4933   5.5787
     5.6095   5.6227   5.7199   5.7531   5.7890   5.8324   5.8935   5.9043
     5.9136   5.9294   5.9558   6.0149   6.0324   6.0527   6.1021   6.1021
     6.1196   6.1244   6.1691   6.2208   6.2389   6.3482   6.3605   6.3644
     6.4278   6.4708   6.5052   6.5191   6.5666   6.5702   6.5933   6.6302
     6.6402   6.6508   6.6701   6.6942   6.6979   6.7456   6.7705   6.8093
     6.8165   6.8378   6.8512   6.8679   6.9022   6.9277   6.9414   6.9529
     6.9866   6.9951   7.0118   7.0378   7.1029   7.1277   7.1342   7.1555
     7.1754   7.2285   7.2380   7.2646   7.2787   7.3459   7.3535   7.3611
     7.4351   7.4360   7.4782   7.5402   7.5461   7.5747   7.6203   7.6765
     7.7108   7.7464   7.7506   7.7877   7.8307   7.8363   7.8883   7.9115
     7.9318   7.9752   7.9997   8.0608   8.0876   8.1558   8.1683   8.2148
     8.2436   8.3802   8.3837   8.4651   8.6174   8.6302   8.6423   8.6980
     8.7638   8.7708   8.7911   8.7938   8.8404   8.8673   8.9250   8.9892
     8.9994   9.0497   9.4507   9.8002   9.8494   9.9065  10.0044  10.0046
    10.1788  10.4666  10.6457  10.8853  11.4143  11.4230  12.0229  12.2836
    12.6786  12.9561  13.3631  14.0301  14.3287  14.6723  15.4036  15.5085
    15.6761  15.8314  15.8592  16.0033  16.2420  16.6264  17.0000  17.0363
    17.2065  17.2769  17.5311  17.6046

          k = 0.2500 0.4330 0.0000 ( 23431 PWs)   bands (ev):

     3.1197   3.2252   3.4062   3.6317   3.9009   4.1862   4.4595   4.6521
     4.7563   4.7618   4.7679   4.8205   4.8242   4.8751   4.9266   4.9390
     5.0060   5.0213   5.0309   5.1132   5.1287   5.1657   5.1678   5.1983
     5.2489   5.2493   5.3112   5.4373   5.4600   5.4711   5.5272   5.5632
     5.5835   5.6256   5.6747   5.7099   5.7654   5.7805   5.8173   5.8741
     5.8789   5.8923   5.9204   5.9233   5.9689   5.9892   6.0048   6.0450
     6.0556   6.1100   6.1394   6.1517   6.1875   6.2115   6.2433   6.2668
     6.3820   6.3931   6.4032   6.5093   6.5334   6.5675   6.5699   6.5857
     6.6297   6.6417   6.6581   6.6695   6.6884   6.6921   6.7002   6.7495
     6.8057   6.8315   6.8977   6.9479   6.9646   6.9841   6.9862   7.0309
     7.0328   7.1207   7.1841   7.1870   7.2066   7.2365   7.2606   7.2683
     7.3106   7.3280   7.3337   7.3766   7.4072   7.4537   7.4665   7.4886
     7.5350   7.5567   7.6023   7.6151   7.6224   7.6226   7.6613   7.6958
     7.7057   7.7378   7.7735   7.7953   7.8141   7.8579   7.8923   7.9266
     7.9731   8.0225   8.0456   8.0583   8.1122   8.1694   8.2037   8.2508
     8.3829   8.3901   8.4282   8.5645   8.6400   8.7027   8.7891   8.8136
     8.8193   8.8223   8.8305   8.8541   8.8605   8.8708   8.9513   9.0223
     9.0850   9.3273   9.8945  10.4037  10.4507  10.5313  10.5455  10.7064
    10.9482  11.2221  11.2880  11.7229  12.0183  12.2360  12.8071  12.8686
    13.4020  13.9933  14.0182  14.5702  14.8482  15.0484  15.7089  15.7699
    15.8761  15.8980  15.9362  16.1677  16.2491  16.4273  16.5203  16.5922
    16.9629  17.0009  17.4008  17.4459

          k = 0.2500 0.5774 0.0000 ( 23466 PWs)   bands (ev):

     3.7130   3.7966   3.9510   4.1057   4.2617   4.3937   4.5246   4.6390
     4.6392   4.6827   4.7168   4.7523   4.7580   4.8377   4.8830   4.9027
     4.9050   4.9983   5.0031   5.0450   5.0552   5.1234   5.1252   5.1826
     5.2023   5.2209   5.2229   5.2554   5.2803   5.3405   5.3698   5.4139
     5.4250   5.4854   5.5309   5.6280   5.6707   5.6867   5.7640   5.8177
     5.8529   5.8610   5.9041   5.9510   5.9620   5.9659   6.0039   6.0889
     6.1166   6.1918   6.2564   6.2741   6.3287   6.3930   6.4358   6.4652
     6.4836   6.4971   6.5301   6.5605   6.5903   6.6191   6.6386   6.6438
     6.6569   6.7216   6.7538   6.7732   6.7886   6.8055   6.8548   6.9075
     6.9228   6.9694   6.9926   7.0025   7.0911   7.0925   7.1574   7.1590
     7.2718   7.2774   7.3294   7.3349   7.4013   7.4794   7.4850   7.5146
     7.5243   7.5476   7.5477   7.6363   7.6598   7.7351   7.7853   7.8235
     7.8888   7.8912   7.9084   7.9317   7.9604   7.9610   7.9943   8.0592
     8.0648   8.0756   8.0826   8.1116   8.1178   8.1313   8.1950   8.2008
     8.2618   8.3046   8.3432   8.3567   8.4148   8.4466   8.4608   8.4808
     8.4986   8.5408   8.5751   8.6423   8.6905   8.7039   8.7399   8.7485
     8.7584   8.8228   8.8249   8.8611   8.8675   8.9168   8.9831   9.0443
     9.2310   9.8276  10.4816  11.0583  11.1352  11.1852  11.2714  11.4774
    11.7600  11.9100  12.1306  12.5820  12.6943  13.1006  13.4696  13.6108
    13.7268  13.8599  14.0688  14.3151  14.4038  14.7563  15.0156  15.0374
    15.1479  15.4638  15.6412  15.7159  15.8654  16.1790  16.4084  16.5279
    16.6593  17.1199  17.2668  17.4169

          k = 0.2500 0.7217 0.0000 ( 23545 PWs)   bands (ev):

     4.0537   4.1432   4.3107   4.4167   4.4405   4.4885   4.5161   4.5181
     4.5292   4.5914   4.6121   4.6393   4.6641   4.7264   4.7504   4.7656
     4.8212   4.8639   4.8652   4.8667   4.9238   4.9361   4.9454   5.0163
     5.0323   5.0838   5.0911   5.1333   5.1487   5.2278   5.2418   5.2433
     5.3191   5.3426   5.4084   5.4823   5.5506   5.6052   5.7336   5.7342
     5.7623   5.8666   5.8752   5.9469   6.0037   6.0174   6.0456   6.1542
     6.1994   6.2547   6.2684   6.3365   6.3504   6.4003   6.4147   6.4831
     6.5385   6.5441   6.5651   6.5927   6.6581   6.6703   6.6998   6.7202
     6.7419   6.8141   6.8209   6.8326   6.9511   6.9663   7.0115   7.0535
     7.1053   7.1114   7.1879   7.2203   7.2629   7.2919   7.2948   7.3718
     7.4014   7.4176   7.5555   7.5575   7.6428   7.6792   7.7613   7.7833
     7.8232   7.8992   7.9026   7.9270   7.9524   7.9550   8.0208   8.0692
     8.1483   8.1757   8.2062   8.2117   8.2207   8.2485   8.2750   8.2869
     8.3225   8.3459   8.4377   8.4823   8.4914   8.5226   8.5249   8.5547
     8.5778   8.5833   8.6035   8.6035   8.6638   8.6731   8.6887   8.7086
     8.7365   8.7796   8.7845   8.8205   8.8830   8.9050   8.9266   8.9478
     8.9532   8.9645   9.1146   9.2320   9.3281   9.3635   9.4488   9.6670
    10.1115  10.7157  11.4002  11.9509  11.9733  11.9956  12.0469  12.1231
    12.1332  12.2285  12.3642  12.5267  12.7347  12.8618  12.9449  13.1827
    13.3840  13.5915  13.5962  13.6655  14.0022  14.2759  14.3655  14.7009
    14.9528  15.2944  15.3610  15.4058  15.5679  15.6963  15.7135  16.0027
    16.0153  16.1774  16.4404  16.6535

          k = 0.2500-0.8660 0.0000 ( 23532 PWs)   bands (ev):

     4.2220   4.2414   4.3333   4.3336   4.4365   4.4566   4.4859   4.4996
     4.5354   4.5356   4.6567   4.6654   4.6957   4.6966   4.7345   4.7368
     4.8000   4.8001   4.8117   4.8120   4.8975   4.9032   4.9093   4.9122
     4.9504   4.9523   5.0451   5.0480   5.0689   5.0689   5.2326   5.2339
     5.3068   5.3099   5.3284   5.3289   5.5223   5.5235   5.6935   5.6950
     5.8373   5.8491   5.9721   5.9812   6.0534   6.0568   6.1271   6.1326
     6.1627   6.1662   6.2258   6.2307   6.4280   6.4284   6.4644   6.4680
     6.5420   6.5476   6.5805   6.5895   6.6482   6.6660   6.7037   6.7047
     6.7729   6.7846   6.8834   6.8942   7.0203   7.0264   7.0704   7.0757
     7.1627   7.1686   7.3101   7.3167   7.3587   7.3650   7.4323   7.4395
     7.5046   7.5123   7.6617   7.6747   7.6942   7.6951   7.9054   7.9160
     7.9188   7.9316   8.0621   8.0627   8.0945   8.1004   8.1036   8.1099
     8.2666   8.2673   8.3266   8.3422   8.3499   8.3547   8.3928   8.3936
     8.4011   8.4077   8.4309   8.4363   8.4674   8.4712   8.5271   8.5305
     8.6580   8.6653   8.6931   8.6988   8.7531   8.7554   8.7895   8.7996
     8.8276   8.8294   8.9045   8.9129   8.9684   8.9712   9.0301   9.0307
     9.0661   9.0740  10.3825  10.3853  10.4819  10.4845  10.6025  10.6050
    10.7322  10.7390  10.9195  10.9233  11.2025  11.2119  11.6091  11.6198
    12.1291  12.1386  12.7310  12.7471  13.3708  13.3819  13.5257  13.5359
    13.6438  13.6443  13.8015  13.8353  13.9174  13.9619  14.1409  14.1569
    14.4470  14.5000  14.7652  14.7857  15.0568  15.1001  15.4723  15.4918
    15.8031  15.8110  15.9600  15.9641

          k = 0.3750 0.0000 0.0000 ( 23492 PWs)   bands (ev):

     2.4806   2.6116   2.8216   3.1000   3.4318   3.6638   3.7627   3.7964
     3.9100   4.0796   4.1537   4.2363   4.3692   4.4319   4.4947   4.5659
     4.6046   4.6239   4.6856   4.7168   4.8471   4.8492   4.8532   4.8967
     4.9802   5.0184   5.1015   5.1885   5.2253   5.3222   5.4799   5.5095
     5.6202   5.6712   5.7656   5.8283   5.8678   5.8999   5.9203   5.9419
     5.9739   5.9897   6.0380   6.0751   6.1107   6.1225   6.1418   6.2168
     6.3207   6.3511   6.4037   6.4113   6.4489   6.4905   6.5035   6.5147
     6.5410   6.5597   6.5669   6.5739   6.5905   6.6126   6.6320   6.6461
     6.6522   6.6875   6.6917   6.6990   6.7537   6.7544   6.7962   6.8121
     6.8194   6.8228   6.8911   6.9022   6.9063   6.9318   6.9447   6.9615
     6.9916   6.9993   7.0104   7.0568   7.0992   7.1013   7.1325   7.1889
     7.1972   7.2056   7.2239   7.2987   7.3150   7.3408   7.3866   7.4236
     7.4853   7.4866   7.5265   7.5377   7.6168   7.6204   7.6437   7.6581
     7.6596   7.7605   7.7725   7.7801   7.8809   7.8888   7.9481   7.9709
     7.9768   7.9872   8.0070   8.0262   8.0352   8.0501   8.0663   8.0683
     8.0755   8.1227   8.1880   8.1971   8.2126   8.2338   8.2678   8.3220
     8.3567   8.3690   8.3934   8.4372   8.4668   8.5253   8.5493   8.5881
     8.6252   8.6933   8.7346   8.7995   8.8367   8.8490   8.8957   8.9311
     9.1582   9.4027   9.7703   9.9528  10.4329  10.6013  11.1313  11.3655
    11.8652  12.2415  12.6393  12.8819  13.4394  14.3126  14.9617  15.3768
    15.6086  15.8084  16.4860  16.9735  17.1891  17.2556  17.4241  17.6118
    17.7789  17.9629  18.2644  18.7129

          k = 0.3750 0.1443 0.0000 ( 23495 PWs)   bands (ev):

     2.6215   2.7484   2.9549   3.2270   3.5539   3.8076   3.9020   3.9153
     4.0409   4.2011   4.2758   4.3475   4.4778   4.5651   4.6120   4.7043
     4.7316   4.7438   4.7877   4.8401   4.9520   4.9598   4.9610   4.9753
     5.0535   5.1119   5.1929   5.2766   5.3453   5.4138   5.5051   5.5227
     5.6397   5.6553   5.6846   5.7790   5.7907   5.8128   5.8471   5.8817
     5.9072   5.9253   5.9376   6.0004   6.0310   6.0331   6.0790   6.1174
     6.1530   6.2234   6.2660   6.2666   6.3046   6.3784   6.3867   6.4303
     6.4340   6.4444   6.4963   6.5079   6.5461   6.5535   6.5783   6.5987
     6.6203   6.6445   6.6769   6.6831   6.6857   6.6985   6.7174   6.7271
     6.7822   6.7997   6.8214   6.8293   6.8394   6.9007   6.9393   6.9830
     7.0205   7.0211   7.0645   7.0779   7.1404   7.1561   7.1571   7.2117
     7.2133   7.2796   7.2918   7.3124   7.3324   7.3536   7.3715   7.3954
     7.4237   7.4375   7.4640   7.4830   7.5000   7.5644   7.6014   7.6562
     7.7133   7.7264   7.7290   7.7675   7.7817   7.8240   7.9036   7.9116
     7.9368   7.9668   8.0393   8.0495   8.0671   8.0874   8.1732   8.1905
     8.2183   8.2493   8.2929   8.3053   8.3928   8.4051   8.4208   8.4662
     8.4937   8.5136   8.5528   8.5666   8.6196   8.6463   8.6620   8.6909
     8.7101   8.7131   8.7539   8.7606   8.7914   8.8383   8.9335   9.1092
     9.3955   9.5531   9.9620  10.0993  10.5963  10.7498  11.2801  11.5269
    12.0110  12.4000  12.7785  13.1400  13.5672  14.4030  15.1851  15.4773
    15.7687  15.9132  16.6162  17.0946  17.2701  17.3383  17.4507  17.6440
    17.8779  18.0347  18.3015  18.7585

          k = 0.3750 0.2887 0.0000 ( 23497 PWs)   bands (ev):

     3.0082   3.1215   3.3112   3.5565   3.8536   4.1825   4.1997   4.2658
     4.3536   4.4528   4.5180   4.5507   4.6692   4.7951   4.8129   4.9173
     4.9705   4.9753   5.0569   5.1061   5.1860   5.1922   5.1925   5.2219
     5.2681   5.3341   5.3737   5.3887   5.4200   5.5007   5.5156   5.5870
     5.6195   5.6270   5.6373   5.6885   5.7144   5.7308   5.7388   5.7528
     5.7840   5.8145   5.8475   5.8664   5.9006   5.9047   5.9602   5.9673
     5.9728   5.9931   6.0604   6.0955   6.1304   6.2189   6.2203   6.2840
     6.2974   6.3212   6.3379   6.3456   6.3904   6.4212   6.4451   6.4543
     6.4674   6.5348   6.5494   6.5843   6.6103   6.6250   6.6544   6.6952
     6.7096   6.7146   6.7381   6.7414   6.7813   6.8652   6.9116   6.9414
     6.9537   6.9998   7.0269   7.1064   7.1721   7.2336   7.2522   7.2770
     7.3128   7.3291   7.3311   7.3624   7.3705   7.4079   7.4220   7.4250
     7.4886   7.5153   7.5241   7.5896   7.5904   7.6237   7.6459   7.6502
     7.6899   7.6932   7.7105   7.7636   7.8552   7.8910   7.9437   7.9595
     7.9711   8.0955   8.1010   8.1336   8.1342   8.1408   8.1861   8.2255
     8.2683   8.3210   8.3972   8.5111   8.5464   8.5494   8.5745   8.6118
     8.6217   8.6724   8.6869   8.6945   8.7045   8.7493   8.8285   8.8854
     8.9264   9.0549   9.0998   9.1090   9.1619   9.2693   9.3481   9.4914
     9.8462   9.9057  10.4360  10.4392  11.0390  11.1166  11.6983  11.9101
    12.4168  12.7708  13.1617  13.8027  13.9078  14.7204  15.7765  15.7779
    16.1987  16.2522  16.9544  17.3862  17.4595  17.5122  17.5854  17.7745
    18.0592  18.1197  18.3447  18.6392

          k = 0.3750 0.4330 0.0000 ( 23475 PWs)   bands (ev):

     3.5084   3.5966   3.7552   3.9376   4.1509   4.3672   4.4553   4.5284
     4.5757   4.6178   4.6840   4.7087   4.7300   4.7414   4.8372   4.8386
     4.9520   4.9627   5.0468   5.0733   5.1120   5.1583   5.1713   5.2167
     5.2287   5.2458   5.3067   5.3186   5.3299   5.3554   5.4125   5.4690
     5.5160   5.5849   5.5977   5.6235   5.7097   5.7190   5.7325   5.8324
     5.8511   5.8715   5.9219   5.9708   5.9713   5.9892   6.0829   6.1020
     6.1030   6.1065   6.1843   6.2050   6.2195   6.2407   6.2450   6.2998
     6.3096   6.3285   6.3353   6.3840   6.4014   6.4860   6.4945   6.5526
     6.5988   6.6127   6.6252   6.6367   6.6689   6.7063   6.7506   6.7597
     6.8227   6.8635   6.8784   6.8836   6.9219   6.9671   6.9715   6.9756
     7.0024   7.0268   7.1085   7.1271   7.1885   7.2609   7.2733   7.3836
     7.3891   7.4235   7.4550   7.5046   7.5188   7.5605   7.5760   7.5943
     7.6387   7.6604   7.6650   7.6912   7.6991   7.7603   7.7828   7.8313
     7.9006   7.9180   7.9246   7.9524   7.9757   8.0006   8.0392   8.0885
     8.1364   8.1798   8.2063   8.2403   8.3023   8.3404   8.3521   8.3811
     8.4083   8.4232   8.4909   8.5953   8.6354   8.6803   8.6918   8.7627
     8.7762   8.7767   8.7851   8.8082   8.8273   8.8754   8.9462   9.0036
     9.1123   9.5634   9.5909   9.6206   9.6404   9.7044   9.8599  10.1311
    10.2388  10.5422  10.9048  11.0635  11.6135  11.6623  12.3096  12.4060
    13.0104  13.2133  13.7125  14.4014  14.6493  15.2985  16.2556  16.2614
    16.5292  16.6117  16.7239  16.8675  17.0609  17.0716  17.3784  17.5216
    17.7045  17.7096  17.9573  18.0939

          k = 0.3750 0.5774 0.0000 ( 23521 PWs)   bands (ev):

     3.8456   3.9326   4.0958   4.2512   4.3108   4.3567   4.3934   4.4155
     4.4612   4.5556   4.5588   4.5642   4.6332   4.6710   4.7532   4.7687
     4.7720   4.8056   4.8665   4.8696   4.8914   4.9360   4.9457   4.9642
     5.0133   5.0286   5.0468   5.1086   5.1504   5.1747   5.1856   5.2239
     5.3148   5.3826   5.3875   5.4337   5.5538   5.6033   5.6806   5.8215
     5.8259   5.9484   5.9669   6.0391   6.1029   6.1044   6.1481   6.1745
     6.2489   6.3128   6.3608   6.3656   6.4098   6.4567   6.4797   6.5081
     6.5335   6.5403   6.5644   6.5697   6.6125   6.6512   6.7144   6.7236
     6.7535   6.7563   6.7849   6.8283   6.8797   6.8822   6.9770   7.0092
     7.0152   7.0812   7.0943   7.1173   7.1403   7.2249   7.2505   7.3038
     7.3748   7.3966   7.4669   7.5336   7.5757   7.6498   7.6560   7.7325
     7.7473   7.7502   7.8234   7.8286   7.9200   7.9457   7.9915   8.0152
     8.0607   8.0750   8.0787   8.1143   8.1482   8.1994   8.2063   8.2138
     8.2411   8.2495   8.2528   8.2653   8.3025   8.3200   8.3299   8.3325
     8.3415   8.3603   8.4252   8.4293   8.4751   8.5003   8.5391   8.5757
     8.5832   8.6287   8.6348   8.6866   8.6930   8.7581   8.7644   8.7897
     8.8375   8.8401   8.8681   8.9044   8.9071   8.9570   9.0173   9.0738
     9.4097  10.0655  10.0746  10.1383  10.2230  10.3421  10.5275  10.7804
    10.8261  11.2491  11.5209  11.7833  12.2586  12.4046  13.0322  13.0603
    13.7098  13.7689  14.2235  14.4897  14.6518  14.8655  14.9602  15.2692
    15.2816  15.5024  15.7914  15.8783  16.2366  16.3724  16.4981  16.7151
    16.7389  16.9665  17.1696  17.2468

          k = 0.3750 0.7217 0.0000 ( 23544 PWs)   bands (ev):

     3.9629   4.0574   4.1421   4.2301   4.2555   4.2971   4.3701   4.3724
     4.4112   4.4131   4.4512   4.4652   4.5641   4.5823   4.5854   4.5982
     4.6203   4.6386   4.6757   4.7014   4.7039   4.7290   4.7994   4.8094
     4.8208   4.8461   4.8675   4.9410   4.9716   4.9819   5.0577   5.0860
     5.1606   5.2044   5.2378   5.2618   5.4932   5.4989   5.7274   5.7530
     5.8690   5.9296   5.9832   6.0645   6.0910   6.1499   6.1808   6.2369
     6.2780   6.3542   6.3564   6.3767   6.4042   6.4512   6.4788   6.4800
     6.4939   6.5149   6.5897   6.6343   6.6496   6.7226   6.7367   6.8022
     6.8272   6.8427   6.9102   7.0051   7.0430   7.1468   7.1517   7.2214
     7.2366   7.2863   7.3705   7.4315   7.5100   7.5589   7.5767   7.6303
     7.7360   7.7798   7.8342   7.8480   7.8697   7.9933   8.0235   8.0815
     8.1450   8.2000   8.2411   8.3068   8.3165   8.3684   8.3809   8.4188
     8.4657   8.4758   8.4832   8.5323   8.5480   8.5523   8.5602   8.5715
     8.5934   8.6150   8.6155   8.6191   8.6416   8.6560   8.6663   8.6972
     8.6972   8.7095   8.7112   8.7246   8.7320   8.7486   8.7641   8.7881
     8.7985   8.8394   8.8623   8.8884   8.9125   8.9525   8.9880   8.9925
     9.0193   9.0329   9.0757   9.1782   9.3969   9.5130   9.5469   9.7027
    10.1745  10.7293  10.8460  10.8869  11.0467  11.2125  11.3760  11.5883
    11.6053  11.9119  12.2630  12.3710  12.5601  12.7292  12.9011  13.0256
    13.1247  13.1625  13.5283  13.8150  13.8390  14.1476  14.2912  14.3578
    14.4751  14.4904  14.6710  14.7695  14.8854  15.1590  15.2167  15.6147
    15.6427  16.0053  16.0728  16.2325

          k = 0.3750-0.8660 0.0000 ( 23556 PWs)   bands (ev):

     4.0192   4.0393   4.1359   4.1360   4.2670   4.2804   4.2929   4.3081
     4.3571   4.3575   4.4711   4.4762   4.5011   4.5022   4.5468   4.5495
     4.6077   4.6100   4.6212   4.6220   4.6820   4.6890   4.7266   4.7299
     4.7428   4.7488   4.8040   4.8089   4.9207   4.9227   5.0577   5.0585
     5.0838   5.0841   5.1945   5.1946   5.4621   5.4622   5.7278   5.7323
     5.9072   5.9137   6.0188   6.0435   6.1307   6.1327   6.2055   6.2138
     6.2584   6.2694   6.3539   6.3752   6.3968   6.3992   6.4654   6.4722
     6.5521   6.5592   6.6156   6.6236   6.6852   6.6886   6.7806   6.7854
     6.9146   6.9225   6.9903   7.0075   7.1050   7.1083   7.2714   7.2829
     7.3742   7.3755   7.4257   7.4295   7.5971   7.6051   7.7768   7.7912
     7.8229   7.8234   7.9044   7.9112   8.1478   8.1509   8.1910   8.1952
     8.2100   8.2130   8.4319   8.4347   8.4569   8.4729   8.5479   8.5511
     8.5656   8.5707   8.6111   8.6142   8.6587   8.6633   8.6824   8.6844
     8.7000   8.7012   8.7405   8.7417   8.7513   8.7540   8.7673   8.7760
     8.7849   8.7898   8.8144   8.8169   8.8530   8.8541   8.8707   8.8759
     8.9096   8.9171   8.9505   8.9585   9.0169   9.0256   9.0854   9.0874
     9.0960   9.1005  10.2914  10.3137  10.5278  10.5320  10.7675  10.7813
    10.9606  10.9729  11.1047  11.1118  11.2541  11.2734  11.5080  11.5301
    11.8690  11.8868  12.2382  12.2734  12.5186  12.5311  12.6630  12.7068
    12.7922  12.7950  12.8369  12.8794  13.5075  13.6071  13.7795  13.7923
    14.0527  14.1301  14.3888  14.4098  14.6588  14.7142  15.0276  15.0685
    15.4889  15.5618  15.9433  15.9733

          k =-0.5000 0.0000-0.0000 ( 23442 PWs)   bands (ev):

     3.1139   3.1139   3.2261   3.2261   3.4033   3.4033   3.6336   3.6336
     3.9012   3.9012   4.1878   4.1878   4.4603   4.4603   4.6514   4.6514
     4.7563   4.7563   4.8742   4.8742   5.0089   5.0089   5.1310   5.1310
     5.1655   5.1655   5.2094   5.2094   5.3116   5.3116   5.4452   5.4452
     5.5829   5.5829   5.7096   5.7096   5.8161   5.8161   5.8912   5.8912
     5.9216   5.9216   5.9892   5.9892   6.0427   6.0427   6.1412   6.1412
     6.2115   6.2115   6.2527   6.2527   6.3927   6.3927   6.5042   6.5042
     6.5480   6.5480   6.5864   6.5865   6.6254   6.6254   6.6577   6.6577
     6.6831   6.6831   6.6916   6.6916   6.7018   6.7018   6.7431   6.7431
     6.8075   6.8075   6.8410   6.8411   6.8959   6.8960   6.9544   6.9544
     6.9746   6.9746   7.1268   7.1269   7.1851   7.1852   7.1888   7.1888
     7.2177   7.2178   7.2627   7.2627   7.3297   7.3297   7.4068   7.4068
     7.4435   7.4435   7.4882   7.4882   7.5417   7.5417   7.5562   7.5562
     7.6055   7.6055   7.6194   7.6194   7.6610   7.6610   7.6970   7.6970
     7.7966   7.7966   7.8210   7.8210   7.8927   7.8928   7.9736   7.9736
     8.0412   8.0412   8.0602   8.0603   8.1087   8.1087   8.1650   8.1650
     8.2438   8.2439   8.3815   8.3815   8.3941   8.3941   8.5615   8.5615
     8.7082   8.7082   8.8166   8.8167   8.8223   8.8223   8.8670   8.8670
     9.3217   9.3218   9.8882   9.8882  10.5152  10.5152  11.2146  11.2146
    11.9993  11.9993  12.8696  12.8696  13.9798  13.9798  14.8561  14.8562
    15.8703  15.8704  16.4337  16.4341  17.4070  17.4074  17.8080  17.8084
    19.1464  19.1468  19.3033  19.3035

          k =-0.5000 0.1443-0.0000 ( 23476 PWs)   bands (ev):

     3.2512   3.2541   3.3604   3.3607   3.5305   3.5316   3.7533   3.7543
     4.0146   4.0150   4.2992   4.3000   4.5817   4.5822   4.7937   4.7978
     4.8974   4.8978   5.0072   5.0076   5.1342   5.1343   5.2124   5.2159
     5.2782   5.2793   5.2903   5.2947   5.3735   5.3756   5.4885   5.4916
     5.5999   5.6056   5.6764   5.6847   5.7399   5.7445   5.7586   5.7655
     5.8406   5.8437   5.8608   5.8625   5.9397   5.9405   6.0012   6.0057
     6.0486   6.0615   6.0745   6.0772   6.2336   6.2422   6.3796   6.3966
     6.4580   6.4647   6.4906   6.5015   6.5279   6.5403   6.5603   6.5829
     6.5928   6.6103   6.6211   6.6415   6.6554   6.6600   6.6703   6.6744
     6.7038   6.7134   6.7244   6.7331   6.7614   6.7629   6.8721   6.8729
     6.9726   6.9756   7.0654   7.0684   7.1665   7.1710   7.2978   7.2984
     7.3512   7.3542   7.3743   7.3775   7.3848   7.3866   7.4064   7.4161
     7.4472   7.4656   7.4977   7.5011   7.5737   7.5789   7.6343   7.6417
     7.7001   7.7011   7.7665   7.7691   7.7834   7.7861   7.8307   7.8375
     7.8627   7.8670   7.9327   7.9382   8.0767   8.0773   8.0942   8.0948
     8.1636   8.1752   8.1925   8.2038   8.2348   8.2402   8.2943   8.2959
     8.3006   8.3021   8.3477   8.3500   8.4337   8.4375   8.5722   8.5790
     8.6360   8.6534   8.7137   8.7144   8.7531   8.7589   9.0062   9.0153
     9.4680   9.4819  10.0127  10.0263  10.6322  10.6480  11.3383  11.3466
    12.1222  12.1346  12.9859  12.9887  14.2028  14.2101  14.9849  14.9924
    15.9920  15.9934  16.5292  16.5338  17.5484  17.5579  17.8652  17.8686
    19.2070  19.2116  19.3818  19.3921

          k =-0.5000 0.2887-0.0000 ( 23540 PWs)   bands (ev):

     3.6148   3.6249   3.7098   3.7111   3.8509   3.8547   4.0380   4.0422
     4.2608   4.2635   4.5089   4.5143   4.7741   4.7793   5.0387   5.0402
     5.2338   5.2415   5.2832   5.2952   5.3219   5.3312   5.3695   5.3721
     5.4004   5.4017   5.4211   5.4270   5.4502   5.4526   5.5189   5.5206
     5.5270   5.5273   5.5450   5.5564   5.5940   5.6006   5.6436   5.6455
     5.7127   5.7176   5.7684   5.7743   5.8131   5.8162   5.8261   5.8307
     5.9928   6.0005   6.0481   6.0540   6.0705   6.0719   6.1473   6.1517
     6.2103   6.2212   6.2465   6.2528   6.3341   6.3438   6.4042   6.4182
     6.4552   6.4680   6.4933   6.5086   6.5327   6.5361   6.5466   6.5770
     6.5894   6.5902   6.5916   6.6104   6.9748   6.9785   6.9795   6.9861
     6.9994   7.0085   7.0467   7.0528   7.1447   7.1756   7.1815   7.1966
     7.2579   7.2641   7.3336   7.3483   7.4286   7.4550   7.5213   7.5283
     7.5689   7.5715   7.6419   7.6426   7.6818   7.6895   7.7780   7.7817
     7.7893   7.8000   7.9378   7.9431   8.0200   8.0227   8.0497   8.0514
     8.1786   8.1902   8.1946   8.2028   8.2411   8.2475   8.3678   8.3680
     8.4031   8.4076   8.4267   8.4289   8.4470   8.4550   8.4903   8.4913
     8.5237   8.5335   8.5510   8.5729   8.5971   8.5973   8.6255   8.6309
     8.6817   8.6822   8.7094   8.7228   8.8412   8.8443   9.2727   9.2830
     9.7684   9.7855  10.3303  10.3495  10.9607  10.9877  11.6795  11.6930
    12.4554  12.4793  13.2828  13.2900  14.7816  14.7999  15.3735  15.3864
    16.3332  16.3414  16.8385  16.8528  17.9048  17.9332  18.0519  18.0565
    19.2856  19.2927  19.3276  19.3584

          k =-0.5000 0.4330-0.0000 ( 23522 PWs)   bands (ev):

     3.9666   3.9922   4.0624   4.0645   4.1812   4.1942   4.3198   4.3320
     4.4474   4.4597   4.5729   4.5860   4.7183   4.7274   4.8635   4.8678
     4.9660   4.9740   5.0373   5.0437   5.0929   5.0997   5.1387   5.1422
     5.2084   5.2115   5.2952   5.2998   5.3440   5.3491   5.4550   5.4555
     5.5037   5.5060   5.5881   5.5889   5.6313   5.6539   5.7405   5.7468
     5.8535   5.8546   5.9252   5.9327   5.9945   5.9955   6.0486   6.0503
     6.1140   6.1221   6.1781   6.1808   6.2286   6.2350   6.2767   6.2777
     6.3307   6.3382   6.3989   6.4129   6.4414   6.4430   6.4862   6.4997
     6.5328   6.5403   6.6218   6.6359   6.7091   6.7119   6.7466   6.7637
     6.7902   6.8046   6.8313   6.8331   6.8873   6.8987   6.9140   6.9172
     7.0134   7.0173   7.1055   7.1095   7.2228   7.2270   7.3871   7.3874
     7.4898   7.4936   7.5183   7.5240   7.5522   7.5538   7.5808   7.5972
     7.6126   7.6167   7.6877   7.6947   7.8105   7.8125   7.8507   7.8534
     8.0141   8.0155   8.0960   8.1042   8.2146   8.2177   8.2728   8.2734
     8.3619   8.3665   8.4602   8.4623   8.5071   8.5093   8.5321   8.5348
     8.5662   8.5665   8.6318   8.6332   8.6627   8.6840   8.7774   8.7776
     8.7833   8.7865   8.8198   8.8361   8.8555   8.8576   8.8770   8.8800
     8.9231   8.9241   9.0034   9.0035   9.1957   9.1974   9.6281   9.6366
    10.1718  10.1884  10.7875  10.8060  11.4516  11.4844  12.1823  12.1978
    12.9344  12.9674  13.7044  13.7155  15.4355  15.4667  15.9430  15.9591
    16.7625  16.7771  17.3763  17.4165  17.4689  17.5012  17.6835  17.6985
    17.9513  17.9707  18.1173  18.1193

          k =-0.5000 0.5774-0.0000 ( 23534 PWs)   bands (ev):

     4.0281   4.0531   4.1430   4.1436   4.2919   4.3103   4.4400   4.4644
     4.4883   4.4899   4.5179   4.5182   4.5918   4.6048   4.6321   4.6391
     4.7229   4.7266   4.7479   4.7530   4.8213   4.8220   4.8647   4.8661
     4.9357   4.9422   5.0197   5.0290   5.0922   5.0926   5.2278   5.2293
     5.2430   5.2439   5.3395   5.3416   5.5450   5.5513   5.7310   5.7331
     5.8679   5.8757   6.0373   6.0481   6.1885   6.2064   6.2490   6.2810
     6.3229   6.3293   6.3558   6.3577   6.4224   6.4290   6.4928   6.4951
     6.5365   6.5427   6.5696   6.5738   6.5959   6.5998   6.7020   6.7114
     6.7354   6.7389   6.8237   6.8341   6.9505   6.9532   7.0105   7.0135
     7.0992   7.1059   7.1777   7.1842   7.2554   7.2617   7.2981   7.3132
     7.4181   7.4242   7.5592   7.5599   7.6392   7.6481   7.7628   7.7785
     7.8221   7.8241   7.8986   7.8988   7.9280   7.9293   8.0251   8.0276
     8.1426   8.1559   8.1895   8.2048   8.2101   8.2116   8.2185   8.2199
     8.2721   8.2736   8.2815   8.2857   8.4392   8.4397   8.4821   8.4842
     8.5177   8.5205   8.5818   8.5835   8.5987   8.6025   8.6686   8.6713
     8.7349   8.7354   8.7778   8.7851   8.8062   8.8253   8.9049   8.9058
     8.9429   8.9617   9.1138   9.1149   9.2318   9.2325   9.3237   9.3276
     9.3613   9.3708   9.4491   9.4521   9.6693   9.6730  10.1126  10.1153
    10.7090  10.7203  11.3932  11.4045  12.1055  12.1374  12.8480  12.8633
    13.5576  13.5986  14.2714  14.2806  15.2881  15.2942  15.3587  15.3755
    15.5677  15.5766  15.7057  15.7141  15.9845  15.9981  16.4246  16.4377
    16.8963  16.8990  17.1919  17.1951

          k =-0.5000 0.7217-0.0000 ( 23516 PWs)   bands (ev):

     3.9766   3.9983   4.0944   4.0945   4.2506   4.2649   4.2711   4.2818
     4.3522   4.3527   4.4458   4.4498   4.4695   4.4698   4.5531   4.5575
     4.5792   4.5810   4.6294   4.6299   4.6398   4.6453   4.6883   4.6887
     4.7565   4.7614   4.8031   4.8088   4.9343   4.9358   5.0417   5.0418
     5.0702   5.0704   5.2023   5.2023   5.4701   5.4712   5.7328   5.7381
     5.9160   5.9220   6.0584   6.0865   6.1750   6.1828   6.2415   6.2684
     6.3052   6.3134   6.3607   6.3613   6.3847   6.3973   6.4675   6.4695
     6.5220   6.5285   6.6068   6.6254   6.7314   6.7450   6.7967   6.7988
     6.9059   6.9162   7.0064   7.0117   7.0728   7.0813   7.2786   7.2856
     7.3337   7.3349   7.4250   7.4281   7.5796   7.5837   7.7424   7.7614
     7.8281   7.8286   7.8807   7.8917   8.1224   8.1254   8.1440   8.1511
     8.2462   8.2481   8.3947   8.3986   8.4580   8.4596   8.5469   8.5529
     8.5561   8.5599   8.5953   8.5965   8.6487   8.6510   8.6712   8.6757
     8.6960   8.6979   8.7130   8.7181   8.7247   8.7252   8.7366   8.7376
     8.7583   8.7614   8.7744   8.7815   8.7961   8.7970   8.8384   8.8397
     8.8689   8.8720   8.9200   8.9250   8.9867   9.0060   9.0651   9.0654
     9.0716   9.0768   9.5693   9.5866   9.8187   9.8197  10.0490  10.0604
    10.2120  10.2236  10.3039  10.3180  10.4597  10.4764  10.8258  10.8383
    11.3890  11.3932  12.0503  12.0632  12.7467  12.7509  13.3244  13.3608
    13.4705  13.4726  13.5493  13.5768  13.6483  13.7144  13.9362  13.9491
    14.2188  14.2769  14.5390  14.5580  14.8401  14.8894  15.2267  15.2638
    15.5882  15.6073  15.8847  15.9087

          k =-0.5000-0.8660-0.0000 ( 23552 PWs)   bands (ev):

     3.9483   3.9688   4.0661   4.0661   4.2010   4.2121   4.2231   4.2389
     4.2875   4.2880   4.3995   4.4035   4.4283   4.4294   4.4876   4.4921
     4.5322   4.5344   4.5664   4.5670   4.5995   4.6053   4.6548   4.6611
     4.6914   4.6935   4.7079   4.7096   4.8762   4.8778   4.9815   4.9823
     5.0038   5.0040   5.1566   5.1567   5.4385   5.4388   5.7253   5.7305
[...]
     5.6145   5.6263   5.7189   5.7769   5.8034   5.8239   5.8966   5.9015
     5.9090   5.9297   5.9581   6.0205   6.0290   6.0458   6.0982   6.1133
     6.1181   6.1371   6.1743   6.2347   6.2530   6.3488   6.3584   6.3780
     6.4301   6.4736   6.5119   6.5204   6.5640   6.5689   6.5893   6.6289
     6.6386   6.6491   6.6721   6.6928   6.7113   6.7367   6.7720   6.7972
     6.8058   6.8342   6.8562   6.8677   6.9028   6.9261   6.9450   6.9699
     6.9844   6.9905   7.0063   7.0428   7.0967   7.1143   7.1377   7.1688
     7.1761   7.2350   7.2576   7.2650   7.2782   7.3443   7.3554   7.3633
     7.4367   7.4490   7.4879   7.5425   7.5599   7.5742   7.6211   7.6740
     7.7032   7.7479   7.7498   7.7689   7.8263   7.8292   7.8945   7.9016
     7.9312   7.9766   7.9859   8.0500   8.0876   8.1586   8.1644   8.2112
     8.2467   8.3832   8.3892   8.4620   8.6214   8.6349   8.6659   8.6943
     8.7633   8.7708   8.7958   8.8119   8.8417   8.8783   8.9010   8.9856
     8.9903   9.0218   9.4379   9.8034   9.8487   9.9046   9.9707  10.0014
    10.1771  10.4678  10.6318  10.8908  11.3864  11.4244  12.0341  12.2827
    12.6935  12.9381  13.3661  14.0410  14.3420  14.6503  15.3998  15.4955
    15.6775  15.8375  15.8549  16.0067  16.2236  16.6099  17.0116  17.0229
    17.2110  17.2710  17.5277  17.6076

          k =-0.2500 0.4330-0.0000 ( 23431 PWs)   bands (ev):

     3.1068   3.2263   3.3995   3.6353   3.9015   4.1895   4.4601   4.6464
     4.7284   4.7459   4.7465   4.8219   4.8268   4.8706   4.9174   4.9257
     4.9965   5.0276   5.0433   5.1088   5.1330   5.1624   5.1878   5.2189
     5.2491   5.2495   5.3133   5.4521   5.4631   5.4683   5.5278   5.5595
     5.5846   5.6288   5.6657   5.7109   5.7614   5.7784   5.8173   5.8712
     5.9055   5.9062   5.9220   5.9269   5.9843   5.9916   6.0133   6.0390
     6.0459   6.1109   6.1452   6.1557   6.1991   6.2108   6.2462   6.2529
     6.3879   6.3960   6.4045   6.5128   6.5410   6.5669   6.5758   6.5844
     6.6163   6.6474   6.6540   6.6869   6.6907   6.6948   6.7184   6.7442
     6.8049   6.8360   6.8937   6.9633   6.9827   6.9843   6.9859   7.0299
     7.0329   7.1184   7.1834   7.1880   7.1928   7.2200   7.2647   7.2696
     7.3024   7.3279   7.3406   7.3825   7.4069   7.4347   7.4757   7.4852
     7.5489   7.5554   7.6048   7.6206   7.6217   7.6324   7.6576   7.6972
     7.7084   7.7374   7.7594   7.8000   7.8280   7.8578   7.8920   7.9216
     7.9742   8.0220   8.0418   8.0558   8.1057   8.1617   8.1946   8.2399
     8.3882   8.3949   8.4306   8.5587   8.6448   8.7241   8.7939   8.8120
     8.8137   8.8214   8.8415   8.8648   8.8724   8.8774   8.9275   9.0240
     9.0584   9.3126   9.8810  10.4032  10.4489  10.4958  10.5438  10.7033
    10.9471  11.2073  11.2882  11.7272  11.9792  12.2460  12.8177  12.8703
    13.4251  13.9657  14.0163  14.5915  14.8629  14.9860  15.6804  15.7280
    15.8646  15.8944  15.9468  16.1589  16.2492  16.4387  16.4956  16.6051
    16.9960  17.0357  17.4139  17.4628

          k =-0.2500 0.5774-0.0000 ( 23466 PWs)   bands (ev):

     3.6866   3.7984   3.9359   4.1148   4.2688   4.4038   4.5282   4.6337
     4.6439   4.6505   4.7190   4.7424   4.7583   4.8428   4.8803   4.8862
     4.9107   4.9985   5.0079   5.0439   5.0587   5.1206   5.1305   5.1830
     5.2063   5.2114   5.2264   5.2590   5.2799   5.3440   5.3749   5.4132
     5.4251   5.4858   5.5330   5.6208   5.6664   5.6907   5.7648   5.8209
     5.8468   5.8524   5.9229   5.9470   5.9641   5.9799   6.0073   6.0920
     6.1222   6.1943   6.2641   6.2788   6.3336   6.3950   6.4256   6.4583
     6.4912   6.5161   6.5471   6.5612   6.6025   6.6242   6.6404   6.6438
     6.6669   6.7220   6.7379   6.7751   6.8002   6.8037   6.8642   6.9151
     6.9172   6.9663   6.9723   7.0027   7.0898   7.1066   7.1414   7.1617
     7.2580   7.2803   7.3307   7.3326   7.4289   7.4723   7.4942   7.5151
     7.5236   7.5427   7.5513   7.6278   7.6579   7.7300   7.7901   7.8304
     7.8758   7.8916   7.9071   7.9288   7.9553   7.9795   7.9985   8.0594
     8.0651   8.0732   8.0740   8.1106   8.1143   8.1340   8.1924   8.2037
     8.2576   8.3068   8.3374   8.3573   8.4182   8.4481   8.4559   8.4782
     8.5035   8.5398   8.5740   8.6542   8.6916   8.7038   8.7456   8.7486
     8.7774   8.8238   8.8253   8.8707   8.8742   8.8967   8.9845   9.0216
     9.2286   9.8167  10.4711  11.0562  11.1332  11.1533  11.2698  11.4733
    11.7581  11.8962  12.1276  12.5810  12.6571  13.1043  13.4726  13.6358
    13.7077  13.8640  14.0517  14.3391  14.3948  14.7393  15.0022  15.0140
    15.1318  15.4737  15.6535  15.6933  15.8675  16.1998  16.4120  16.5106
    16.6771  17.1769  17.2741  17.4510

          k =-0.2500 0.7217-0.0000 ( 23545 PWs)   bands (ev):

     4.0275   4.1435   4.2916   4.4304   4.4645   4.4894   4.5031   4.5180
     4.5204   4.6057   4.6118   4.6318   4.6737   4.7224   4.7505   4.7536
     4.8222   4.8638   4.8661   4.8694   4.9244   4.9414   4.9456   5.0170
     5.0186   5.0884   5.0941   5.1320   5.1489   5.2293   5.2436   5.2436
     5.3209   5.3391   5.4086   5.4806   5.5469   5.6054   5.7311   5.7331
     5.7680   5.8636   5.8690   5.9502   6.0034   6.0273   6.0401   6.1632
     6.1929   6.2741   6.2844   6.3106   6.3585   6.4057   6.4335   6.5042
     6.5369   6.5378   6.5823   6.5933   6.6575   6.6757   6.6960   6.7132
     6.7352   6.8144   6.8339   6.8362   6.9475   6.9780   7.0118   7.0299
     7.0995   7.1089   7.1736   7.2287   7.2515   7.2823   7.3141   7.3795
     7.4026   7.4274   7.5420   7.5639   7.6424   7.6741   7.7594   7.7816
     7.8228   7.8990   7.8992   7.9325   7.9492   7.9524   8.0327   8.0667
     8.1456   8.1740   8.1902   8.2107   8.2170   8.2639   8.2705   8.2849
     8.3226   8.3519   8.4415   8.4875   8.4981   8.5148   8.5247   8.5515
     8.5756   8.5836   8.5989   8.6266   8.6637   8.6702   8.6854   8.7307
     8.7345   8.7789   8.7841   8.8089   8.8795   8.9050   8.9260   8.9444
     8.9474   8.9573   9.1168   9.2340   9.3258   9.3697   9.4501   9.6726
    10.1153  10.7130  11.3977  11.9587  11.9883  11.9939  12.0389  12.1095
    12.1169  12.2180  12.3478  12.5150  12.7047  12.8497  12.9329  13.1430
    13.3764  13.5596  13.5787  13.7019  14.0213  14.2772  14.4267  14.7158
    15.0060  15.2880  15.3728  15.4481  15.5766  15.6079  15.7065  15.9806
    16.0729  16.1644  16.4227  16.6939

          k =-0.3750 0.1443-0.0000 ( 23495 PWs)   bands (ev):

     2.6189   2.7486   2.9535   3.2275   3.5537   3.8083   3.9017   3.9152
     4.0411   4.2002   4.2745   4.3467   4.4767   4.5618   4.6120   4.6996
     4.7341   4.7422   4.7812   4.8396   4.9475   4.9598   4.9610   4.9730
     5.0535   5.1112   5.1877   5.2768   5.3453   5.4154   5.5047   5.5307
     5.6380   5.6609   5.7014   5.7827   5.7952   5.8154   5.8351   5.8819
     5.8968   5.9219   5.9497   6.0006   6.0262   6.0312   6.0825   6.1153
     6.1626   6.2251   6.2512   6.2703   6.2881   6.3791   6.3948   6.4256
     6.4342   6.4793   6.5107   6.5161   6.5381   6.5569   6.5815   6.6051
     6.6322   6.6337   6.6621   6.6882   6.6954   6.7004   6.7208   6.7410
     6.7671   6.7974   6.8026   6.8342   6.8587   6.8880   6.9379   6.9796
     7.0280   7.0310   7.0628   7.0792   7.1256   7.1489   7.1626   7.2098
     7.2135   7.2818   7.2916   7.3122   7.3516   7.3560   7.3709   7.3978
     7.4284   7.4552   7.4596   7.4857   7.5139   7.5596   7.5952   7.6499
     7.7041   7.7177   7.7238   7.7676   7.7783   7.8242   7.9018   7.9076
     7.9132   7.9767   8.0303   8.0386   8.0612   8.0967   8.1898   8.1939
     8.2166   8.2467   8.2826   8.2990   8.3870   8.4047   8.4251   8.4651
     8.4937   8.5193   8.5538   8.5938   8.6182   8.6342   8.6625   8.6912
     8.7067   8.7217   8.7486   8.7559   8.7927   8.8248   8.9385   9.0964
     9.4054   9.5402   9.9742  10.0789  10.6084  10.7401  11.2919  11.5087
    12.0170  12.3999  12.7865  13.1311  13.5612  14.4118  15.1893  15.4760
    15.7628  15.9168  16.6153  17.1040  17.2714  17.3340  17.4431  17.6439
    17.8690  18.0322  18.3018  18.7531

          k =-0.3750 0.2887-0.0000 ( 23497 PWs)   bands (ev):

     3.0003   3.1222   3.3072   3.5586   3.8539   4.1841   4.2023   4.2653
     4.3554   4.4504   4.5175   4.5463   4.6626   4.7893   4.8057   4.9013
     4.9679   4.9718   5.0365   5.1085   5.1867   5.1917   5.1940   5.2157
     5.2748   5.3328   5.3720   5.4125   5.4197   5.5031   5.5186   5.5896
     5.6312   5.6375   5.6542   5.6907   5.7030   5.7320   5.7407   5.7475
     5.7932   5.8131   5.8457   5.8688   5.8966   5.9070   5.9515   5.9682
     5.9734   6.0001   6.0580   6.1023   6.1196   6.2187   6.2338   6.2804
     6.2830   6.3208   6.3445   6.3608   6.3938   6.4399   6.4554   6.4678
     6.4774   6.5410   6.5548   6.5870   6.6052   6.6163   6.6386   6.6819
     6.7121   6.7227   6.7387   6.7416   6.7964   6.8607   6.9136   6.9370
     6.9562   7.0040   7.0162   7.1099   7.1370   7.2434   7.2535   7.2773
     7.3139   7.3202   7.3482   7.3622   7.3785   7.4033   7.4228   7.4322
     7.4925   7.5206   7.5356   7.5783   7.5923   7.6237   7.6442   7.6462
     7.6945   7.7053   7.7155   7.7670   7.8515   7.8783   7.9362   7.9604
     7.9697   8.0901   8.0958   8.1308   8.1337   8.1504   8.1815   8.2287
     8.2673   8.3152   8.3912   8.5081   8.5524   8.5724   8.5789   8.6120
     8.6153   8.6715   8.6907   8.7078   8.7097   8.7228   8.8294   8.8632
     8.9182   9.0558   9.0959   9.1144   9.1610   9.2686   9.3316   9.4937
     9.8283   9.9137  10.4066  10.4498  11.0551  11.1014  11.7187  11.8783
    12.4262  12.7727  13.1785  13.7829  13.8943  14.7351  15.7715  15.7901
    16.1867  16.2617  16.9560  17.4028  17.4204  17.5073  17.5913  17.7646
    18.0392  18.1140  18.3368  18.6477

          k =-0.3750 0.4330-0.0000 ( 23475 PWs)   bands (ev):

     3.4882   3.5986   3.7453   3.9447   4.1543   4.3744   4.4724   4.5292
     4.5789   4.6302   4.6441   4.7089   4.7226   4.7339   4.8253   4.8261
     4.9498   4.9583   5.0545   5.0720   5.1089   5.1677   5.1719   5.2189
     5.2336   5.2537   5.3098   5.3201   5.3201   5.3591   5.4140   5.4708
     5.5151   5.5868   5.5973   5.6204   5.7146   5.7183   5.7235   5.8286
     5.8424   5.8796   5.9492   5.9689   5.9690   6.0014   6.0748   6.0943
     6.1040   6.1214   6.1918   6.2149   6.2297   6.2450   6.2462   6.3018
     6.3193   6.3337   6.3481   6.3887   6.4069   6.4798   6.4977   6.5389
     6.5898   6.6050   6.6301   6.6330   6.6760   6.7182   6.7293   6.7578
     6.8297   6.8614   6.8788   6.8826   6.9219   6.9478   6.9745   6.9996
     7.0041   7.0103   7.1148   7.1242   7.1900   7.2494   7.2744   7.3842
     7.3995   7.4344   7.4648   7.5135   7.5165   7.5424   7.5687   7.6109
     7.6456   7.6558   7.6594   7.6961   7.6971   7.7604   7.7833   7.8398
     7.9004   7.9198   7.9246   7.9510   7.9796   7.9987   8.0456   8.0877
     8.1323   8.1813   8.2099   8.2460   8.3028   8.3391   8.3428   8.3697
     8.4050   8.4250   8.4875   8.6032   8.6553   8.6817   8.6886   8.7631
     8.7752   8.7788   8.7927   8.8258   8.8315   8.8518   8.9474   8.9802
     9.1018   9.5627   9.5912   9.6197   9.6212   9.7012   9.8580  10.1309
    10.2200  10.5470  10.8668  11.0750  11.5963  11.6764  12.3356  12.3667
    13.0208  13.2187  13.7391  14.3786  14.6169  15.3147  16.2397  16.2782
    16.4849  16.6191  16.7195  16.8843  17.0091  17.0764  17.3596  17.5305
    17.7005  17.7243  17.9676  18.1396

          k =-0.3750 0.5774-0.0000 ( 23521 PWs)   bands (ev):

     3.8170   3.9337   4.0764   4.2581   4.3277   4.3740   4.4015   4.4157
     4.4622   4.5330   4.5503   4.5740   4.6338   4.6635   4.7450   4.7661
     4.7815   4.8021   4.8671   4.8707   4.8912   4.9366   4.9485   4.9699
     5.0057   5.0306   5.0442   5.1061   5.1508   5.1767   5.1875   5.2255
     5.3128   5.3824   5.3877   5.4347   5.5575   5.5980   5.6769   5.8169
     5.8200   5.9567   5.9635   6.0588   6.0974   6.1148   6.1608   6.1901
     6.2579   6.3138   6.3675   6.3793   6.4205   6.4533   6.4778   6.4969
     6.5268   6.5458   6.5683   6.5743   6.6227   6.6416   6.6961   6.7054
     6.7449   6.7578   6.7809   6.8507   6.8784   6.8894   6.9723   7.0053
     7.0172   7.0777   7.1014   7.1212   7.1363   7.2077   7.2422   7.3079
     7.3799   7.4179   7.4554   7.5399   7.5609   7.6407   7.6581   7.7326
     7.7486   7.7510   7.8196   7.8450   7.9238   7.9464   7.9927   8.0223
     8.0594   8.0731   8.0802   8.1141   8.1509   8.1984   8.2102   8.2196
     8.2419   8.2505   8.2546   8.2633   8.3003   8.3218   8.3284   8.3347
     8.3441   8.3624   8.4230   8.4320   8.4798   8.4938   8.5389   8.5707
     8.5768   8.6374   8.6389   8.6854   8.6965   8.7641   8.7737   8.8012
     8.8389   8.8406   8.8670   8.9097   8.9216   8.9392   9.0185   9.0519
     9.4015  10.0585  10.0678  10.1357  10.2233  10.3348  10.5239  10.7665
    10.8214  11.2481  11.4849  11.7887  12.2422  12.4105  12.9898  13.0881
    13.7228  13.7735  14.2316  14.4886  14.6615  14.8368  14.9693  15.2370
    15.2673  15.5237  15.7943  15.8902  16.2294  16.3807  16.5149  16.7132
    16.7145  16.9657  17.1915  17.2300

          k =-0.3750 0.7217-0.0000 ( 23544 PWs)   bands (ev):

     3.9384   4.0576   4.1601   4.2118   4.2556   4.3116   4.3531   4.3720
     4.4143   4.4244   4.4517   4.4695   4.5626   4.5757   4.5799   4.6041
     4.6214   4.6376   4.6764   4.6998   4.7041   4.7301   4.8062   4.8140
     4.8210   4.8340   4.8671   4.9435   4.9737   4.9811   5.0584   5.0858
     5.1614   5.2045   5.2372   5.2606   5.4936   5.4970   5.7192   5.7554
     5.8664   5.9299   5.9698   6.0758   6.1052   6.1407   6.1961   6.2360
     6.3031   6.3613   6.3683   6.3686   6.4141   6.4391   6.4712   6.4817
     6.5036   6.5240   6.5611   6.6185   6.6661   6.7365   6.7389   6.7942
     6.8312   6.8374   6.9156   7.0051   7.0378   7.1361   7.1529   7.2244
     7.2361   7.2849   7.3793   7.4300   7.5025   7.5602   7.5917   7.6175
     7.7273   7.7910   7.8341   7.8470   7.8663   7.9870   8.0241   8.0850
     8.1320   8.2101   8.2364   8.3061   8.3153   8.3640   8.3774   8.4125
     8.4723   8.4838   8.4889   8.5345   8.5490   8.5532   8.5670   8.5687
     8.5929   8.6080   8.6172   8.6191   8.6388   8.6608   8.6685   8.6956
     8.6980   8.7100   8.7188   8.7201   8.7456   8.7556   8.7622   8.7859
     8.8090   8.8379   8.8599   8.8831   8.9150   8.9515   8.9811   8.9918
     9.0188   9.0354   9.0576   9.1772   9.3883   9.5239   9.5596   9.7140
    10.1811  10.7472  10.8432  10.8811  11.0548  11.1988  11.3693  11.5889
    11.5900  11.8948  12.2480  12.3472  12.5325  12.7185  12.8635  13.0216
    13.1085  13.1152  13.6279  13.7703  13.8533  14.2208  14.2869  14.3822
    14.4589  14.5102  14.6872  14.8228  14.8707  15.1749  15.1994  15.5917
    15.7129  15.8929  16.0612  16.2465

     the Fermi energy is    10.7336 ev

!    total energy              =  -20153.52558808 Ry

     total all-electron energy =   -988623.523955 Ry
     estimated scf accuracy    <       0.00000061 Ry
     smearing contrib. (-TS)   =      -0.02217158 Ry
     internal energy E=F+TS    =  -20153.50341649 Ry

     The total energy is F=E-TS. E is the sum of the following terms:
     one-electron contribution =   -8803.88774902 Ry
     hartree contribution      =    4727.45991599 Ry
     xc contribution           =    -833.58669803 Ry
     ewald contribution        =    2761.84423321 Ry
     one-center paw contrib.   =  -18005.33311865 Ry

     convergence has been achieved in  28 iterations

     negative rho (up, down):  2.451E-03 0.000E+00

     Forces acting on atoms (cartesian axes, Ry/au):

     atom    1 type  1   force =    -0.00000729   -0.00000443   -0.00330346
     atom    2 type  1   force =    -0.00000240   -0.00003239    0.00352518
     atom    3 type  1   force =     0.00004997   -0.00002462    0.00030724
     atom    4 type  1   force =     0.00049210    0.00277825   -0.00150155
     atom    5 type  1   force =    -0.00004505   -0.00000706   -0.00005040
     atom    6 type  1   force =     0.00015176   -0.00001664    0.00457228
     atom    7 type  1   force =    -0.00003933   -0.00002825    0.00099171
     atom    8 type  1   force =    -0.00048519   -0.00280207    0.00127613
     atom    9 type  1   force =     0.00002530   -0.00000355    0.00005270
     atom   10 type  1   force =     0.00004568   -0.00000615   -0.00129845
     atom   11 type  1   force =    -0.00015082   -0.00000385   -0.00447575
     atom   12 type  1   force =    -0.00002904    0.00026002    0.00055216
     atom   13 type  1   force =    -0.00000698   -0.00029268   -0.00064770
     atom   14 type  1   force =     0.00015109   -0.00001432    0.00457866
     atom   15 type  1   force =    -0.00003889    0.00003050    0.00099201
     atom   16 type  1   force =    -0.00048484   -0.00273919    0.00127249
     atom   17 type  1   force =     0.00002475   -0.00000275    0.00004823
     atom   18 type  1   force =     0.00003940   -0.00000716   -0.00130603
     atom   19 type  1   force =    -0.00015537    0.00005482   -0.00447425
     atom   20 type  1   force =    -0.00003408    0.00031904    0.00055933
     atom   21 type  1   force =    -0.00000333   -0.00029184   -0.00064477
     atom   22 type  1   force =     0.00000442   -0.00000974   -0.00329745
     atom   23 type  1   force =     0.00000128    0.00002845    0.00352416
     atom   24 type  1   force =     0.00004985    0.00004031    0.00030947
     atom   25 type  1   force =     0.00049378    0.00278233   -0.00150650
     atom   26 type  1   force =    -0.00004676   -0.00000705   -0.00005544

     Total force =     0.013250     Total SCF correction =     0.004907
     SCF correction compared to forces is large: reduce conv_thr to get better values

     Writing all to output data dir ./pwscf.save/
 
     init_run     :     26.08s CPU     26.60s WALL (       1 calls)
     electrons    :   1950.36s CPU   1970.37s WALL (       1 calls)
     forces       :      8.49s CPU      8.55s WALL (       1 calls)

     Called by init_run:
     wfcinit      :     25.44s CPU     25.87s WALL (       1 calls)
     potinit      :      0.34s CPU      0.40s WALL (       1 calls)
     hinit0       :      0.21s CPU      0.23s WALL (       1 calls)

     Called by electrons:
     c_bands      :   1769.79s CPU   1787.61s WALL (      29 calls)
     sum_band     :    171.91s CPU    173.40s WALL (      29 calls)
     v_of_rho     :      0.63s CPU      1.00s WALL (      29 calls)
     newd         :      1.54s CPU      1.75s WALL (      29 calls)
     PAW_pot      :      6.67s CPU      6.71s WALL (      29 calls)
     mix_rho      :      0.10s CPU      0.11s WALL (      29 calls)

     Called by c_bands:
     init_us_2    :      4.67s CPU      4.76s WALL (    3000 calls)
     init_us_2:cp :      4.66s CPU      4.75s WALL (    3000 calls)
     cegterg      :   1703.34s CPU   1720.26s WALL (    1450 calls)

     Called by *egterg:
     cdiaghg      :    197.40s CPU    200.09s WALL (    9303 calls)
     h_psi        :    960.67s CPU    969.30s WALL (    9403 calls)
     s_psi        :    116.02s CPU    116.69s WALL (    9403 calls)
     g_psi        :      2.32s CPU      2.34s WALL (    7903 calls)

     Called by h_psi:
     h_psi:calbec :    142.10s CPU    142.74s WALL (    9403 calls)
     vloc_psi     :    696.61s CPU    701.69s WALL (    9403 calls)
     add_vuspsi   :    120.49s CPU    121.00s WALL (    9403 calls)

     General routines
     calbec       :    200.40s CPU    201.30s WALL (   11053 calls)
     fft          :      0.76s CPU      1.20s WALL (     331 calls)
     ffts         :      0.04s CPU      0.04s WALL (      29 calls)
     fftw         :    781.05s CPU    786.67s WALL ( 1532850 calls)
 
     Parallel routines
 
     PWSCF        :  33m13.29s CPU  33m46.42s WALL

 
   This run was terminated on:  20:24:40  15Feb2024            

=------------------------------------------------------------------------------=
   JOB DONE.
=------------------------------------------------------------------------------=
