MPI startup(): Warning: I_MPI_PMI_LIBRARY will be ignored since the hydra process manager was found
MPI startup(): Warning: I_MPI_PMI_LIBRARY will be ignored since the hydra process manager was found
MPI startup(): Warning: I_MPI_PMI_LIBRARY will be ignored since the hydra process manager was found
MPI startup(): Warning: I_MPI_PMI_LIBRARY will be ignored since the hydra process manager was found
MPI startup(): Warning: I_MPI_PMI_LIBRARY will be ignored since the hydra process manager was found
MPI startup(): Warning: I_MPI_PMI_LIBRARY will be ignored since the hydra process manager was found
MPI startup(): Warning: I_MPI_PMI_LIBRARY will be ignored since the hydra process manager was found
MPI startup(): Warning: I_MPI_PMI_LIBRARY will be ignored since the hydra process manager was found
MPI startup(): Warning: I_MPI_PMI_LIBRARY will be ignored since the hydra process manager was found
MPI startup(): Warning: I_MPI_PMI_LIBRARY will be ignored since the hydra process manager was found

     Program PWSCF v.7.0 starts on 15Feb2024 at 21:32:13 

     This program is part of the open-source Quantum ESPRESSO suite
     for quantum simulation of materials; please cite
         "P. Giannozzi et al., J. Phys.:Condens. Matter 21 395502 (2009);
         "P. Giannozzi et al., J. Phys.:Condens. Matter 29 465901 (2017);
         "P. Giannozzi et al., J. Chem. Phys. 152 154105 (2020);
          URL http://www.quantum-espresso.org", 
     in publications or presentations arising from this work. More details at
     http://www.quantum-espresso.org/quote

     Parallel version (MPI), running on    10 processors

     MPI processes distributed on     1 nodes
     R & G space division:  proc/nbgrp/npool/nimage =      10
     180852 MiB available memory on the printing compute node when the environment starts
 
     Reading input from GSF111_0.2.in
Warning: card &CELL ignored
Warning: card / ignored

     Current dimensions of program PWSCF are:
     Max number of different atomic species (ntypx) = 10
     Max number of k-points (npk) =  40000
     Max angular momentum in pseudopotentials (lmaxx) =  4
     file Au.pbe-n-kjpaw_psl.1.0.0.UPF: wavefunction(s)  6S 5D renormalized
     Found identity + ( -0.5000  0.5000  0.0000) symmetry
     This is a supercell, fractional translations are disabled

     Subspace diagonalization in iterative solution of the eigenvalue problem:
     one sub-group per band group will be used
     scalapack distributed-memory algorithm (size of sub-group:  3*  3 procs)

 
     Parallelization info
     --------------------
     sticks:   dense  smooth     PW     G-vecs:    dense   smooth      PW
     Min          85      85     25                18799    18799    3045
     Max          87      87     26                18816    18816    3065
     Sum         859     859    251               188065   188065   30575
 
     Using Slab Decomposition
 


     bravais-lattice index     =            0
     lattice parameter (alat)  =       9.6360  a.u.
     unit-cell volume          =    3935.2145 (a.u.)^3
     number of atoms/cell      =           26
     number of atomic types    =            1
     number of electrons       =       286.00
     number of Kohn-Sham states=          172
     kinetic-energy cutoff     =      50.0000  Ry
     charge density cutoff     =     200.0000  Ry
     scf convergence threshold =      1.0E-06
     mixing beta               =       0.7000
     number of iterations used =            8  plain     mixing
     Exchange-correlation= SLA  PW   PBX  PBC
                           (   1   4   3   4   0   0   0)

     celldm(1)=   9.635999  celldm(2)=   0.000000  celldm(3)=   0.000000
     celldm(4)=   0.000000  celldm(5)=   0.000000  celldm(6)=   0.000000

     crystal axes: (cart. coord. in units of alat)
               a(1) = (   1.000000   0.000000   0.000000 )  
               a(2) = (   0.000000   0.577350   0.000000 )  
               a(3) = (  -0.000005   0.000000   7.617966 )  

     reciprocal axes: (cart. coord. in units 2 pi/alat)
               b(1) = (  1.000000  0.000000  0.000001 )  
               b(2) = (  0.000000  1.732052  0.000000 )  
               b(3) = (  0.000000  0.000000  0.131269 )  


     PseudoPot. # 1 for Au read from file:
     ./Au.pbe-n-kjpaw_psl.1.0.0.UPF
     MD5 check sum: 4db85c736373c707a97ce4c36c2a9d23
     Pseudo is Projector augmented-wave + core cor, Zval = 11.0
     Generated using &quot;atomic&quot; code by A. Dal Corso  v.6.3
     Shape of augmentation charge: PSQ
     Using radial grid of 1279 points,  6 beta functions with: 
                l(1) =   0
                l(2) =   0
                l(3) =   1
                l(4) =   1
                l(5) =   2
                l(6) =   2
     Q(r) pseudized with 0 coefficients 


     atomic species   valence    mass     pseudopotential
        Au            11.00   196.96657     Au( 1.00)

     No symmetry found



   Cartesian axes

     site n.     atom                  positions (alat units)
         1           Au  tau(   1) = (   0.0000000   0.0000000   0.0000000  )
         2           Au  tau(   2) = (   0.9999954   0.1154702   5.6568550  )
         3           Au  tau(   3) = (   0.9999966   0.1154702   4.2426411  )
         4           Au  tau(   4) = (   0.9999976   0.0000000   2.8284275  )
         5           Au  tau(   5) = (   0.9999988   0.0000000   1.4142138  )
         6           Au  tau(   6) = (   0.3333329   0.0000000   0.4714045  )
         7           Au  tau(   7) = (   0.3333296   0.1154702   4.7140455  )
         8           Au  tau(   8) = (   0.3333308   0.1154702   3.2998319  )
         9           Au  tau(   9) = (   0.3333318   0.0000000   1.8856185  )
        10           Au  tau(  10) = (   0.6666659   0.0000000   0.9428093  )
        11           Au  tau(  11) = (   0.6666625   0.1154702   5.1854506  )
        12           Au  tau(  12) = (   0.6666637   0.1154702   3.7712367  )
        13           Au  tau(  13) = (   0.6666649   0.0000000   2.3570234  )
        14           Au  tau(  14) = (   0.8333330   0.2886749   0.4714045  )
        15           Au  tau(  15) = (   0.8333294   0.4041451   4.7140455  )
        16           Au  tau(  16) = (   0.8333306   0.4041451   3.2998319  )
        17           Au  tau(  17) = (   0.8333318   0.2886749   1.8856185  )
        18           Au  tau(  18) = (   0.1666658   0.2886749   0.9428093  )
        19           Au  tau(  19) = (   0.1666624   0.4041451   5.1854506  )
        20           Au  tau(  20) = (   0.1666636   0.4041451   3.7712367  )
        21           Au  tau(  21) = (   0.1666648   0.2886749   2.3570234  )
        22           Au  tau(  22) = (   0.5000001   0.2886749   0.0000000  )
        23           Au  tau(  23) = (   0.4999955   0.4041451   5.6568550  )
        24           Au  tau(  24) = (   0.4999965   0.4041451   4.2426411  )
        25           Au  tau(  25) = (   0.4999977   0.2886749   2.8284275  )
        26           Au  tau(  26) = (   0.4999989   0.2886749   1.4142138  )

     number of k points=    50  Gaussian smearing, width (Ry)=  0.0200
                       cart. coord. in units 2pi/alat
        k(    1) = (   0.0000000   0.0000000   0.0000000), wk =   0.0208333
        k(    2) = (   0.0000000   0.1443376   0.0000000), wk =   0.0416667
        k(    3) = (   0.0000000   0.2886753   0.0000000), wk =   0.0416667
        k(    4) = (   0.0000000   0.4330129   0.0000000), wk =   0.0416667
        k(    5) = (   0.0000000   0.5773506   0.0000000), wk =   0.0416667
        k(    6) = (   0.0000000   0.7216882   0.0000000), wk =   0.0416667
        k(    7) = (   0.0000000  -0.8660259   0.0000000), wk =   0.0208333
        k(    8) = (   0.1250000   0.0000000   0.0000001), wk =   0.0416667
        k(    9) = (   0.1250000   0.1443376   0.0000001), wk =   0.0416667
        k(   10) = (   0.1250000   0.2886753   0.0000001), wk =   0.0416667
        k(   11) = (   0.1250000   0.4330129   0.0000001), wk =   0.0416667
        k(   12) = (   0.1250000   0.5773506   0.0000001), wk =   0.0416667
        k(   13) = (   0.1250000   0.7216882   0.0000001), wk =   0.0416667
        k(   14) = (   0.1250000  -0.8660259   0.0000001), wk =   0.0416667
        k(   15) = (   0.2500000   0.0000000   0.0000002), wk =   0.0416667
        k(   16) = (   0.2500000   0.1443376   0.0000002), wk =   0.0416667
        k(   17) = (   0.2500000   0.2886753   0.0000002), wk =   0.0416667
        k(   18) = (   0.2500000   0.4330129   0.0000002), wk =   0.0416667
        k(   19) = (   0.2500000   0.5773506   0.0000002), wk =   0.0416667
        k(   20) = (   0.2500000   0.7216882   0.0000002), wk =   0.0416667
        k(   21) = (   0.2500000  -0.8660259   0.0000002), wk =   0.0416667
        k(   22) = (   0.3750000   0.0000000   0.0000002), wk =   0.0416667
        k(   23) = (   0.3750000   0.1443376   0.0000002), wk =   0.0416667
        k(   24) = (   0.3750000   0.2886753   0.0000002), wk =   0.0416667
        k(   25) = (   0.3750000   0.4330129   0.0000002), wk =   0.0416667
        k(   26) = (   0.3750000   0.5773506   0.0000002), wk =   0.0416667
        k(   27) = (   0.3750000   0.7216882   0.0000002), wk =   0.0416667
        k(   28) = (   0.3750000  -0.8660259   0.0000002), wk =   0.0416667
        k(   29) = (  -0.5000000   0.0000000  -0.0000003), wk =   0.0208333
        k(   30) = (  -0.5000000   0.1443376  -0.0000003), wk =   0.0416667
        k(   31) = (  -0.5000000   0.2886753  -0.0000003), wk =   0.0416667
        k(   32) = (  -0.5000000   0.4330129  -0.0000003), wk =   0.0416667
        k(   33) = (  -0.5000000   0.5773506  -0.0000003), wk =   0.0416667
        k(   34) = (  -0.5000000   0.7216882  -0.0000003), wk =   0.0416667
        k(   35) = (  -0.5000000  -0.8660259  -0.0000003), wk =   0.0208333
        k(   36) = (  -0.1250000   0.1443376  -0.0000001), wk =   0.0416667
        k(   37) = (  -0.1250000   0.2886753  -0.0000001), wk =   0.0416667
        k(   38) = (  -0.1250000   0.4330129  -0.0000001), wk =   0.0416667
        k(   39) = (  -0.1250000   0.5773506  -0.0000001), wk =   0.0416667
        k(   40) = (  -0.1250000   0.7216882  -0.0000001), wk =   0.0416667
        k(   41) = (  -0.2500000   0.1443376  -0.0000002), wk =   0.0416667
        k(   42) = (  -0.2500000   0.2886753  -0.0000002), wk =   0.0416667
        k(   43) = (  -0.2500000   0.4330129  -0.0000002), wk =   0.0416667
        k(   44) = (  -0.2500000   0.5773506  -0.0000002), wk =   0.0416667
        k(   45) = (  -0.2500000   0.7216882  -0.0000002), wk =   0.0416667
        k(   46) = (  -0.3750000   0.1443376  -0.0000002), wk =   0.0416667
        k(   47) = (  -0.3750000   0.2886753  -0.0000002), wk =   0.0416667
        k(   48) = (  -0.3750000   0.4330129  -0.0000002), wk =   0.0416667
        k(   49) = (  -0.3750000   0.5773506  -0.0000002), wk =   0.0416667
        k(   50) = (  -0.3750000   0.7216882  -0.0000002), wk =   0.0416667

     Dense  grid:   188065 G-vectors     FFT dimensions: (  45,  25, 360)

     Estimated max dynamical RAM per process >     418.32 MB

     Estimated total dynamical RAM >       4.09 GB

     Initial potential from superposition of free atoms

     starting charge     285.9971, renormalised to     286.0000

     negative rho (up, down):  2.509E-03 0.000E+00
     Starting wfcs are  234 randomized atomic wfcs
     Checking if some PAW data can be deallocated... 

     total cpu time spent up to now is       27.7 secs

     Self-consistent Calculation

     iteration #  1     ecut=    50.00 Ry     beta= 0.70
     Davidson diagonalization with overlap
     ethr =  1.00E-02,  avg # of iterations =  4.9

     Threshold (ethr) on eigenvalues was too large:
     Diagonalizing with lowered threshold

     Davidson diagonalization with overlap
     ethr =  4.13E-04,  avg # of iterations =  4.4

     negative rho (up, down):  1.727E-03 0.000E+00

     total cpu time spent up to now is      176.2 secs

     total energy              =  -20152.79469116 Ry
     estimated scf accuracy    <       1.49185461 Ry

     iteration #  2     ecut=    50.00 Ry     beta= 0.70
     Davidson diagonalization with overlap
     c_bands:  5 eigenvalues not converged
     c_bands:  1 eigenvalues not converged
     ethr =  5.22E-04,  avg # of iterations = 16.3

     negative rho (up, down):  1.726E-03 0.000E+00

     total cpu time spent up to now is      328.2 secs

     total energy              =  -20130.84287927 Ry
     estimated scf accuracy    <    3095.12196803 Ry

     iteration #  3     ecut=    50.00 Ry     beta= 0.70
     Davidson diagonalization with overlap
     c_bands:  2 eigenvalues not converged
     ethr =  5.22E-04,  avg # of iterations = 11.2

     negative rho (up, down):  1.938E-03 0.000E+00

     total cpu time spent up to now is      453.1 secs

     total energy              =  -20152.45791329 Ry
     estimated scf accuracy    <       4.22123783 Ry

     iteration #  4     ecut=    50.00 Ry     beta= 0.70
     Davidson diagonalization with overlap
     ethr =  5.22E-04,  avg # of iterations = 10.8

     negative rho (up, down):  1.997E-03 0.000E+00

     total cpu time spent up to now is      551.3 secs

     total energy              =  -20149.20072959 Ry
     estimated scf accuracy    <     171.60477227 Ry

     iteration #  5     ecut=    50.00 Ry     beta= 0.70
     Davidson diagonalization with overlap
     ethr =  5.22E-04,  avg # of iterations = 11.2

     negative rho (up, down):  1.986E-03 0.000E+00

     total cpu time spent up to now is      665.7 secs

     total energy              =  -20144.60058970 Ry
     estimated scf accuracy    <    1430.89996560 Ry

     iteration #  6     ecut=    50.00 Ry     beta= 0.70
     Davidson diagonalization with overlap
     ethr =  5.22E-04,  avg # of iterations = 10.2

     negative rho (up, down):  1.956E-03 0.000E+00

     total cpu time spent up to now is      755.7 secs

     total energy              =  -20153.39304497 Ry
     estimated scf accuracy    <       1.54444170 Ry

     iteration #  7     ecut=    50.00 Ry     beta= 0.70
     Davidson diagonalization with overlap
     ethr =  5.22E-04,  avg # of iterations =  2.0

     negative rho (up, down):  1.981E-03 0.000E+00

     total cpu time spent up to now is      810.5 secs

     total energy              =  -20153.47157875 Ry
     estimated scf accuracy    <       1.00045785 Ry

     iteration #  8     ecut=    50.00 Ry     beta= 0.70
     Davidson diagonalization with overlap
     ethr =  3.50E-04,  avg # of iterations =  1.4

     negative rho (up, down):  2.021E-03 0.000E+00

     total cpu time spent up to now is      863.8 secs

     total energy              =  -20153.49262193 Ry
     estimated scf accuracy    <       0.49740486 Ry

     iteration #  9     ecut=    50.00 Ry     beta= 0.70
     Davidson diagonalization with overlap
     c_bands:  1 eigenvalues not converged
     ethr =  1.74E-04,  avg # of iterations =  3.7

     negative rho (up, down):  2.107E-03 0.000E+00

     total cpu time spent up to now is      917.4 secs

     total energy              =  -20153.49253728 Ry
     estimated scf accuracy    <       0.63191961 Ry

     iteration # 10     ecut=    50.00 Ry     beta= 0.70
     Davidson diagonalization with overlap
     ethr =  1.74E-04,  avg # of iterations =  1.3

     negative rho (up, down):  2.265E-03 0.000E+00

     total cpu time spent up to now is      964.7 secs

     total energy              =  -20153.51037575 Ry
     estimated scf accuracy    <       0.06801182 Ry

     iteration # 11     ecut=    50.00 Ry     beta= 0.70
     Davidson diagonalization with overlap
     c_bands:  1 eigenvalues not converged
     c_bands:  1 eigenvalues not converged
     c_bands:  1 eigenvalues not converged
     ethr =  2.38E-05,  avg # of iterations =  9.8

     negative rho (up, down):  2.340E-03 0.000E+00

     total cpu time spent up to now is     1031.9 secs

     total energy              =  -20153.51319507 Ry
     estimated scf accuracy    <       0.00956778 Ry

     iteration # 12     ecut=    50.00 Ry     beta= 0.70
     Davidson diagonalization with overlap
     c_bands:  1 eigenvalues not converged
     c_bands:  1 eigenvalues not converged
     c_bands:  1 eigenvalues not converged
     c_bands:  1 eigenvalues not converged
     c_bands:  1 eigenvalues not converged
     ethr =  3.35E-06,  avg # of iterations = 12.3

     negative rho (up, down):  2.307E-03 0.000E+00

     total cpu time spent up to now is     1125.7 secs

     total energy              =  -20153.51066396 Ry
     estimated scf accuracy    <       0.16777477 Ry

     iteration # 13     ecut=    50.00 Ry     beta= 0.70
     Davidson diagonalization with overlap
     c_bands:  1 eigenvalues not converged
     ethr =  3.35E-06,  avg # of iterations =  9.1

     negative rho (up, down):  2.352E-03 0.000E+00

     total cpu time spent up to now is     1186.7 secs

     total energy              =  -20153.51443631 Ry
     estimated scf accuracy    <       0.02605726 Ry

     iteration # 14     ecut=    50.00 Ry     beta= 0.70
     Davidson diagonalization with overlap
     ethr =  3.35E-06,  avg # of iterations =  3.1

     negative rho (up, down):  2.336E-03 0.000E+00

     total cpu time spent up to now is     1244.9 secs

     total energy              =  -20153.51465803 Ry
     estimated scf accuracy    <       0.01448923 Ry

     iteration # 15     ecut=    50.00 Ry     beta= 0.70
     Davidson diagonalization with overlap
     ethr =  3.35E-06,  avg # of iterations = 12.2

     negative rho (up, down):  2.338E-03 0.000E+00

     total cpu time spent up to now is     1314.5 secs

     total energy              =  -20153.50936365 Ry
     estimated scf accuracy    <       0.59791631 Ry

     iteration # 16     ecut=    50.00 Ry     beta= 0.70
     Davidson diagonalization with overlap
     c_bands:  1 eigenvalues not converged
     c_bands:  1 eigenvalues not converged
     ethr =  3.35E-06,  avg # of iterations = 12.9

     negative rho (up, down):  2.343E-03 0.000E+00

     total cpu time spent up to now is     1387.1 secs

     total energy              =  -20153.51534692 Ry
     estimated scf accuracy    <       0.00232880 Ry

     iteration # 17     ecut=    50.00 Ry     beta= 0.70
     Davidson diagonalization with overlap
     ethr =  8.14E-07,  avg # of iterations =  2.0

     negative rho (up, down):  2.344E-03 0.000E+00

     total cpu time spent up to now is     1438.1 secs

     total energy              =  -20153.51545215 Ry
     estimated scf accuracy    <       0.00043199 Ry

     iteration # 18     ecut=    50.00 Ry     beta= 0.70
     Davidson diagonalization with overlap
     ethr =  1.51E-07,  avg # of iterations =  2.0

     negative rho (up, down):  2.344E-03 0.000E+00

     total cpu time spent up to now is     1489.8 secs

     total energy              =  -20153.51546463 Ry
     estimated scf accuracy    <       0.00028412 Ry

     iteration # 19     ecut=    50.00 Ry     beta= 0.70
     Davidson diagonalization with overlap
     ethr =  9.93E-08,  avg # of iterations =  1.2

     negative rho (up, down):  2.347E-03 0.000E+00

     total cpu time spent up to now is     1541.4 secs

     total energy              =  -20153.51544798 Ry
     estimated scf accuracy    <       0.00059984 Ry

     iteration # 20     ecut=    50.00 Ry     beta= 0.70
     Davidson diagonalization with overlap
     ethr =  9.93E-08,  avg # of iterations =  2.0

     negative rho (up, down):  2.349E-03 0.000E+00

     total cpu time spent up to now is     1598.3 secs

     total energy              =  -20153.51544074 Ry
     estimated scf accuracy    <       0.00082627 Ry

     iteration # 21     ecut=    50.00 Ry     beta= 0.70
     Davidson diagonalization with overlap
     ethr =  9.93E-08,  avg # of iterations =  1.9

     negative rho (up, down):  2.349E-03 0.000E+00

     total cpu time spent up to now is     1649.0 secs

     total energy              =  -20153.51548110 Ry
     estimated scf accuracy    <       0.00007524 Ry

     iteration # 22     ecut=    50.00 Ry     beta= 0.70
     Davidson diagonalization with overlap
     ethr =  2.63E-08,  avg # of iterations =  2.0

     negative rho (up, down):  2.350E-03 0.000E+00

     total cpu time spent up to now is     1705.2 secs

     total energy              =  -20153.51548393 Ry
     estimated scf accuracy    <       0.00005540 Ry

     iteration # 23     ecut=    50.00 Ry     beta= 0.70
     Davidson diagonalization with overlap
     ethr =  1.94E-08,  avg # of iterations =  2.0

     negative rho (up, down):  2.350E-03 0.000E+00

     total cpu time spent up to now is     1762.6 secs

     total energy              =  -20153.51546769 Ry
     estimated scf accuracy    <       0.00138378 Ry

     iteration # 24     ecut=    50.00 Ry     beta= 0.70
     Davidson diagonalization with overlap
     ethr =  1.94E-08,  avg # of iterations =  2.0

     negative rho (up, down):  2.350E-03 0.000E+00

     total cpu time spent up to now is     1817.7 secs

     total energy              =  -20153.51547958 Ry
     estimated scf accuracy    <       0.00034675 Ry

     iteration # 25     ecut=    50.00 Ry     beta= 0.70
     Davidson diagonalization with overlap
     ethr =  1.94E-08,  avg # of iterations =  1.1

     negative rho (up, down):  2.350E-03 0.000E+00

     total cpu time spent up to now is     1869.2 secs

     total energy              =  -20153.51549124 Ry
     estimated scf accuracy    <       0.00010610 Ry

     iteration # 26     ecut=    50.00 Ry     beta= 0.70
     Davidson diagonalization with overlap
     ethr =  1.94E-08,  avg # of iterations =  1.0

     negative rho (up, down):  2.350E-03 0.000E+00

     total cpu time spent up to now is     1920.3 secs

     total energy              =  -20153.51548679 Ry
     estimated scf accuracy    <       0.00078876 Ry

     iteration # 27     ecut=    50.00 Ry     beta= 0.70
     Davidson diagonalization with overlap
     ethr =  1.94E-08,  avg # of iterations =  1.0

     negative rho (up, down):  2.351E-03 0.000E+00

     total cpu time spent up to now is     1964.1 secs

     total energy              =  -20153.51549505 Ry
     estimated scf accuracy    <       0.00000299 Ry

     iteration # 28     ecut=    50.00 Ry     beta= 0.70
     Davidson diagonalization with overlap
     ethr =  1.05E-09,  avg # of iterations =  3.0

     negative rho (up, down):  2.351E-03 0.000E+00

     total cpu time spent up to now is     2025.1 secs

     total energy              =  -20153.51549514 Ry
     estimated scf accuracy    <       0.00000642 Ry

     iteration # 29     ecut=    50.00 Ry     beta= 0.70
     Davidson diagonalization with overlap
     ethr =  1.05E-09,  avg # of iterations =  1.2

     negative rho (up, down):  2.350E-03 0.000E+00

     total cpu time spent up to now is     2074.8 secs

     total energy              =  -20153.51549536 Ry
     estimated scf accuracy    <       0.00000822 Ry

     iteration # 30     ecut=    50.00 Ry     beta= 0.70
     Davidson diagonalization with overlap
     ethr =  1.05E-09,  avg # of iterations =  1.0

     negative rho (up, down):  2.350E-03 0.000E+00

     total cpu time spent up to now is     2124.3 secs

     total energy              =  -20153.51549569 Ry
     estimated scf accuracy    <       0.00000169 Ry

     iteration # 31     ecut=    50.00 Ry     beta= 0.70
     Davidson diagonalization with overlap
     ethr =  5.89E-10,  avg # of iterations =  1.0

     negative rho (up, down):  2.351E-03 0.000E+00

     total cpu time spent up to now is     2172.2 secs

     End of self-consistent calculation

          k = 0.0000 0.0000 0.0000 ( 23605 PWs)   bands (ev):

     1.5084   1.6508   1.8849   2.1895   2.5533   2.9443   3.3209   3.6237
     3.8157   3.8946   3.9362   3.9495   4.0658   4.0708   4.0721   4.2070
     4.2275   4.2859   4.4063   4.4274   4.5141   4.5340   4.5654   4.6011
     4.6574   4.6906   4.7473   4.8782   4.9815   5.0021   5.1612   5.4381
     5.6569   5.7746   5.8200   5.9662   6.1395   6.1421   6.1774   6.2294
     6.2502   6.2691   6.3060   6.3161   6.3164   6.3301   6.3409   6.3524
     6.3536   6.3710   6.3920   6.4017   6.4021   6.4051   6.4201   6.4339
     6.4366   6.4533   6.4699   6.4812   6.4999   6.5252   6.5318   6.5410
     6.5571   6.5600   6.5754   6.5868   6.6300   6.6380   6.6970   6.7017
     6.7485   6.7686   6.8479   6.8696   6.8700   6.8712   6.8718   7.0370
     7.0831   7.1444   7.1756   7.2957   7.4390   7.4606   7.5656   7.5717
     7.6071   7.6849   7.6870   7.6934   7.7001   7.7170   7.7303   7.7657
     7.7975   7.8062   7.8723   7.8852   7.8982   7.9491   8.0149   8.0201
     8.0276   8.1037   8.1722   8.1974   8.3109   8.3691   8.3824   8.3867
     8.4765   8.5142   8.5309   8.5531   8.5702   8.5955   8.6933   8.7063
     8.7099   8.7203   8.7582   8.7611   8.7668   8.7989   8.8045   8.8214
     8.8316   8.8357   8.8396   8.8620   8.8810   8.9012   8.9371   8.9546
     9.0154   9.0278   9.1082   9.2194   9.2209   9.4095  10.2058  10.5093
    10.5639  10.6296  10.9332  11.2473  11.4701  11.6263  11.7287  11.7957
    11.8529  11.8845  11.9243  12.1206  12.1219  13.5432  13.7335  13.9632
    13.9910  14.2902  14.5504  14.8663  14.8883  15.0634  15.3501  15.8998
    16.2192  16.3864  16.4586  16.4705

          k = 0.0000 0.1443 0.0000 ( 23551 PWs)   bands (ev):

     1.6606   1.8022   2.0342   2.3370   2.6989   3.0893   3.4661   3.7677
     3.9542   4.0258   4.0615   4.0710   4.1886   4.2064   4.2077   4.3001
     4.3478   4.3888   4.5161   4.5530   4.6064   4.6402   4.6575   4.7367
     4.7833   4.7984   4.8620   4.9397   5.1028   5.1264   5.2171   5.4702
     5.6486   5.7756   5.7757   5.9324   6.0426   6.0904   6.1211   6.1335
     6.1487   6.1891   6.2504   6.2532   6.2725   6.2842   6.3329   6.3369
     6.3599   6.3835   6.3886   6.4175   6.4269   6.4329   6.4472   6.4616
     6.4663   6.4715   6.4925   6.5077   6.5328   6.5396   6.5546   6.5705
     6.5919   6.5932   6.6226   6.6306   6.6469   6.6567   6.6772   6.7019
     6.7166   6.7499   6.8092   6.8255   6.8407   6.8626   6.9502   6.9551
     6.9648   6.9791   7.1829   7.2247   7.3149   7.3406   7.4024   7.4772
     7.4887   7.5704   7.5772   7.6090   7.6179   7.6670   7.7095   7.7297
     7.7596   7.7680   7.7787   7.8059   7.8413   7.9166   7.9321   7.9539
     8.0335   8.0646   8.0910   8.1234   8.1418   8.2210   8.2557   8.2954
     8.3193   8.4033   8.4457   8.4695   8.4760   8.5026   8.5148   8.5742
     8.6092   8.6193   8.6260   8.6895   8.7010   8.7189   8.7317   8.7401
     8.7508   8.7685   8.7717   8.7977   8.8441   8.8684   8.8897   8.9209
     8.9272   9.0300   9.0505   9.1134   9.4063  10.0303  10.8528  10.9182
    11.0710  11.1057  11.3145  11.5253  11.6797  11.8008  11.9017  11.9976
    12.1089  12.2336  12.3725  12.5048  12.5322  13.5460  13.7733  13.9945
    14.0663  14.3833  14.6543  14.9284  15.0222  15.1731  15.5089  16.0572
    16.1373  16.4755  16.5384  16.5616

          k = 0.0000 0.2887 0.0000 ( 23495 PWs)   bands (ev):

     2.1018   2.2400   2.4628   2.7572   3.1091   3.4930   3.8675   4.1652
     4.3339   4.3851   4.3978   4.4050   4.5119   4.5213   4.5800   4.5812
     4.6103   4.6566   4.7560   4.8640   4.8934   4.9211   4.9436   5.0406
     5.0858   5.1178   5.1518   5.2299   5.3366   5.4088   5.4683   5.6022
     5.6461   5.6516   5.7542   5.8075   5.8306   5.8917   5.9172   5.9567
     5.9872   5.9921   6.0454   6.0663   6.0687   6.0875   6.1488   6.1508
     6.1810   6.2044   6.2400   6.2719   6.3750   6.4000   6.4184   6.4748
     6.5024   6.5155   6.5639   6.6014   6.6084   6.6217   6.6247   6.6552
     6.6693   6.6810   6.6850   6.6936   6.7365   6.7453   6.7657   6.7956
     6.8059   6.8063   6.8357   6.8746   6.8792   6.9019   6.9277   6.9667
     6.9694   6.9915   7.0522   7.0974   7.1294   7.1921   7.2095   7.2204
     7.2713   7.3039   7.3207   7.3753   7.4004   7.4374   7.4582   7.4684
     7.5169   7.5685   7.6121   7.6699   7.7119   7.7698   7.7760   7.7966
     7.8637   7.9129   7.9344   7.9462   7.9605   7.9637   8.0554   8.0647
     8.1256   8.1817   8.2210   8.2269   8.3124   8.3214   8.3349   8.4570
     8.4958   8.5057   8.5287   8.5539   8.5735   8.6012   8.6149   8.6553
     8.6866   8.7087   8.7175   8.7189   8.7877   8.8016   8.8559   8.9311
     8.9422   9.0256   9.1364   9.5546  10.1775  10.8718  11.7472  11.9632
    11.9845  11.9992  12.0470  12.1227  12.1472  12.2240  12.3538  12.5182
    12.7121  12.9361  13.1505  13.3789  13.5961  13.6303  14.0091  14.1382
    14.3829  14.7065  14.9688  15.1468  15.4234  15.5046  15.7148  16.0467
    16.1789  16.6747  16.7576  16.7869

          k = 0.0000 0.4330 0.0000 ( 23423 PWs)   bands (ev):

     2.7825   2.9106   3.1078   3.3752   3.6915   4.0445   4.3998   4.6931
     4.7641   4.8033   4.8414   4.8563   4.8712   4.8732   4.9271   4.9765
     5.0039   5.0717   5.0732   5.1111   5.1756   5.2370   5.3328   5.3563
     5.3706   5.4045   5.4482   5.4863   5.4937   5.5548   5.5581   5.6017
     5.6561   5.6828   5.6916   5.7433   5.7630   5.7856   5.7857   5.7936
     5.8082   5.8161   5.8336   5.8370   5.8928   5.9075   5.9136   5.9406
     5.9793   6.0506   6.0590   6.0854   6.1031   6.1989   6.2733   6.2962
     6.3093   6.3379   6.4316   6.4708   6.5097   6.5469   6.5506   6.6174
     6.6254   6.6434   6.6799   6.7077   6.7091   6.7335   6.7412   6.7507
     6.7630   6.7787   6.8218   6.8825   6.9005   6.9627   7.0132   7.0471
     7.1071   7.1334   7.1756   7.1837   7.1933   7.2735   7.2749   7.3118
     7.3530   7.3833   7.3938   7.4019   7.4045   7.4248   7.4331   7.4518
     7.4987   7.5015   7.5281   7.5506   7.5729   7.6240   7.6426   7.7032
     7.7548   7.8230   7.8346   7.8408   7.8860   7.9126   7.9750   7.9845
     7.9965   8.0571   8.0818   8.1367   8.1745   8.2857   8.3617   8.3955
     8.4183   8.4446   8.5003   8.5015   8.5340   8.5628   8.6067   8.6185
     8.6575   8.6578   8.6712   8.7266   8.7697   8.7864   8.8039   8.8435
     8.9018   9.2097   9.6812  10.2131  10.9168  11.6645  12.5094  12.5307
    12.5862  12.6429  12.6526  12.8425  12.8950  13.1188  13.2091  13.4143
    13.4950  13.5470  13.8535  13.9973  14.2688  14.3501  14.5526  14.5572
    14.8531  15.2538  15.3347  15.5849  15.5995  15.6600  15.9817  16.0664
    16.1361  16.5071  16.6954  17.0031

          k = 0.0000 0.5774 0.0000 ( 23470 PWs)   bands (ev):

     3.6070   3.7104   3.8450   4.0418   4.2602   4.5117   4.7748   4.8906
     5.0311   5.0384   5.0676   5.1075   5.1118   5.1137   5.1888   5.2328
     5.2369   5.2612   5.2846   5.3127   5.3584   5.3675   5.3675   5.3920
     5.4175   5.4277   5.4487   5.5111   5.5159   5.5210   5.5468   5.5509
     5.5716   5.5863   5.6423   5.6447   5.6725   5.6791   5.7043   5.7145
     5.7545   5.7814   5.7889   5.7960   5.8104   5.8242   5.8426   5.9616
     5.9627   5.9809   6.0449   6.0690   6.1371   6.1934   6.2531   6.2599
     6.3269   6.3385   6.3691   6.3911   6.3991   6.4028   6.4217   6.4535
     6.4576   6.4758   6.5200   6.5398   6.5745   6.5831   6.5844   6.5884
     6.6096   6.6346   6.8973   6.9723   6.9958   7.0506   7.0521   7.0555
     7.0569   7.0569   7.1718   7.1998   7.2490   7.3528   7.3796   7.4414
     7.4875   7.5173   7.5233   7.5399   7.5458   7.5478   7.5580   7.5728
     7.5908   7.5920   7.6424   7.6914   7.7363   7.8031   7.8206   7.8209
     7.8226   7.9459   8.0256   8.0621   8.1833   8.2045   8.2487   8.3417
     8.3711   8.4077   8.4184   8.4331   8.4485   8.4547   8.4856   8.4935
     8.5144   8.5197   8.5515   8.5575   8.5920   8.5977   8.6264   8.6371
     8.6458   8.6758   8.6812   8.6817   8.7045   8.7054   8.7931   8.8514
     9.2701   9.7603  10.3347  10.9507  11.6952  12.4502  12.9670  13.1351
    13.2015  13.2675  13.2801  13.2908  13.3100  13.4298  13.5277  13.6094
    13.7324  13.8136  13.8646  14.0196  14.7784  14.9123  14.9305  15.0343
    15.3101  15.3296  15.3906  15.5488  15.8641  15.8786  16.1501  16.3307
    16.4168  16.5347  16.8588  16.9071

          k = 0.0000 0.7217 0.0000 ( 23446 PWs)   bands (ev):

     4.3760   4.4628   4.4851   4.5490   4.6184   4.7196   4.7823   4.8474
     4.8991   4.9602   4.9620   4.9854   5.0467   5.0842   5.1393   5.1853
     5.1915   5.2236   5.2484   5.2494   5.2774   5.2844   5.3575   5.3593
     5.4143   5.4458   5.4881   5.5247   5.5413   5.5757   5.5956   5.6035
     5.6104   5.6324   5.6331   5.6659   5.7058   5.7161   5.7342   5.7388
     5.7668   5.7751   5.7857   5.8007   5.8169   5.8296   5.8760   5.9198
     6.0273   6.0289   6.1099   6.1328   6.1604   6.1992   6.2003   6.2410
     6.2517   6.3125   6.3140   6.3389   6.3479   6.3554   6.3703   6.3982
     6.4159   6.4210   6.4931   6.5586   6.5858   6.6174   6.6715   6.7122
     6.7136   6.7600   6.9725   6.9741   7.0065   7.0122   7.0341   7.1296
     7.1747   7.1761   7.1803   7.2309   7.3175   7.3226   7.3609   7.3774
     7.3976   7.4316   7.4734   7.5210   7.5262   7.5864   7.6172   7.6382
     7.6550   7.6633   7.7158   7.7764   7.7974   7.8342   7.8523   7.8626
     7.9506   8.0565   8.1054   8.1278   8.2433   8.3052   8.3723   8.5200
     8.5548   8.6091   8.6692   8.6774   8.6864   8.6931   8.7094   8.7241
     8.7289   8.7484   8.7746   8.7802   8.8137   8.8335   8.8861   8.8912
     8.9135   8.9206   9.3308   9.3474   9.3575   9.4255   9.5550   9.8019
    10.2063  10.7248  11.3315  11.7160  11.8003  11.9751  12.0076  12.2587
    12.5981  12.7061  13.0009  13.4203  13.4274  13.7703  13.9810  14.0308
    14.1500  14.1534  14.3132  14.4342  14.6636  14.7482  14.9978  15.1318
    15.5266  15.6266  15.9841  16.1242  16.1694  16.3844  16.4569  16.6063
    16.7061  16.8087  17.0654  17.1179

          k = 0.0000-0.8660 0.0000 ( 23420 PWs)   bands (ev):

     4.6600   4.6600   4.7678   4.7678   4.8213   4.8214   4.8260   4.8260
     4.9001   4.9001   4.9374   4.9374   5.0264   5.0265   5.0381   5.0382
     5.1102   5.1102   5.1852   5.1853   5.2468   5.2468   5.2483   5.2484
     5.4549   5.4549   5.4795   5.4796   5.5236   5.5237   5.5505   5.5505
     5.6208   5.6208   5.6694   5.6695   5.7554   5.7555   5.7616   5.7617
     5.8575   5.8575   5.8977   5.8977   5.9119   5.9120   5.9911   5.9911
     6.0006   6.0007   6.0581   6.0582   6.1074   6.1074   6.1358   6.1358
     6.2068   6.2068   6.2703   6.2703   6.3542   6.3542   6.4264   6.4264
     6.5446   6.5447   6.5743   6.5743   6.6213   6.6213   6.7372   6.7372
     6.9830   6.9831   6.9852   6.9853   7.0299   7.0300   7.0324   7.0324
     7.1787   7.1787   7.2275   7.2275   7.2958   7.2958   7.3379   7.3379
     7.3841   7.3841   7.4667   7.4668   7.5516   7.5517   7.6447   7.6448
     7.6832   7.6832   7.7591   7.7592   7.8312   7.8312   7.8646   7.8646
     7.9486   7.9486   8.0273   8.0274   8.1999   8.1999   8.4300   8.4301
     8.6260   8.6261   8.7786   8.7786   8.8162   8.8163   8.8358   8.8359
     8.8671   8.8672   8.9162   8.9163   8.9466   8.9466   9.0265   9.0266
     9.0526   9.0527  10.4231  10.4231  10.4519  10.4520  10.5593  10.5594
    10.7038  10.7038  10.9453  10.9453  11.2791  11.2791  11.7109  11.7109
    12.2214  12.2214  12.7998  12.7999  13.3949  13.3949  14.0290  14.0290
    14.5838  14.5838  15.0292  15.0292  15.7334  15.7334  15.7469  15.7470
    15.8847  15.8848  15.9477  15.9477  16.1748  16.1749  16.2512  16.2512
    16.4770  16.4771  16.5970  16.5971

          k = 0.1250 0.0000 0.0000 ( 23563 PWs)   bands (ev):

     1.6230   1.7646   1.9973   2.3005   2.6630   3.0535   3.4305   3.7324
     3.9207   3.9463   3.9935   4.0323   4.0623   4.1729   4.1742   4.2237
     4.2504   4.3238   4.4183   4.4407   4.5364   4.5694   4.5996   4.6158
     4.6612   4.7464   4.7959   4.9210   5.0096   5.0359   5.1959   5.4644
     5.6699   5.7855   5.8053   5.9817   6.0658   6.1438   6.1545   6.1716
     6.2118   6.2126   6.2602   6.2739   6.2992   6.3341   6.3345   6.3416
     6.3567   6.3692   6.4086   6.4161   6.4221   6.4246   6.4414   6.4472
     6.4584   6.4694   6.4737   6.5006   6.5288   6.5431   6.5491   6.5649
     6.5866   6.5933   6.6159   6.6246   6.6284   6.6615   6.6941   6.7114
     6.7603   6.7755   6.8257   6.8509   6.8533   6.9267   6.9328   6.9345
     7.0077   7.0643   7.1250   7.2960   7.3660   7.3668   7.4202   7.5067
     7.5572   7.5804   7.5844   7.5957   7.6362   7.6771   7.7332   7.7537
     7.8027   7.8144   7.8223   7.8711   7.8860   7.9248   7.9342   7.9440
     8.0487   8.0742   8.0988   8.1864   8.2379   8.2406   8.3032   8.3525
     8.3889   8.4201   8.4756   8.4945   8.5555   8.5847   8.5909   8.6380
     8.6602   8.6739   8.6897   8.6963   8.7198   8.7322   8.7473   8.7648
     8.7734   8.7775   8.8021   8.8238   8.8468   8.8595   8.8597   8.9272
     8.9551   9.0016   9.1220   9.1233   9.2906   9.3438   9.6661   9.9358
     9.9444  10.1326  10.2115  10.3325  10.6909  10.8263  10.9992  11.2720
    11.9571  12.6631  13.2775  13.4551  13.5320  13.6632  13.9209  13.9859
    14.2156  14.5218  14.8323  14.9124  15.1456  15.2142  15.5856  15.9019
    16.3725  16.4523  16.5358  16.9262

          k = 0.1250 0.1443 0.0000 ( 23537 PWs)   bands (ev):

     1.7746   1.9139   2.1450   2.4450   2.8056   3.1949   3.5722   3.8730
     4.0565   4.0716   4.1197   4.1622   4.1873   4.3042   4.3056   4.3417
     4.3495   4.4282   4.5406   4.5560   4.6445   4.6760   4.6908   4.7432
     4.7913   4.8320   4.9195   4.9798   5.1303   5.1622   5.2473   5.4879
     5.6802   5.7133   5.7757   5.9234   5.9900   6.0334   6.0905   6.0983
     6.1199   6.1773   6.1981   6.2203   6.2418   6.2722   6.2833   6.2998
     6.3099   6.3473   6.3854   6.4263   6.4419   6.4680   6.4696   6.4842
     6.4930   6.5029   6.5115   6.5155   6.5374   6.5688   6.5792   6.6071
     6.6078   6.6200   6.6469   6.6571   6.6832   6.6927   6.7025   6.7193
     6.7422   6.7631   6.7646   6.8079   6.8242   6.8782   6.9069   6.9238
     7.0136   7.0156   7.1386   7.1715   7.1990   7.2421   7.3451   7.4445
     7.4455   7.5072   7.5327   7.5524   7.5538   7.5662   7.5956   7.6488
     7.7064   7.7248   7.7525   7.8106   7.8356   7.8556   7.8613   7.9028
     7.9469   7.9782   8.0484   8.0696   8.1366   8.1540   8.2034   8.2090
     8.2860   8.3252   8.3533   8.3578   8.3894   8.4586   8.4807   8.5231
     8.5420   8.5430   8.5642   8.5810   8.6020   8.6288   8.6592   8.7003
     8.7162   8.7456   8.7490   8.7671   8.7829   8.7853   8.8368   8.8873
     9.0022   9.0318   9.1292   9.1462   9.6619   9.9762  10.1393  10.3049
    10.3529  10.4413  10.5686  10.7893  11.1661  11.1674  11.4140  11.6964
    12.3277  12.9946  13.4716  13.5551  13.6492  13.7355  14.0146  14.0170
    14.3246  14.6300  14.9360  14.9789  15.2537  15.3372  15.7177  15.9541
    16.4185  16.5368  16.6388  16.9770

          k = 0.1250 0.2887 0.0000 ( 23467 PWs)   bands (ev):

     2.2103   2.3431   2.5651   2.8532   3.2015   3.5807   3.9522   4.2450
     4.4081   4.4082   4.4513   4.5116   4.5179   4.5594   4.6438   4.6565
     4.6579   4.6590   4.7793   4.8604   4.9288   4.9550   4.9695   5.0740
     5.0897   5.1256   5.1852   5.2473   5.3478   5.4218   5.4781   5.5243
     5.5885   5.6791   5.7540   5.7638   5.8255   5.8532   5.8699   5.9686
     5.9807   6.0231   6.0311   6.0432   6.0613   6.0773   6.0918   6.1091
     6.1479   6.2029   6.2201   6.2630   6.3251   6.3541   6.4640   6.4802
     6.5047   6.5337   6.5790   6.5941   6.6093   6.6198   6.6409   6.6540
     6.6543   6.6753   6.7243   6.7527   6.7671   6.7860   6.7896   6.7905
     6.8337   6.8372   6.8616   6.8830   6.8882   6.9026   6.9152   6.9714
     6.9867   7.0238   7.0239   7.0459   7.0520   7.0919   7.1679   7.1864
     7.1935   7.2234   7.2486   7.3134   7.3527   7.3685   7.4025   7.4808
     7.5155   7.5157   7.5620   7.6136   7.6733   7.6896   7.7451   7.7787
     7.7849   7.7910   7.8583   7.8628   7.9356   7.9606   7.9703   8.0625
     8.1008   8.1276   8.1277   8.2110   8.2289   8.2359   8.2554   8.2721
     8.3317   8.3884   8.4205   8.4914   8.5529   8.6310   8.6485   8.6909
     8.7491   8.7516   8.7785   8.7842   8.8183   8.8238   8.8772   8.9787
     9.0143   9.1342   9.1950   9.6956  10.3184  10.7449  10.8162  10.9315
    11.0596  11.0954  11.3298  11.6575  11.9023  12.0823  12.3752  12.5976
    13.1929  13.5946  13.7142  13.8262  13.9422  14.1743  14.1826  14.4394
    14.6861  14.9726  15.2087  15.2686  15.5854  15.6315  15.9780  16.1178
    16.4314  16.8060  16.9523  16.9604

          k = 0.1250 0.4330 0.0000 ( 23435 PWs)   bands (ev):

     2.8746   2.9897   3.1869   3.4384   3.7441   4.0775   4.4096   4.6647
     4.7919   4.7936   4.8258   4.8578   4.8620   4.8862   4.9567   4.9779
     5.0015   5.0847   5.0889   5.0983   5.1272   5.1914   5.2407   5.3088
     5.3451   5.3653   5.3924   5.4299   5.4695   5.5228   5.5805   5.5995
     5.6499   5.6986   5.6993   5.7351   5.7502   5.7728   5.7960   5.8104
     5.8320   5.8386   5.8608   5.8811   5.9113   5.9337   5.9538   5.9665
     6.0153   6.0310   6.0680   6.1090   6.1902   6.2559   6.2741   6.3292
     6.3805   6.4244   6.4606   6.4849   6.5043   6.5173   6.5580   6.5833
     6.6061   6.6347   6.6510   6.6549   6.6763   6.7065   6.7268   6.7398
     6.7547   6.7926   6.8809   6.8877   6.9523   6.9638   6.9877   7.0480
     7.1336   7.1444   7.1735   7.1989   7.2034   7.2267   7.2497   7.2966
     7.3027   7.3241   7.3418   7.3554   7.3933   7.4164   7.4509   7.4801
     7.4908   7.5330   7.5339   7.5571   7.5949   7.6139   7.6357   7.6486
     7.6694   7.7307   7.7913   7.8042   7.8503   7.9173   7.9301   7.9308
     7.9503   8.0464   8.0881   8.1152   8.1571   8.1918   8.2026   8.2904
     8.3734   8.4326   8.4972   8.4992   8.6063   8.6140   8.6738   8.7159
     8.7273   8.7425   8.7467   8.7701   8.8008   8.8363   8.8889   8.9367
     9.0588   9.2231   9.7302  10.3121  11.0058  11.3727  11.4589  11.6289
    11.7837  11.8667  12.1789  12.5718  12.6656  13.0219  13.4925  13.5808
    13.7748  13.9249  14.2014  14.2986  14.5206  14.6167  14.6711  14.8449
    15.1598  15.3799  15.5088  15.6525  15.6727  15.8549  16.1279  16.1518
    16.3440  16.6509  16.7879  17.2682

          k = 0.1250 0.5774 0.0000 ( 23447 PWs)   bands (ev):

     3.6522   3.7254   3.8752   4.0414   4.2449   4.4587   4.6771   4.8606
     4.8672   4.8943   4.9506   4.9677   4.9736   5.0207   5.0626   5.0762
     5.1100   5.1130   5.1919   5.2057   5.2216   5.2323   5.2883   5.3276
     5.3877   5.4255   5.4266   5.4526   5.4556   5.4877   5.5372   5.5383
     5.5918   5.6055   5.6575   5.6965   5.6995   5.7420   5.7544   5.7550
     5.7666   5.7803   5.7828   5.8673   5.8829   5.9278   5.9330   5.9645
     6.0017   6.0685   6.0749   6.1138   6.1639   6.1639   6.2191   6.2565
     6.3103   6.3778   6.4135   6.4473   6.5043   6.5299   6.5300   6.5722
     6.5901   6.5904   6.6058   6.6097   6.6433   6.6750   6.7052   6.7287
     6.7520   6.7639   6.8667   6.8984   6.9518   6.9679   6.9709   7.0938
     7.1846   7.2436   7.2551   7.2681   7.3049   7.3418   7.3819   7.4169
     7.4389   7.4684   7.4908   7.5241   7.5466   7.5527   7.6139   7.6315
     7.6493   7.6616   7.7175   7.7286   7.7637   7.7771   7.8989   7.9069
     7.9181   7.9753   8.0683   8.1088   8.1692   8.2056   8.2328   8.2422
     8.3334   8.3491   8.3899   8.4362   8.4392   8.4511   8.4771   8.4993
     8.5101   8.5534   8.5589   8.5976   8.6141   8.6297   8.6390   8.6559
     8.6981   8.7242   8.7391   8.7489   8.7775   8.8216   8.8269   8.9429
     9.2532   9.7693  10.3683  11.0215  11.7550  12.0723  12.1909  12.4021
    12.5317  12.6905  13.0241  13.2857  13.3491  13.4081  13.4466  13.6696
    13.9211  14.0107  14.1820  14.2754  14.4847  14.5784  14.8730  15.0673
    15.2212  15.4330  15.4457  15.6227  15.8804  15.9764  16.1991  16.2947
    16.3964  16.7240  16.9027  16.9485

          k = 0.1250 0.7217 0.0000 ( 23455 PWs)   bands (ev):

     4.2713   4.3081   4.4513   4.5079   4.6026   4.6646   4.7000   4.7311
     4.7448   4.8023   4.8197   4.8612   4.9094   4.9529   4.9780   5.0247
     5.0626   5.0928   5.1007   5.1160   5.1935   5.2032   5.2442   5.2616
     5.2642   5.2917   5.3038   5.3393   5.4131   5.4246   5.4516   5.4547
     5.4999   5.5812   5.5914   5.6280   5.6630   5.7133   5.7237   5.7483
     5.7801   5.8285   5.8342   5.8723   5.8975   5.9245   5.9560   6.0012
     6.0112   6.0570   6.0899   6.1530   6.2200   6.2437   6.2596   6.3000
     6.3349   6.3553   6.3671   6.4366   6.4761   6.5035   6.5434   6.6117
     6.6133   6.6424   6.7238   6.7701   6.7770   6.7893   6.8294   6.8393
     6.9066   6.9200   6.9527   7.0111   7.0252   7.0376   7.0756   7.1073
     7.1817   7.1958   7.2593   7.2711   7.3844   7.4102   7.4874   7.4976
     7.4995   7.5554   7.5668   7.6415   7.6610   7.6779   7.7130   7.7549
     7.7711   7.7840   7.8520   7.8726   7.9087   7.9311   8.0382   8.0503
     8.0648   8.1757   8.2336   8.2361   8.3345   8.3364   8.4261   8.5456
     8.5548   8.5735   8.6119   8.6496   8.6575   8.6615   8.6958   8.7399
     8.7582   8.7699   8.7874   8.7969   8.8003   8.8822   8.8936   8.9106
     8.9198   8.9280   9.2711   9.3123   9.3506   9.4010   9.5219   9.7604
    10.1737  10.7147  11.3437  11.7971  11.8729  12.0222  12.0715  12.3042
    12.6328  12.7486  13.0117  13.0815  13.2164  13.4133  13.4838  13.5112
    13.7247  13.9689  14.0883  14.1839  14.4762  14.5763  14.8398  15.1043
    15.2733  15.5520  15.7496  15.9236  15.9833  16.2821  16.3089  16.5094
    16.5261  16.6425  16.7948  16.9799

          k = 0.1250-0.8660 0.0000 ( 23492 PWs)   bands (ev):

     4.4767   4.5472   4.5596   4.6048   4.6229   4.6719   4.7080   4.7244
     4.7479   4.7693   4.8270   4.8637   4.9256   4.9272   5.0010   5.0010
     5.0565   5.0759   5.1079   5.1153   5.1328   5.1359   5.1527   5.1612
     5.2219   5.2389   5.2886   5.2929   5.3334   5.3373   5.3657   5.3763
     5.4732   5.4770   5.5673   5.5909   5.6406   5.6412   5.7310   5.7341
     5.8159   5.8389   5.9105   5.9136   5.9269   5.9552   5.9987   6.0137
     6.0475   6.0517   6.0837   6.0932   6.1501   6.1746   6.2519   6.2636
     6.4140   6.4141   6.4367   6.4612   6.5865   6.5914   6.6234   6.6393
     6.6885   6.7147   6.7615   6.7661   6.8439   6.8467   6.8587   6.8780
     6.9038   6.9176   6.9842   6.9998   7.0668   7.0705   7.1214   7.1738
     7.2157   7.2625   7.3257   7.3643   7.4284   7.4572   7.4850   7.4936
     7.5247   7.5641   7.6023   7.6703   7.6906   7.7051   7.7639   7.8185
     7.8550   7.8629   7.8934   7.9317   7.9936   8.0051   8.0166   8.0359
     8.0798   8.1092   8.1391   8.1698   8.2479   8.2513   8.4374   8.4434
     8.6166   8.6292   8.7323   8.7520   8.7848   8.7852   8.8023   8.8332
     8.8601   8.8841   8.9212   8.9232   8.9391   8.9763   9.0256   9.0275
     9.0491   9.0574  10.4169  10.4234  10.4529  10.4607  10.5623  10.5628
    10.6939  10.7066  10.9268  10.9343  11.2499  11.2633  11.6813  11.6938
    12.2042  12.2097  12.8031  12.8035  13.3877  13.4381  13.9928  14.0172
    14.4418  14.4594  14.6481  14.6495  14.7767  14.8402  14.9811  15.0299
    15.2570  15.2784  15.4352  15.4708  15.7984  15.8276  15.8970  15.9643
    16.2388  16.2444  16.5797  16.6089

          k = 0.2500 0.0000 0.0000 ( 23536 PWs)   bands (ev):

     1.9578   2.0963   2.3233   2.6200   2.9763   3.3626   3.7383   3.8977
     4.0106   4.0367   4.1684   4.2122   4.2691   4.3007   4.3508   4.3587
     4.4080   4.4585   4.4599   4.4757   4.5067   4.6064   4.6981   4.7431
     4.7662   4.8635   4.9280   5.0300   5.1059   5.1311   5.3020   5.5396
     5.7184   5.7324   5.8150   5.8652   5.9231   6.0228   6.0269   6.0560
     6.1116   6.1272   6.1545   6.1626   6.1841   6.2216   6.2798   6.2891
     6.3067   6.3478   6.3786   6.4087   6.4462   6.4744   6.5010   6.5082
     6.5304   6.5474   6.5616   6.5789   6.5897   6.6111   6.6200   6.6326
     6.6466   6.6679   6.7029   6.7033   6.7152   6.7381   6.7504   6.7578
     6.7964   6.8050   6.8234   6.8373   6.8724   6.8882   6.9097   6.9144
     6.9874   7.0289   7.1035   7.1074   7.1410   7.2290   7.2487   7.2860
     7.3592   7.3865   7.4394   7.4499   7.4806   7.5125   7.5661   7.5662
     7.6491   7.6587   7.6921   7.7205   7.7382   7.8277   7.8395   7.8600
     7.9435   7.9690   7.9756   8.0294   8.0575   8.1188   8.2177   8.2269
     8.2355   8.2792   8.2951   8.3308   8.3676   8.3944   8.4068   8.4173
     8.4541   8.4728   8.4919   8.5265   8.5308   8.5463   8.5656   8.5933
     8.6081   8.6122   8.6390   8.6417   8.6813   8.7016   8.7815   8.7908
     8.7931   8.8153   8.8390   8.8794   8.9161   8.9240   8.9317   8.9477
     9.1104   9.3882   9.6993   9.9655  10.3995  10.6675  11.1438  11.5099
    11.8417  11.9017  12.6660  13.4001  14.0814  14.1397  15.0685  15.1133
    15.3314  15.3944  15.5088  15.6067  15.9142  16.3531  16.6543  16.7730
    16.8135  17.1113  17.4028  17.7933

          k = 0.2500 0.1443 0.0000 ( 23484 PWs)   bands (ev):

     2.1055   2.2399   2.4651   2.7568   3.1099   3.4938   3.8699   4.0315
     4.1433   4.1684   4.2976   4.3394   4.3849   4.4296   4.4543   4.4884
     4.5184   4.5796   4.5810   4.5994   4.6377   4.7213   4.7847   4.8198
     4.8723   4.9476   5.0377   5.0962   5.2284   5.2388   5.3462   5.5405
     5.6248   5.7088   5.7952   5.8077   5.8918   5.9167   5.9673   5.9918
     6.0434   6.0559   6.0744   6.0870   6.1453   6.1627   6.2088   6.2340
     6.2593   6.3412   6.3515   6.3793   6.3995   6.4058   6.4438   6.4580
     6.5121   6.5334   6.5696   6.5731   6.5989   6.6066   6.6166   6.6254
     6.6470   6.6681   6.6882   6.7006   6.7258   6.7492   6.7586   6.7907
     6.7992   6.8234   6.8269   6.8384   6.8772   6.8967   6.9270   6.9370
     6.9712   7.0074   7.0425   7.1028   7.1040   7.1918   7.2149   7.2318
     7.2674   7.3010   7.3100   7.3337   7.3909   7.4410   7.4544   7.4708
     7.5135   7.5641   7.6198   7.6707   7.7119   7.7488   7.7687   7.8073
     7.8526   7.8590   7.8993   7.9286   7.9292   7.9954   8.0074   8.0363
     8.1345   8.1655   8.1924   8.1973   8.2154   8.2306   8.2644   8.3002
     8.3100   8.3978   8.4573   8.4665   8.5216   8.5365   8.5424   8.5837
     8.6122   8.6663   8.7106   8.7158   8.7389   8.7562   8.7980   8.8557
     8.9054   8.9837   9.1104   9.1358   9.2299   9.3217   9.3711   9.4532
     9.6018   9.6673  10.1023  10.1859  10.6998  10.9248  11.3852  11.7488
    12.1071  12.1661  12.8555  13.5680  14.1271  14.3050  15.1484  15.2902
    15.3806  15.5004  15.5688  15.7132  16.0050  16.4398  16.7445  16.8706
    16.9054  17.1971  17.4607  17.8247

          k = 0.2500 0.2887 0.0000 ( 23496 PWs)   bands (ev):

     2.5215   2.6451   2.8591   3.1315   3.4653   3.8287   4.1890   4.3893
     4.4701   4.4893   4.6144   4.6164   4.6566   4.6566   4.7185   4.7592
     4.7929   4.8313   4.8763   4.8790   4.9246   4.9835   5.0569   5.0878
     5.1074   5.1962   5.2601   5.2997   5.3764   5.3978   5.4442   5.5633
     5.6154   5.6240   5.7087   5.7196   5.7663   5.8030   5.8795   5.9141
     5.9232   5.9261   5.9541   5.9591   6.0054   6.0567   6.0868   6.1007
     6.1190   6.1247   6.1760   6.2073   6.2438   6.2967   6.3640   6.3676
     6.4224   6.4498   6.4837   6.5012   6.5414   6.5626   6.5671   6.6159
     6.6280   6.6637   6.6750   6.6783   6.6975   6.7320   6.7737   6.7845
     6.8238   6.8352   6.8536   6.8774   6.8945   6.9372   6.9560   6.9618
     6.9827   7.0108   7.0254   7.0443   7.1038   7.1254   7.1584   7.1615
     7.1676   7.2086   7.2450   7.2888   7.2974   7.3368   7.3571   7.3611
     7.4339   7.4453   7.4765   7.5346   7.5394   7.5818   7.6258   7.6796
     7.7199   7.7412   7.7445   7.8127   7.8267   7.8403   7.8903   7.8994
     7.9402   7.9607   8.0046   8.0733   8.0955   8.1556   8.1681   8.2315
     8.2498   8.3828   8.3854   8.4727   8.5910   8.6067   8.6538   8.6966
     8.7615   8.7639   8.7798   8.7921   8.8274   8.8633   8.9500   8.9888
     9.0082   9.1017   9.4613   9.8007   9.8502   9.9097  10.0088  10.0186
    10.1809  10.4635  10.6661  10.8745  11.3968  11.4448  12.0068  12.2967
    12.6562  12.9689  13.3628  14.0123  14.3401  14.7082  15.4085  15.5259
    15.6705  15.8350  15.8540  16.0012  16.2517  16.6425  17.0053  17.0593
    17.2046  17.2821  17.5632  17.6242

          k = 0.2500 0.4330 0.0000 ( 23431 PWs)   bands (ev):

     3.1272   3.2232   3.4095   3.6280   3.8995   4.1842   4.4607   4.6584
     4.7566   4.7779   4.7849   4.8041   4.8226   4.8785   4.8940   4.9502
     4.9875   5.0195   5.0306   5.1065   5.1074   5.1355   5.1491   5.2108
     5.2473   5.2489   5.3074   5.4177   5.4615   5.4904   5.5235   5.5618
     5.5798   5.6254   5.6799   5.7056   5.7451   5.7981   5.8010   5.8264
     5.8550   5.8819   5.9046   5.9289   5.9557   5.9833   6.0026   6.0434
     6.0687   6.1049   6.1166   6.1384   6.1738   6.1918   6.2454   6.2914
     6.3496   6.3710   6.4254   6.4268   6.5220   6.5437   6.5686   6.5697
     6.6199   6.6277   6.6596   6.6745   6.6938   6.7160   6.7235   6.7632
     6.8055   6.8738   6.9095   6.9302   6.9758   6.9826   6.9854   7.0291
     7.0320   7.1323   7.1697   7.1830   7.1850   7.2097   7.2630   7.2686
     7.3092   7.3368   7.3562   7.3974   7.4114   7.4379   7.4722   7.4976
     7.5291   7.5602   7.5947   7.5964   7.6253   7.6355   7.6600   7.6946
     7.6995   7.7144   7.7900   7.8155   7.8214   7.8638   7.8866   7.9421
     7.9671   8.0334   8.0356   8.0620   8.1105   8.1717   8.2272   8.2606
     8.3663   8.4043   8.4303   8.5781   8.6189   8.6628   8.7573   8.8017
     8.8210   8.8248   8.8383   8.8505   8.8512   8.8728   8.9751   9.0217
     9.1413   9.3341   9.9057  10.4093  10.4530  10.5432  10.5514  10.7112
    10.9498  11.2441  11.2853  11.7118  12.0430  12.2148  12.7877  12.8875
    13.3669  14.0165  14.0219  14.5459  14.8462  15.0972  15.6892  15.8347
    15.8902  15.9052  15.9579  16.1753  16.2750  16.4180  16.5072  16.6599
    16.8921  17.0303  17.4047  17.4294

          k = 0.2500 0.5774 0.0000 ( 23466 PWs)   bands (ev):

     3.7359   3.7898   3.9601   4.0846   4.2473   4.3880   4.5271   4.6169
     4.6473   4.6928   4.7180   4.7527   4.7636   4.8276   4.8738   4.8980
     4.9021   4.9955   4.9985   5.0455   5.0459   5.1194   5.1315   5.1785
     5.1887   5.2176   5.2259   5.2535   5.2847   5.3366   5.3577   5.3931
     5.4397   5.4843   5.5222   5.6247   5.6646   5.6704   5.7533   5.8139
     5.8202   5.8518   5.8901   5.9023   5.9558   5.9620   5.9952   6.0825
     6.1222   6.1742   6.2354   6.2370   6.2919   6.4024   6.4035   6.4557
     6.4699   6.5038   6.5275   6.5744   6.5899   6.6170   6.6298   6.6348
     6.6497   6.7121   6.7579   6.7878   6.7912   6.8353   6.8469   6.9203
     6.9277   6.9784   6.9880   7.0164   7.0794   7.1050   7.1756   7.1807
     7.2811   7.2834   7.3302   7.3547   7.3828   7.4839   7.4938   7.5141
     7.5233   7.5436   7.5597   7.6614   7.6665   7.7473   7.7809   7.8041
     7.8687   7.8744   7.9192   7.9349   7.9381   7.9663   7.9975   8.0572
     8.0636   8.0717   8.0892   8.1293   8.1297   8.1323   8.1917   8.2044
     8.2684   8.3055   8.3430   8.3523   8.4054   8.4327   8.4531   8.4908
     8.4990   8.5401   8.5784   8.6031   8.6784   8.7038   8.7431   8.7482
     8.7498   8.8217   8.8233   8.8513   8.8533   8.9396   8.9828   9.1007
     9.2341   9.8281  10.4881  11.0663  11.1376  11.1942  11.2784  11.4841
    11.7637  11.9299  12.1327  12.5762  12.7215  13.0773  13.4893  13.5728
    13.7710  13.8476  14.0720  14.2823  14.4284  14.7595  15.0216  15.0805
    15.1485  15.4509  15.6259  15.7450  15.9027  16.1800  16.4050  16.5571
    16.6515  17.0442  17.1930  17.4352

          k = 0.2500 0.7217 0.0000 ( 23545 PWs)   bands (ev):

     4.0813   4.1341   4.3232   4.3745   4.3912   4.4936   4.5055   4.5170
     4.5462   4.5797   4.6026   4.6462   4.6582   4.7353   4.7589   4.7626
     4.8206   4.8611   4.8693   4.8709   4.9213   4.9295   4.9394   5.0116
     5.0488   5.0801   5.0907   5.1287   5.1461   5.2253   5.2422   5.2469
     5.3032   5.3453   5.4067   5.4853   5.5438   5.5939   5.6983   5.7044
     5.7705   5.8425   5.8572   5.9346   5.9856   6.0120   6.0238   6.1233
     6.1338   6.2467   6.2739   6.3327   6.3582   6.3859   6.3988   6.4573
     6.5392   6.5464   6.5620   6.5966   6.6298   6.6630   6.6948   6.7209
     6.7627   6.8058   6.8148   6.8525   6.9280   6.9638   7.0335   7.0780
     7.1136   7.1206   7.2026   7.2122   7.2693   7.3075   7.3076   7.3635
     7.4200   7.4282   7.5595   7.5942   7.6480   7.6715   7.7277   7.8199
     7.8301   7.9000   7.9129   7.9225   7.9486   7.9692   8.0045   8.0901
     8.1326   8.1740   8.2002   8.2103   8.2194   8.2296   8.2729   8.3091
     8.3180   8.3282   8.4269   8.4321   8.4766   8.5356   8.5453   8.5576
     8.5802   8.5838   8.5955   8.6126   8.6587   8.6867   8.7056   8.7071
     8.7500   8.7700   8.7924   8.8171   8.8692   8.9068   8.9301   8.9414
     8.9424   9.0294   9.1332   9.2201   9.3228   9.3547   9.4491   9.6643
    10.1064  10.7098  11.3985  11.9234  11.9810  12.0032  12.0614  12.1373
    12.1407  12.2501  12.3953  12.5491  12.7801  12.8757  12.9622  13.2102
    13.3298  13.4210  13.6329  13.8613  13.9749  14.2843  14.2896  14.6802
    14.8838  15.3078  15.3372  15.3665  15.5563  15.7397  15.7624  15.9766
    16.0268  16.2004  16.4454  16.5850

          k = 0.2500-0.8660 0.0000 ( 23532 PWs)   bands (ev):

     4.1940   4.2599   4.3173   4.3273   4.4000   4.4578   4.4726   4.5015
     4.5407   4.5476   4.6250   4.6509   4.7090   4.7108   4.7353   4.7440
     4.7941   4.7971   4.8058   4.8077   4.8906   4.9026   4.9033   4.9198
     4.9486   4.9524   5.0404   5.0449   5.0832   5.0833   5.2208   5.2341
     5.2987   5.3081   5.3304   5.3321   5.5139   5.5140   5.6690   5.6795
     5.8037   5.8439   5.9267   5.9622   6.0497   6.0523   6.0965   6.1225
     6.1571   6.1607   6.2264   6.2400   6.4069   6.4155   6.4500   6.4508
     6.5188   6.5463   6.5680   6.5755   6.6480   6.6537   6.7096   6.7344
     6.7808   6.8090   6.8842   6.9146   6.9770   6.9927   7.0904   7.1198
     7.1712   7.1857   7.2904   7.3014   7.3722   7.3817   7.4356   7.4628
     7.5054   7.5258   7.6659   7.6980   7.6994   7.7096   7.8736   7.9067
     7.9200   7.9788   8.0602   8.0609   8.0799   8.0919   8.0975   8.1336
     8.2277   8.2502   8.2952   8.3397   8.3555   8.3670   8.3885   8.3930
     8.3986   8.4116   8.4282   8.4423   8.4762   8.4771   8.5258   8.5381
     8.6301   8.6517   8.7067   8.7257   8.7506   8.7567   8.7828   8.8087
     8.8325   8.8789   8.9080   8.9193   8.9576   8.9989   9.0307   9.0414
     9.0485   9.0623  10.3882  10.4150  10.4731  10.4868  10.6062  10.6155
    10.7186  10.7506  10.9143  10.9311  11.1916  11.2239  11.5964  11.6298
    12.1139  12.1405  12.7130  12.7596  13.3411  13.3502  13.5189  13.5508
    13.6433  13.6436  13.7457  13.8134  13.9508  14.0787  14.1588  14.1835
    14.3735  14.5654  14.7322  14.8115  14.9981  15.1436  15.4318  15.4753
    15.7536  15.7884  15.9778  15.9894

          k = 0.3750 0.0000 0.0000 ( 23492 PWs)   bands (ev):

     2.4804   2.6108   2.8225   3.1000   3.4337   3.6583   3.7613   3.7979
     3.9088   4.0786   4.1558   4.2376   4.3686   4.4351   4.4953   4.5778
     4.6137   4.6329   4.6854   4.7227   4.8456   4.8476   4.8524   4.9240
     4.9739   5.0139   5.1153   5.1815   5.2285   5.3196   5.4794   5.5161
     5.6098   5.6632   5.7356   5.7891   5.8086   5.8761   5.8845   5.9158
     5.9363   5.9729   6.0255   6.0658   6.0751   6.1193   6.1364   6.1685
     6.2549   6.2554   6.3313   6.4099   6.4130   6.4522   6.4899   6.5136
     6.5141   6.5579   6.5606   6.5874   6.5926   6.6160   6.6391   6.6427
     6.6623   6.6888   6.6979   6.6981   6.7440   6.7771   6.8103   6.8210
     6.8434   6.8640   6.8859   6.9165   6.9276   6.9311   6.9463   6.9782
     6.9986   7.0085   7.0241   7.0652   7.1247   7.1500   7.1625   7.1770
     7.2033   7.2066   7.2933   7.3097   7.3360   7.3487   7.3961   7.4512
     7.4913   7.5071   7.5281   7.5306   7.6155   7.6187   7.6494   7.6899
     7.6927   7.7294   7.7728   7.7923   7.8713   7.9119   7.9334   7.9556
     7.9683   7.9788   8.0124   8.0315   8.0367   8.0538   8.0690   8.0694
     8.1015   8.1341   8.1702   8.1916   8.2296   8.2576   8.2708   8.3181
     8.3269   8.3350   8.3758   8.4363   8.4528   8.5321   8.5641   8.5858
     8.6349   8.6423   8.6861   8.7997   8.8114   8.8501   8.8651   8.9481
     9.1704   9.4091   9.7752   9.9509  10.4355  10.6080  11.1287  11.3608
    11.8727  12.2526  12.6369  12.8807  13.4633  14.3393  14.9639  15.3784
    15.6199  15.8203  16.4909  16.9872  17.1945  17.2658  17.4304  17.6089
    17.7890  17.9649  18.2601  18.7128

          k = 0.3750 0.1443 0.0000 ( 23495 PWs)   bands (ev):

     2.6232   2.7475   2.9566   3.2265   3.5557   3.7987   3.9011   3.9166
     4.0382   4.2015   4.2785   4.3498   4.4781   4.5694   4.6102   4.7141
     4.7356   4.7555   4.8015   4.8440   4.9528   4.9582   4.9597   5.0043
     5.0479   5.1100   5.2083   5.2724   5.3468   5.4075   5.5026   5.5028
     5.5880   5.6419   5.6584   5.7724   5.7735   5.8068   5.8458   5.8523
     5.8708   5.9106   5.9366   6.0032   6.0049   6.0342   6.0702   6.0855
     6.1218   6.1866   6.2137   6.2543   6.2875   6.3219   6.3485   6.4157
     6.4299   6.4440   6.4638   6.5024   6.5289   6.5492   6.5595   6.5825
     6.6022   6.6396   6.6748   6.6860   6.6948   6.6966   6.7106   6.7363
     6.7766   6.7944   6.8258   6.8463   6.8800   6.9254   6.9484   6.9963
     7.0202   7.0404   7.0757   7.0859   7.1445   7.1531   7.1926   7.2078
     7.2432   7.2744   7.2967   7.2975   7.3304   7.3702   7.3818   7.4016
     7.4193   7.4499   7.4752   7.4812   7.5264   7.5800   7.6287   7.6833
     7.7050   7.7298   7.7512   7.7665   7.7774   7.8455   7.8970   7.9086
     7.9532   7.9706   8.0268   8.0596   8.0965   8.1020   8.1415   8.1605
     8.2296   8.2619   8.2962   8.3127   8.3927   8.4133   8.4335   8.4790
     8.4931   8.5038   8.5079   8.5443   8.6157   8.6371   8.6532   8.6930
     8.6994   8.7145   8.7483   8.7592   8.7903   8.8227   8.9430   9.1180
     9.3894   9.5628   9.9490  10.1113  10.5837  10.7661  11.2636  11.5382
    12.0116  12.4136  12.7666  13.1464  13.5961  14.4188  15.1801  15.4794
    15.7847  15.9215  16.6191  17.0993  17.2733  17.3529  17.4659  17.6407
    17.8941  18.0416  18.2964  18.7637

          k = 0.3750 0.2887 0.0000 ( 23497 PWs)   bands (ev):

     3.0122   3.1201   3.3134   3.5544   3.8538   4.1735   4.1816   4.2662
     4.3459   4.4579   4.5188   4.5570   4.6757   4.7991   4.8171   4.9299
     4.9624   4.9742   5.0984   5.1010   5.1825   5.1866   5.1909   5.2459
     5.2584   5.3233   5.3258   5.3697   5.4308   5.4844   5.5080   5.5821
     5.5868   5.6197   5.6227   5.6872   5.7100   5.7340   5.7433   5.7656
     5.7700   5.8196   5.8503   5.8620   5.9024   5.9051   5.9575   5.9667
     5.9793   5.9798   6.0547   6.0707   6.1098   6.1801   6.1919   6.2218
     6.2812   6.3117   6.3141   6.3617   6.4008   6.4068   6.4276   6.4455
     6.4644   6.5230   6.5330   6.5700   6.5979   6.6094   6.6361   6.6936
     6.7106   6.7302   6.7356   6.7393   6.8116   6.8613   6.8772   6.9462
     6.9615   6.9890   7.0343   7.1344   7.1856   7.2414   7.2415   7.2568
     7.2919   7.3228   7.3367   7.3676   7.3780   7.4062   7.4315   7.4504
     7.4862   7.5217   7.5336   7.5965   7.5993   7.6259   7.6479   7.6555
     7.6853   7.7187   7.7321   7.7638   7.8751   7.9151   7.9465   7.9575
     7.9725   8.0717   8.1048   8.1165   8.1457   8.1479   8.1926   8.2255
     8.2765   8.3296   8.4102   8.4827   8.5025   8.5573   8.5827   8.6143
     8.6330   8.6717   8.6763   8.6856   8.6967   8.7759   8.8287   8.9081
     8.9330   9.0537   9.1011   9.1074   9.1647   9.2717   9.3557   9.4902
     9.8578   9.8935  10.4139  10.4557  11.0174  11.1388  11.6687  11.9319
    12.4126  12.7880  13.1392  13.8184  13.9416  14.7224  15.7559  15.7847
    16.2162  16.2517  16.9446  17.3845  17.4906  17.5303  17.5809  17.7817
    18.0660  18.1477  18.3524  18.6518

          k = 0.3750 0.4330 0.0000 ( 23475 PWs)   bands (ev):

     3.5222   3.5924   3.7594   3.9279   4.1445   4.3613   4.4184   4.5243
     4.5754   4.5972   4.6858   4.7124   4.7387   4.7528   4.8514   4.8629
     4.9475   4.9636   5.0108   5.0731   5.1195   5.1356   5.1710   5.2158
     5.2263   5.2400   5.2947   5.3209   5.3312   5.3555   5.4079   5.4640
     5.5144   5.5851   5.5944   5.6277   5.6906   5.7132   5.7388   5.8040
     5.8232   5.8662   5.8859   5.9478   5.9735   5.9742   6.0688   6.0768
     6.0942   6.1165   6.1635   6.1874   6.2154   6.2239   6.2666   6.2837
     6.2961   6.3247   6.3537   6.3741   6.4054   6.4520   6.5172   6.5188
     6.5996   6.6139   6.6302   6.6355   6.6907   6.7026   6.7719   6.7917
     6.8089   6.8763   6.8820   6.8977   6.9347   6.9509   6.9546   6.9774
     7.0099   7.0267   7.1198   7.1371   7.1861   7.2626   7.2752   7.3523
     7.3763   7.4178   7.4519   7.5046   7.5195   7.5479   7.5609   7.5825
     7.6431   7.6523   7.6659   7.6985   7.7169   7.7718   7.7945   7.8324
     7.8924   7.9119   7.9243   7.9768   7.9807   8.0120   8.0426   8.0949
     8.1554   8.1789   8.1929   8.2341   8.2910   8.3515   8.3520   8.3964
     8.4179   8.4210   8.4953   8.5604   8.5998   8.6912   8.6938   8.7556
     8.7694   8.7777   8.7856   8.7908   8.8223   8.9010   8.9460   9.0476
     9.1209   9.5645   9.5907   9.6236   9.6492   9.7119   9.8649  10.1330
    10.2519  10.5332  10.9224  11.0412  11.6373  11.6395  12.2700  12.4364
    13.0030  13.2305  13.6830  14.4367  14.6831  15.2854  16.2446  16.2774
    16.5478  16.6146  16.7208  16.8396  17.0441  17.1081  17.4304  17.5091
    17.6930  17.7634  17.9472  18.0473

          k = 0.3750 0.5774 0.0000 ( 23521 PWs)   bands (ev):

     3.8743   3.9242   4.1139   4.2093   4.2848   4.3262   4.3996   4.4103
     4.4698   4.5381   4.5643   4.5770   4.6363   4.6826   4.7308   4.7588
     4.7924   4.8104   4.8595   4.8678   4.8920   4.9319   4.9406   4.9608
     5.0268   5.0296   5.0480   5.1079   5.1438   5.1716   5.1925   5.2222
     5.3122   5.3780   5.3804   5.4242   5.5338   5.5973   5.6706   5.7593
     5.8180   5.8911   5.9127   6.0016   6.0831   6.1117   6.1450   6.1710
     6.1971   6.3150   6.3168   6.3610   6.4021   6.4576   6.4805   6.5307
     6.5335   6.5434   6.5651   6.5693   6.6117   6.6439   6.7060   6.7423
     6.7448   6.7909   6.8114   6.8302   6.8864   6.8890   6.9797   7.0119
     7.0168   7.0845   7.1025   7.1214   7.1458   7.2811   7.2942   7.3111
     7.3739   7.3790   7.4854   7.5334   7.5854   7.6683   7.6788   7.7336
     7.7510   7.7553   7.7995   7.8388   7.9202   7.9445   7.9658   7.9908
     8.0146   8.0716   8.0828   8.1157   8.1545   8.1911   8.1980   8.2016
     8.2355   8.2489   8.2545   8.2683   8.3079   8.3158   8.3272   8.3333
     8.3458   8.3605   8.4224   8.4319   8.4691   8.5043   8.5381   8.5712
     8.5923   8.6029   8.6293   8.6873   8.7089   8.7284   8.7602   8.7786
     8.8368   8.8546   8.8704   8.8906   8.8933   8.9778   9.0167   9.1233
     9.4211  10.0678  10.0827  10.1388  10.2238  10.3528  10.5362  10.7904
    10.8365  11.2511  11.5364  11.7699  12.2789  12.3901  13.0116  13.0707
    13.6987  13.7829  14.2376  14.4975  14.6219  14.8856  14.9647  15.2926
    15.3259  15.4949  15.7700  15.8474  16.2358  16.3832  16.4814  16.7110
    16.7797  16.9543  17.1530  17.2681

          k = 0.3750 0.7217 0.0000 ( 23544 PWs)   bands (ev):

     3.9890   4.0484   4.1182   4.2350   4.2491   4.2697   4.3735   4.3781
     4.3911   4.4006   4.4572   4.4671   4.5426   4.5703   4.5989   4.6123
     4.6225   4.6495   4.6759   4.7022   4.7051   4.7214   4.7912   4.7968
     4.8196   4.8652   4.8660   4.9511   4.9705   4.9863   5.0565   5.0845
     5.1519   5.2011   5.2366   5.2601   5.4797   5.4844   5.6927   5.7140
     5.8675   5.8803   5.9358   6.0424   6.0462   6.1281   6.1733   6.1869
     6.2670   6.3124   6.3528   6.3719   6.4295   6.4523   6.4576   6.4590
     6.4958   6.5068   6.6116   6.6609   6.6674   6.7105   6.7549   6.8003
     6.8481   6.8649   6.9114   7.0124   7.0629   7.1176   7.1799   7.1966
     7.2731   7.2959   7.3850   7.4418   7.4978   7.5542   7.5930   7.6461
     7.7447   7.7813   7.8031   7.8552   7.9202   7.9934   8.0323   8.0730
     8.1646   8.2094   8.2366   8.3093   8.3209   8.3667   8.3817   8.4048
     8.4611   8.4622   8.4835   8.5009   8.5352   8.5457   8.5666   8.5729
     8.5937   8.6068   8.6130   8.6189   8.6434   8.6509   8.6712   8.6953
     8.6958   8.7103   8.7118   8.7297   8.7370   8.7440   8.7684   8.7839
     8.7950   8.8458   8.8673   8.8969   8.9032   8.9536   8.9920   8.9980
     9.0239   9.0303   9.1273   9.1660   9.3999   9.4640   9.5494   9.7081
    10.1786  10.7214  10.8485  10.8875  11.0385  11.2211  11.3848  11.5890
    11.6282  11.9418  12.2868  12.3780  12.6055  12.7482  12.9570  13.0321
    13.1299  13.2367  13.4089  13.8167  13.8802  14.0490  14.2901  14.3407
    14.4601  14.4983  14.6632  14.7016  14.9178  15.1023  15.2672  15.5435
    15.6240  16.0337  16.0563  16.2622

          k = 0.3750-0.8660 0.0000 ( 23556 PWs)   bands (ev):

     3.9941   4.0600   4.1242   4.1301   4.2400   4.2685   4.2934   4.3162
     4.3603   4.3664   4.4391   4.4619   4.5100   4.5187   4.5511   4.5550
     4.5988   4.6082   4.6176   4.6188   4.6760   4.6972   4.7159   4.7187
     4.7391   4.7487   4.8257   4.8278   4.9217   4.9260   5.0523   5.0579
     5.0814   5.0826   5.1893   5.1930   5.4440   5.4513   5.6669   5.7195
     5.8721   5.8799   5.9889   6.0154   6.1185   6.1298   6.1692   6.1781
     6.2565   6.2845   6.3232   6.3546   6.4090   6.4178   6.4519   6.4524
     6.5006   6.5150   6.6497   6.6785   6.6987   6.7077   6.7874   6.7889
     6.9118   6.9245   7.0030   7.0374   7.1241   7.1247   7.2288   7.2646
     7.3819   7.3845   7.4547   7.4606   7.5903   7.6183   7.7421   7.7739
     7.8410   7.8588   7.9025   7.9276   8.1279   8.1382   8.1895   8.1915
     8.2305   8.2539   8.4098   8.4211   8.4434   8.4903   8.5404   8.5532
     8.5598   8.5844   8.6047   8.6155   8.6333   8.6499   8.6628   8.6777
     8.6949   8.6987   8.7348   8.7431   8.7571   8.7610   8.7696   8.7822
     8.7903   8.8136   8.8238   8.8486   8.8502   8.8602   8.8696   8.8913
     8.9017   8.9292   8.9509   8.9584   9.0150   9.0338   9.0834   9.0868
     9.0953   9.0991  10.2869  10.3714  10.5093  10.5285  10.7540  10.8034
    10.9199  10.9754  11.0874  11.1147  11.2412  11.2947  11.4985  11.5637
    11.8603  11.9111  12.2227  12.3275  12.5082  12.5446  12.6326  12.7565
    12.7880  12.7975  12.8183  13.1027  13.2520  13.6736  13.7618  13.8111
    13.9550  14.2116  14.3595  14.4392  14.5903  14.7865  14.9745  15.1308
    15.3909  15.6195  15.6683  15.9165

          k =-0.5000 0.0000-0.0000 ( 23442 PWs)   bands (ev):

     3.1119   3.1119   3.2251   3.2251   3.4033   3.4033   3.6330   3.6330
     3.9025   3.9025   4.1882   4.1882   4.4615   4.4615   4.6611   4.6611
     4.7688   4.7688   4.8818   4.8818   4.9993   4.9993   5.1300   5.1301
     5.1595   5.1595   5.2305   5.2305   5.3079   5.3079   5.4507   5.4507
     5.5735   5.5735   5.7007   5.7007   5.7955   5.7955   5.8267   5.8267
     5.9215   5.9215   5.9742   5.9742   6.0387   6.0388   6.0926   6.0926
     6.1693   6.1693   6.2389   6.2389   6.3393   6.3393   6.4210   6.4210
     6.5280   6.5280   6.5838   6.5838   6.6260   6.6260   6.6726   6.6726
     6.6811   6.6812   6.6935   6.6935   6.7111   6.7111   6.7381   6.7381
     6.8027   6.8027   6.8818   6.8818   6.9074   6.9075   6.9453   6.9453
     7.0065   7.0065   7.1677   7.1677   7.1840   7.1840   7.1885   7.1885
     7.2487   7.2488   7.2863   7.2863   7.3793   7.3793   7.4147   7.4147
     7.4253   7.4253   7.5221   7.5221   7.5435   7.5435   7.5547   7.5547
     7.6103   7.6103   7.6267   7.6267   7.6721   7.6721   7.7285   7.7285
     7.7846   7.7846   7.8348   7.8348   7.8936   7.8937   7.9571   7.9571
     8.0211   8.0211   8.0795   8.0795   8.0970   8.0971   8.1592   8.1592
     8.2395   8.2396   8.3434   8.3435   8.4117   8.4117   8.5719   8.5720
     8.6415   8.6415   8.8159   8.8159   8.8276   8.8276   8.8543   8.8543
     9.3308   9.3308   9.8919   9.8919  10.5121  10.5121  11.2221  11.2221
    11.9953  11.9953  12.8899  12.8900  13.9795  13.9795  14.8741  14.8742
    15.8726  15.8729  16.4459  16.4461  17.4184  17.4193  17.8141  17.8145
    19.1471  19.1472  19.3124  19.3128

          k =-0.5000 0.1443-0.0000 ( 23476 PWs)   bands (ev):

     3.2448   3.2533   3.3591   3.3602   3.5284   3.5319   3.7516   3.7550
     4.0150   4.0164   4.2981   4.3010   4.5814   4.5816   4.7970   4.8082
     4.9082   4.9118   5.0117   5.0158   5.1214   5.1275   5.2149   5.2260
     5.2702   5.2743   5.2928   5.3136   5.3654   5.3714   5.4839   5.4971
     5.5798   5.5963   5.6612   5.6728   5.7018   5.7341   5.7508   5.7577
     5.8378   5.8434   5.8570   5.8594   5.9347   5.9419   5.9613   5.9850
     6.0346   6.0591   6.0695   6.0719   6.2018   6.2091   6.3020   6.3240
     6.4006   6.4501   6.4600   6.4840   6.5093   6.5127   6.5493   6.5714
     6.5926   6.6020   6.6215   6.6313   6.6572   6.6645   6.6789   6.6833
     6.6978   6.7070   6.7214   6.7256   6.7617   6.7894   6.9143   6.9168
     6.9810   6.9878   7.0918   7.0970   7.1733   7.1830   7.2787   7.2988
     7.3605   7.3633   7.3699   7.3793   7.3909   7.3966   7.4192   7.4310
     7.4599   7.4955   7.5198   7.5492   7.5781   7.5848   7.6587   7.6859
     7.6948   7.7084   7.7610   7.7658   7.7712   7.8030   7.8446   7.8622
     7.8682   7.8976   7.9362   7.9634   8.0677   8.0739   8.0900   8.0954
     8.1277   8.1302   8.1981   8.2077   8.2204   8.2396   8.2861   8.2916
     8.3020   8.3040   8.3502   8.3604   8.4378   8.4434   8.5175   8.5239
     8.6352   8.6760   8.7140   8.7175   8.7312   8.7324   9.0096   9.0229
     9.4556   9.4916   9.9988  10.0379  10.6103  10.6576  11.3371  11.3627
    12.1043  12.1416  13.0052  13.0122  14.1932  14.2154  14.9933  15.0153
    15.9913  15.9955  16.5374  16.5511  17.5496  17.5778  17.8681  17.8797
    19.2013  19.2146  19.3826  19.4153

          k =-0.5000 0.2887-0.0000 ( 23540 PWs)   bands (ev):

     3.5953   3.6261   3.7077   3.7116   3.8436   3.8539   4.0334   4.0463
     4.2571   4.2659   4.5024   4.5200   4.7657   4.7841   5.0301   5.0333
     5.2226   5.2402   5.2635   5.3087   5.3190   5.3394   5.3554   5.3708
     5.3944   5.3968   5.4196   5.4278   5.4569   5.4683   5.4969   5.4977
     5.5212   5.5279   5.5382   5.5628   5.5974   5.6032   5.6517   5.6544
     5.7143   5.7170   5.7660   5.7848   5.8092   5.8160   5.8266   5.8474
     5.9602   6.0007   6.0372   6.0424   6.0725   6.0736   6.1218   6.1390
     6.1859   6.1979   6.2268   6.2313   6.3039   6.3147   6.3799   6.3801
     6.4380   6.4383   6.5036   6.5092   6.5312   6.5312   6.5740   6.5837
     6.5873   6.5879   6.5999   6.6661   6.9191   6.9371   6.9557   6.9844
     6.9986   7.0109   7.0409   7.0537   7.1523   7.1740   7.2006   7.2168
     7.2550   7.2735   7.3351   7.3537   7.4150   7.4819   7.5299   7.5410
     7.5924   7.5945   7.6380   7.6433   7.6828   7.7116   7.7702   7.7745
     7.8399   7.8505   7.9365   7.9590   8.0186   8.0240   8.0535   8.0616
     8.1379   8.1900   8.2145   8.2286   8.2414   8.2636   8.3628   8.3631
     8.3880   8.4063   8.4222   8.4363   8.4541   8.4573   8.4881   8.4932
     8.5074   8.5079   8.5372   8.5679   8.5971   8.5982   8.6224   8.6350
     8.6808   8.6828   8.6953   8.7092   8.8516   8.8524   9.2605   9.2889
     9.7416   9.7932  10.3044  10.3627  10.9216  11.0030  11.6725  11.7141
    12.4247  12.4960  13.2992  13.3184  14.7589  14.8139  15.3699  15.4078
    16.3231  16.3476  16.8337  16.8767  17.8852  17.9679  18.0510  18.0683
    19.2523  19.2846  19.3430  19.4263

          k =-0.5000 0.4330-0.0000 ( 23522 PWs)   bands (ev):

     3.9288   4.0132   4.0533   4.0635   4.1649   4.1951   4.2928   4.3348
     4.4295   4.4652   4.5650   4.6003   4.7147   4.7452   4.8578   4.8698
     4.9583   4.9851   5.0239   5.0441   5.0846   5.1089   5.1346   5.1481
     5.2022   5.2105   5.2803   5.3022   5.3294   5.3449   5.4467   5.4471
     5.4972   5.5089   5.5791   5.5840   5.5998   5.6579   5.7312   5.7398
     5.8328   5.8393   5.9215   5.9374   5.9897   6.0088   6.0373   6.0461
     6.0899   6.1302   6.1517   6.1550   6.2254   6.2256   6.2761   6.2763
     6.3179   6.3412   6.3729   6.3850   6.4531   6.4635   6.4822   6.4964
     6.5432   6.5658   6.6197   6.6544   6.7070   6.7081   6.7354   6.7558
     6.7682   6.8071   6.8506   6.8551   6.8667   6.9142   6.9336   6.9399
     7.0103   7.0309   7.1144   7.1202   7.2163   7.2338   7.3846   7.3847
     7.4372   7.4481   7.5171   7.5207   7.5468   7.5586   7.5871   7.6048
     7.6056   7.6152   7.7061   7.7162   7.8306   7.8357   7.8499   7.8546
     8.0122   8.0220   8.0974   8.1319   8.2102   8.2223   8.2707   8.2747
     8.3675   8.3720   8.4545   8.4606   8.4954   8.5055   8.5377   8.5405
     8.5716   8.5776   8.6236   8.6268   8.6414   8.6973   8.7702   8.7760
     8.7876   8.7896   8.8098   8.8437   8.8550   8.8667   8.8728   8.8741
     8.9266   8.9291   9.0042   9.0055   9.1986   9.2022   9.6150   9.6425
    10.1415  10.1957  10.7593  10.8181  11.4011  11.5016  12.1714  12.2193
    12.8965  12.9953  13.7141  13.7446  15.4072  15.5055  15.9185  15.9711
    16.7516  16.8004  17.2494  17.3700  17.5134  17.6119  17.6596  17.7149
    17.9368  17.9876  18.1291  18.1349

          k =-0.5000 0.5774-0.0000 ( 23534 PWs)   bands (ev):

     3.9955   4.0794   4.1338   4.1400   4.2702   4.3205   4.3729   4.4541
     4.4937   4.5024   4.5173   4.5174   4.5797   4.6140   4.6283   4.6457
     4.7196   4.7362   4.7537   4.7669   4.8207   4.8237   4.8643   4.8696
     4.9296   4.9441   5.0109   5.0370   5.0919   5.0921   5.2252   5.2290
     5.2410   5.2450   5.3260   5.3387   5.5207   5.5393   5.6722   5.7126
     5.8356   5.8654   6.0080   6.0343   6.1175   6.1437   6.2143   6.2846
     6.3210   6.3375   6.3668   6.3670   6.4207   6.4382   6.4842   6.4860
     6.5221   6.5269   6.5707   6.5715   6.6225   6.6272   6.7002   6.7147
     6.7592   6.7607   6.8284   6.8590   6.9462   6.9547   7.0331   7.0347
     7.0941   7.1051   7.1881   7.1921   7.2524   7.2754   7.3228   7.3497
     7.4231   7.4382   7.5617   7.5655   7.6437   7.6825   7.7227   7.7892
     7.8263   7.8394   7.8987   7.9042   7.9164   7.9288   8.0228   8.0238
     8.0954   8.1180   8.1769   8.1944   8.2111   8.2165   8.2213   8.2220
     8.2605   8.2694   8.2838   8.3089   8.4309   8.4371   8.4664   8.4665
     8.5364   8.5472   8.5815   8.5838   8.5999   8.6075   8.6687   8.6799
     8.7302   8.7363   8.7645   8.7801   8.7951   8.8438   8.9049   8.9072
     8.9262   8.9866   9.1260   9.1276   9.2253   9.2257   9.3166   9.3262
     9.3547   9.3808   9.4504   9.4624   9.6726   9.6875  10.1132  10.1207
    10.6880  10.7265  11.3741  11.4119  12.0512  12.1525  12.8330  12.8798
    13.5193  13.6447  14.2716  14.2983  15.2868  15.3072  15.3567  15.3955
    15.5555  15.5826  15.7243  15.7416  15.9546  16.0069  16.3955  16.4350
    16.8820  16.8884  17.1865  17.1966

          k =-0.5000 0.7217-0.0000 ( 23516 PWs)   bands (ev):

     3.9500   4.0211   4.0844   4.0894   4.2282   4.2336   4.2859   4.2922
     4.3536   4.3568   4.4155   4.4333   4.4860   4.4860   4.5478   4.5537
     4.5695   4.5814   4.6224   4.6252   4.6467   4.6583   4.6885   4.6888
     4.7503   4.7545   4.8194   4.8222   4.9346   4.9383   5.0397   5.0407
     5.0674   5.0682   5.1941   5.1994   5.4518   5.4559   5.6635   5.7221
     5.8631   5.9112   6.0227   6.0706   6.1153   6.1748   6.2060   6.2160
     6.3133   6.3188   6.3354   6.3479   6.4048   6.4165   6.4624   6.4628
     6.4902   6.4991   6.6587   6.6626   6.7350   6.7564   6.8118   6.8365
     6.8891   6.9229   7.0144   7.0296   7.0977   7.1068   7.2413   7.2642
     7.3352   7.3391   7.4549   7.4802   7.5770   7.5916   7.7087   7.7595
     7.8347   7.8622   7.8710   7.9229   8.0913   8.1094   8.1560   8.1683
[...]
     5.1229   5.2083   5.2227   5.3124   5.3702   5.4665   5.5284   5.5316
     5.6132   5.6259   5.7128   5.7507   5.7969   5.8029   5.8805   5.9037
     5.9192   5.9254   5.9589   5.9924   6.0038   6.0489   6.0946   6.1079
     6.1172   6.1421   6.1770   6.2382   6.2859   6.3165   6.3585   6.3833
     6.4146   6.4323   6.4710   6.4946   6.5193   6.5615   6.5786   6.6203
     6.6260   6.6571   6.6875   6.7057   6.7096   6.7313   6.7707   6.7761
     6.8268   6.8304   6.8601   6.8756   6.9098   6.9288   6.9634   6.9819
     6.9876   6.9936   7.0190   7.0622   7.0853   7.1256   7.1431   7.1788
     7.1803   7.2315   7.2570   7.2950   7.3135   7.3360   7.3663   7.3696
     7.4470   7.4541   7.5064   7.5535   7.5662   7.6030   7.6350   7.6781
     7.6853   7.7482   7.7655   7.7687   7.8075   7.8379   7.8830   7.9060
     7.9479   7.9612   7.9789   8.0361   8.0965   8.1683   8.1698   8.1967
     8.2610   8.3841   8.3919   8.4645   8.6194   8.6198   8.6798   8.6842
     8.7609   8.7648   8.7966   8.8151   8.8297   8.8710   8.9141   8.9669
     8.9947   9.0040   9.4225   9.8115   9.8494   9.9055   9.9161   9.9993
    10.1752  10.4667  10.6255  10.8917  11.3369  11.4280  12.0414  12.2929
    12.7013  12.9152  13.3732  14.0434  14.3785  14.6434  15.3967  15.4847
    15.6752  15.8407  15.8536  16.0083  16.2031  16.5959  17.0200  17.0395
    17.2192  17.2670  17.5473  17.6167

          k =-0.2500 0.4330-0.0000 ( 23431 PWs)   bands (ev):

     3.0871   3.2266   3.3900   3.6390   3.9018   4.1945   4.4635   4.6299
     4.6432   4.7281   4.7409   4.8173   4.8273   4.8645   4.8916   4.9189
     4.9642   5.0173   5.0674   5.1029   5.1325   5.1530   5.2031   5.2375
     5.2474   5.2508   5.3147   5.4615   5.4760   5.4778   5.5198   5.5569
     5.5847   5.6280   5.6628   5.7081   5.7315   5.7884   5.8158   5.8570
     5.8919   5.9147   5.9230   5.9298   5.9850   5.9900   6.0163   6.0251
     6.0439   6.1061   6.1289   6.1558   6.1742   6.2278   6.2294   6.2728
     6.3655   6.3812   6.4287   6.4344   6.5045   6.5443   6.5741   6.5912
     6.6168   6.6174   6.6666   6.6779   6.7020   6.7148   6.7253   6.7569
     6.8264   6.8882   6.8991   6.9692   6.9835   6.9847   7.0258   7.0315
     7.0759   7.1207   7.1641   7.1819   7.1923   7.2425   7.2465   7.2859
     7.2920   7.3370   7.3491   7.3820   7.4011   7.4168   7.4748   7.4839
     7.5548   7.5661   7.5947   7.6101   7.6284   7.6549   7.6573   7.6881
     7.7017   7.7469   7.8038   7.8226   7.8571   7.8629   7.8863   7.9197
     7.9708   8.0210   8.0293   8.0562   8.0961   8.1577   8.1885   8.2386
     8.3822   8.4144   8.4319   8.5588   8.6398   8.7201   8.7650   8.8006
     8.8066   8.8223   8.8564   8.8683   8.8796   8.8939   8.9197   9.0298
     9.0405   9.2812   9.8616  10.4103  10.4343  10.4474  10.5473  10.7009
    10.9463  11.2004  11.2859  11.7257  11.9281  12.2466  12.8211  12.8901
    13.4350  13.9333  14.0180  14.6052  14.8892  14.9073  15.6030  15.7639
    15.8543  15.8901  15.9630  16.1529  16.2669  16.4530  16.4648  16.6254
    16.9908  17.1417  17.4423  17.4927

          k =-0.2500 0.5774-0.0000 ( 23466 PWs)   bands (ev):

     3.6504   3.7974   3.9182   4.1169   4.2699   4.4150   4.5417   4.5737
     4.6330   4.6446   4.7208   4.7287   4.7548   4.8432   4.8605   4.8712
     4.9061   4.9952   5.0105   5.0411   5.0566   5.1206   5.1377   5.1814
     5.1985   5.1998   5.2303   5.2634   5.2878   5.3490   5.3731   5.3979
     5.4387   5.4804   5.5326   5.5950   5.6544   5.6816   5.7594   5.8189
     5.8281   5.8425   5.9282   5.9288   5.9468   5.9851   6.0256   6.0751
     6.1350   6.1799   6.2516   6.2626   6.2977   6.3821   6.4094   6.4452
     6.4955   6.5060   6.5439   6.5784   6.6123   6.6250   6.6285   6.6439
     6.6726   6.7026   6.7438   6.7599   6.8241   6.8571   6.8607   6.9198
     6.9331   6.9492   6.9892   7.0119   7.0918   7.1156   7.1384   7.2109
     7.2298   7.2902   7.3352   7.3360   7.4668   7.4754   7.5135   7.5212
     7.5382   7.5399   7.6068   7.6216   7.6575   7.7231   7.7908   7.8294
     7.8342   7.8819   7.9108   7.9265   7.9567   8.0000   8.0020   8.0577
     8.0655   8.0745   8.0759   8.1125   8.1132   8.1388   8.1900   8.2110
     8.2547   8.3089   8.3307   8.3542   8.4112   8.4346   8.4576   8.4877
     8.5048   8.5385   8.5771   8.6435   8.6896   8.7035   8.7439   8.7498
     8.7971   8.8265   8.8494   8.8650   8.8701   8.8877   8.9884   9.0055
     9.2182   9.7866  10.4526  11.0633  11.0949  11.1312  11.2746  11.4702
    11.7576  11.8889  12.1230  12.5743  12.6114  13.0924  13.4955  13.6276
    13.7262  13.8657  14.0226  14.3225  14.4269  14.7069  14.9702  15.0216
    15.1041  15.4824  15.6645  15.6902  15.8856  16.2369  16.4189  16.4993
    16.7031  17.2344  17.2394  17.5078

          k =-0.2500 0.7217-0.0000 ( 23545 PWs)   bands (ev):

     3.9926   4.1398   4.2692   4.4340   4.4498   4.4550   4.5011   4.5172
     4.5264   4.6043   4.6168   4.6293   4.6847   4.7125   4.7279   4.7601
     4.8258   4.8588   4.8694   4.8818   4.9232   4.9352   4.9408   5.0085
     5.0226   5.0942   5.0998   5.1205   5.1527   5.2295   5.2426   5.2464
     5.3204   5.3282   5.4050   5.4754   5.5337   5.5946   5.6904   5.7197
     5.7893   5.8362   5.8460   5.9426   5.9929   6.0182   6.0310   6.1400
     6.1646   6.2677   6.2873   6.3066   6.3621   6.4018   6.4356   6.4980
     6.5300   6.5302   6.5766   6.6014   6.6059   6.6703   6.7045   6.7086
     6.7848   6.7965   6.8477   6.8614   6.9469   6.9796   7.0177   7.0227
     7.1049   7.1112   7.1674   7.2287   7.2537   7.2781   7.3315   7.3952
     7.4332   7.4745   7.5427   7.5835   7.6474   7.6594   7.7338   7.7919
     7.8437   7.8960   7.8979   7.9457   7.9476   7.9611   8.0323   8.0625
     8.1035   8.1691   8.1750   8.2076   8.2206   8.2611   8.2699   8.3006
     8.3200   8.3522   8.4360   8.4695   8.4899   8.5244   8.5439   8.5510
     8.5744   8.5862   8.6010   8.6431   8.6651   8.6691   8.6794   8.7329
     8.7626   8.7718   8.8165   8.8258   8.8727   8.9056   8.9190   8.9294
     8.9384   8.9505   9.1276   9.2302   9.3235   9.3819   9.4555   9.6812
    10.1150  10.6965  11.3879  11.9379  11.9903  12.0246  12.0611  12.0764
    12.1471  12.2178  12.3252  12.4948  12.6598  12.8400  12.9099  13.0843
    13.3596  13.5022  13.5232  13.7992  14.0485  14.2912  14.4943  14.7380
    15.0753  15.2871  15.3800  15.3862  15.5564  15.5813  15.7281  15.9470
    16.1301  16.1704  16.3936  16.6454

          k =-0.3750 0.1443-0.0000 ( 23495 PWs)   bands (ev):

     2.6151   2.7480   2.9523   3.2282   3.5551   3.8001   3.9002   3.9165
     4.0383   4.1984   4.2749   4.3471   4.4742   4.5607   4.6092   4.7061
     4.7427   4.7486   4.7717   4.8446   4.9453   4.9582   4.9597   4.9962
     5.0492   5.1105   5.1885   5.2700   5.3424   5.4130   5.4982   5.5401
     5.6235   5.6563   5.6888   5.7422   5.7699   5.8052   5.8282   5.8324
     5.8793   5.9172   5.9440   5.9957   6.0053   6.0333   6.0837   6.1046
     6.1508   6.1967   6.2042   6.2599   6.2834   6.3113   6.3789   6.4108
     6.4247   6.4409   6.4693   6.5132   6.5235   6.5362   6.5606   6.5865
     6.6250   6.6339   6.6590   6.6894   6.6937   6.7001   6.7187   6.7454
     6.7935   6.8025   6.8027   6.8578   6.9065   6.9310   6.9435   6.9910
     7.0485   7.0575   7.0700   7.0780   7.1196   7.1572   7.1746   7.2191
     7.2432   7.2899   7.3030   7.3219   7.3558   7.3758   7.3902   7.4016
     7.4373   7.4681   7.4874   7.4923   7.5792   7.5802   7.6242   7.6331
     7.6913   7.7225   7.7288   7.7679   7.7776   7.8226   7.8623   7.9135
     7.9255   7.9806   8.0054   8.0270   8.0599   8.1135   8.1726   8.1961
     8.2195   8.2564   8.2683   8.2989   8.3816   8.3957   8.4443   8.4746
     8.4915   8.5171   8.5440   8.5555   8.5849   8.6211   8.6634   8.6908
     8.7000   8.7069   8.7412   8.7672   8.7965   8.8080   8.9445   9.0896
     9.4129   9.5275   9.9831  10.0517  10.6196  10.7371  11.2991  11.4835
    12.0307  12.4125  12.7909  13.1194  13.5794  14.4443  15.1927  15.4755
    15.7669  15.9326  16.6166  17.1271  17.2785  17.3410  17.4419  17.6406
    17.8666  18.0334  18.2973  18.7475

          k =-0.3750 0.2887-0.0000 ( 23497 PWs)   bands (ev):

     2.9879   3.1222   3.3015   3.5610   3.8548   4.1774   4.1872   4.2653
     4.3485   4.4528   4.5183   4.5443   4.6547   4.7822   4.7937   4.8838
     4.9560   4.9661   5.0268   5.1037   5.1836   5.1858   5.1901   5.2282
     5.2909   5.3200   5.3614   5.4200   5.4278   5.5069   5.5185   5.5925
     5.6310   5.6391   5.6652   5.6842   5.6948   5.7301   5.7379   5.7434
     5.7889   5.8077   5.8527   5.8693   5.8803   5.9045   5.9424   5.9690
     5.9759   5.9894   6.0360   6.0977   6.1055   6.1797   6.2358   6.2602
     6.2762   6.3202   6.3334   6.3614   6.3723   6.4012   6.4486   6.4572
     6.4981   6.5163   6.5547   6.5555   6.5992   6.6129   6.6467   6.7023
     6.7126   6.7374   6.7386   6.7400   6.8105   6.8689   6.8803   6.9477
     6.9624   6.9952   7.0162   7.1189   7.1392   7.2292   7.2543   7.2762
     7.2856   7.3210   7.3506   7.3742   7.3770   7.4168   7.4345   7.4589
     7.5020   7.5120   7.5681   7.5812   7.6077   7.6298   7.6484   7.6536
     7.7226   7.7321   7.7738   7.8168   7.8523   7.8952   7.9127   7.9581
     7.9674   8.0510   8.0924   8.1222   8.1380   8.1564   8.1860   8.2323
     8.2630   8.3134   8.3935   8.4841   8.5362   8.5529   8.6008   8.6009
     8.6284   8.6691   8.6793   8.6986   8.7093   8.7189   8.8319   8.8444
     8.9144   9.0595   9.0931   9.1180   9.1610   9.2683   9.3056   9.4958
     9.8034   9.9175  10.3582  10.4560  11.0666  11.0930  11.7306  11.8375
    12.4423  12.7917  13.1895  13.7587  13.9029  14.7654  15.7651  15.7953
    16.1809  16.2803  16.9466  17.3858  17.4338  17.5077  17.6002  17.7529
    18.0202  18.1256  18.3283  18.6799

          k =-0.3750 0.4330-0.0000 ( 23475 PWs)   bands (ev):

     3.4589   3.5988   3.7322   3.9497   4.1559   4.3834   4.4846   4.5041
     4.5540   4.5875   4.6456   4.7110   4.7170   4.7336   4.8106   4.8243
     4.9443   4.9499   5.0413   5.0719   5.1101   5.1622   5.1728   5.2226
     5.2396   5.2665   5.2992   5.3028   5.3263   5.3614   5.4186   5.4716
     5.5112   5.5890   5.5906   5.6171   5.7038   5.7084   5.7161   5.8175
     5.8272   5.8909   5.9363   5.9470   5.9759   6.0149   6.0436   6.0721
     6.1083   6.1352   6.1728   6.1958   6.2320   6.2380   6.2708   6.2937
     6.3056   6.3407   6.3682   6.3949   6.4117   6.4354   6.4720   6.5070
     6.5935   6.6165   6.6377   6.6483   6.6855   6.6898   6.7219   6.7766
     6.8601   6.8762   6.8792   6.8936   6.9058   6.9306   6.9756   6.9988
     7.0083   7.0700   7.1246   7.1363   7.1965   7.2356   7.2861   7.3503
     7.4038   7.4136   7.4707   7.5013   7.5083   7.5348   7.5609   7.6098
     7.6414   7.6683   7.6735   7.7013   7.7137   7.7709   7.7981   7.8650
     7.9129   7.9214   7.9294   7.9637   7.9863   8.0209   8.0780   8.0962
     8.1338   8.1781   8.2085   8.2500   8.2847   8.3316   8.3387   8.3703
     8.4053   8.4251   8.4881   8.5951   8.6402   8.6742   8.6970   8.7561
     8.7740   8.7812   8.7978   8.8257   8.8316   8.8484   8.9509   8.9639
     9.0870   9.5649   9.5849   9.5910   9.6216   9.7003   9.8579  10.1313
    10.1916  10.5485  10.8064  11.0787  11.5856  11.6843  12.3199  12.3492
    13.0360  13.2437  13.7627  14.3689  14.5833  15.3348  16.2269  16.2988
    16.4081  16.6358  16.7104  16.8938  16.9549  17.0860  17.3675  17.5347
    17.7138  17.7505  17.9781  18.1690

          k =-0.3750 0.5774-0.0000 ( 23521 PWs)   bands (ev):

     3.7800   3.9314   4.0555   4.2523   4.3446   4.3669   4.3980   4.4176
     4.4752   4.4824   4.5494   4.5820   4.6403   4.6551   4.7106   4.7792
     4.7795   4.8028   4.8633   4.8713   4.8944   4.9355   4.9422   4.9798
     5.0047   5.0278   5.0505   5.1007   5.1463   5.1784   5.1970   5.2276
     5.3113   5.3736   5.3778   5.4257   5.5445   5.5797   5.6515   5.7912
     5.7961   5.9338   5.9399   6.0456   6.1113   6.1120   6.1603   6.1948
     6.2205   6.2883   6.3092   6.3726   6.3903   6.4525   6.4801   6.5221
     6.5421   6.5464   6.5728   6.5730   6.6183   6.6284   6.6840   6.7187
     6.7595   6.7639   6.8049   6.8790   6.8991   6.9018   6.9649   7.0077
     7.0098   7.0966   7.1045   7.1150   7.1615   7.2173   7.2717   7.3288
     7.3866   7.4461   7.4470   7.5229   7.5593   7.6383   7.6796   7.7319
     7.7432   7.7680   7.8196   7.8648   7.9341   7.9475   7.9831   8.0230
     8.0286   8.0795   8.0916   8.1152   8.1563   8.1583   8.1986   8.2110
     8.2431   8.2476   8.2555   8.2745   8.3037   8.3211   8.3294   8.3358
     8.3667   8.3768   8.4202   8.4370   8.4774   8.4932   8.5371   8.5666
     8.5775   8.6332   8.6450   8.6848   8.7148   8.7592   8.7728   8.8067
     8.8513   8.8569   8.8672   8.8986   8.9242   8.9358   9.0216   9.0363
     9.3920  10.0264  10.0774  10.1306  10.2262  10.3296  10.5239  10.7438
    10.8197  11.2471  11.4230  11.7886  12.2293  12.4104  12.9437  13.0984
    13.7383  13.7940  14.2629  14.4978  14.6512  14.8075  14.9865  15.2195
    15.2490  15.5570  15.7819  15.8895  16.2146  16.3883  16.5394  16.6939
    16.7051  16.9491  17.2151  17.2195

          k =-0.3750 0.7217-0.0000 ( 23544 PWs)   bands (ev):

     3.9082   4.0532   4.1776   4.1895   4.2396   4.3189   4.3239   4.3724
     4.4064   4.4222   4.4671   4.4821   4.5405   4.5443   4.5714   4.6241
     4.6354   4.6452   4.6789   4.6986   4.7030   4.7265   4.7884   4.8083
     4.8281   4.8477   4.8660   4.9508   4.9769   4.9874   5.0582   5.0835
     5.1614   5.2011   5.2285   5.2566   5.4746   5.4833   5.6569   5.7394
     5.8425   5.9034   5.9540   6.0797   6.0828   6.1213   6.1779   6.2049
     6.2378   6.3460   6.3567   6.3674   6.4058   6.4332   6.4652   6.4676
     6.5134   6.5148   6.5731   6.6687   6.6924   6.7388   6.7533   6.7811
     6.8457   6.8616   6.9331   7.0031   7.0772   7.0976   7.1622   7.2124
     7.2654   7.2914   7.4219   7.4285   7.4860   7.5476   7.6128   7.6302
     7.7128   7.8118   7.8161   7.8552   7.9170   7.9731   8.0265   8.0808
     8.1107   8.2230   8.2420   8.3109   8.3134   8.3542   8.3675   8.3862
     8.4792   8.4803   8.5086   8.5235   8.5467   8.5471   8.5665   8.5751
     8.5869   8.5930   8.6111   8.6228   8.6442   8.6625   8.6630   8.6961
     8.6988   8.7103   8.7285   8.7293   8.7484   8.7573   8.7708   8.7997
     8.8318   8.8638   8.8656   8.8893   8.9092   8.9488   8.9691   8.9893
     9.0181   9.0358   9.0449   9.1638   9.3748   9.5158   9.5785   9.7462
    10.2006  10.7813  10.8366  10.8673  11.0649  11.1802  11.3650  11.5831
    11.5895  11.8883  12.2422  12.2974  12.5176  12.7079  12.8214  13.0149
    13.0699  13.0996  13.7071  13.7432  13.8747  14.2778  14.3028  14.4055
    14.4407  14.5371  14.7203  14.8843  14.8945  15.1120  15.2549  15.5530
    15.5760  15.8116  16.0310  16.2840

     the Fermi energy is    10.7320 ev

!    total energy              =  -20153.51549568 Ry

     total all-electron energy =   -988623.513863 Ry
     estimated scf accuracy    <       0.00000017 Ry
     smearing contrib. (-TS)   =      -0.02233500 Ry
     internal energy E=F+TS    =  -20153.49316068 Ry

     The total energy is F=E-TS. E is the sum of the following terms:
     one-electron contribution =   -8804.38212146 Ry
     hartree contribution      =    4727.69597207 Ry
     xc contribution           =    -833.60421499 Ry
     ewald contribution        =    2762.13547721 Ry
     one-center paw contrib.   =  -18005.33827350 Ry

     convergence has been achieved in  31 iterations

     negative rho (up, down):  2.351E-03 0.000E+00

     Forces acting on atoms (cartesian axes, Ry/au):

     atom    1 type  1   force =    -0.00006249    0.00001912   -0.00323901
     atom    2 type  1   force =     0.00004968   -0.00002215    0.00325280
     atom    3 type  1   force =     0.00006707   -0.00000101    0.00031563
     atom    4 type  1   force =     0.00734499    0.01011567   -0.01621427
     atom    5 type  1   force =    -0.00004805    0.00001010   -0.00046823
     atom    6 type  1   force =     0.00010515    0.00000231    0.00466261
     atom    7 type  1   force =    -0.00002685   -0.00001011    0.00120963
     atom    8 type  1   force =    -0.00730158   -0.01010926    0.01694400
     atom    9 type  1   force =     0.00000090   -0.00002157   -0.00021549
     atom   10 type  1   force =     0.00002499   -0.00000748   -0.00138535
     atom   11 type  1   force =    -0.00011572    0.00001466   -0.00464150
     atom   12 type  1   force =    -0.00008742    0.00091303    0.00072726
     atom   13 type  1   force =     0.00004492   -0.00090157   -0.00096293
     atom   14 type  1   force =     0.00010840    0.00000008    0.00466924
     atom   15 type  1   force =    -0.00003256   -0.00000636    0.00120673
     atom   16 type  1   force =    -0.00729833   -0.01010848    0.01694653
     atom   17 type  1   force =    -0.00000025   -0.00002187   -0.00021176
     atom   18 type  1   force =     0.00002045   -0.00001329   -0.00139007
     atom   19 type  1   force =    -0.00011591    0.00001262   -0.00464460
     atom   20 type  1   force =    -0.00008815    0.00091332    0.00072453
     atom   21 type  1   force =     0.00005285   -0.00090107   -0.00095479
     atom   22 type  1   force =    -0.00004961    0.00001476   -0.00322415
     atom   23 type  1   force =     0.00004261   -0.00001556    0.00325454
     atom   24 type  1   force =     0.00006702    0.00000496    0.00032152
     atom   25 type  1   force =     0.00734785    0.01011317   -0.01620922
     atom   26 type  1   force =    -0.00004994    0.00000601   -0.00047365

     Total force =     0.043196     Total SCF correction =     0.002671

     Writing all to output data dir ./pwscf.save/
 
     init_run     :     26.81s CPU     27.36s WALL (       1 calls)
     electrons    :   2123.09s CPU   2144.68s WALL (       1 calls)
     forces       :      8.49s CPU      8.58s WALL (       1 calls)

     Called by init_run:
     wfcinit      :     26.09s CPU     26.55s WALL (       1 calls)
     potinit      :      0.34s CPU      0.39s WALL (       1 calls)
     hinit0       :      0.29s CPU      0.31s WALL (       1 calls)

     Called by electrons:
     c_bands      :   1924.45s CPU   1943.86s WALL (      32 calls)
     sum_band     :    188.99s CPU    190.60s WALL (      32 calls)
     v_of_rho     :      0.75s CPU      1.03s WALL (      32 calls)
     newd         :      1.72s CPU      1.91s WALL (      32 calls)
     PAW_pot      :      7.34s CPU      7.39s WALL (      32 calls)
     mix_rho      :      0.12s CPU      0.13s WALL (      32 calls)

     Called by c_bands:
     init_us_2    :      5.08s CPU      5.18s WALL (    3300 calls)
     init_us_2:cp :      5.07s CPU      5.18s WALL (    3300 calls)
     cegterg      :   1851.53s CPU   1870.09s WALL (    1600 calls)

     Called by *egterg:
     cdiaghg      :    217.56s CPU    220.66s WALL (    9618 calls)
     h_psi        :   1084.63s CPU   1093.92s WALL (    9718 calls)
     s_psi        :    119.69s CPU    120.44s WALL (    9718 calls)
     g_psi        :      2.34s CPU      2.35s WALL (    8068 calls)

     Called by h_psi:
     h_psi:calbec :    152.28s CPU    152.98s WALL (    9718 calls)
     vloc_psi     :    807.03s CPU    812.99s WALL (    9718 calls)
     add_vuspsi   :    123.90s CPU    124.39s WALL (    9718 calls)

     General routines
     calbec       :    216.03s CPU    216.99s WALL (   11518 calls)
     fft          :      0.90s CPU      1.27s WALL (     364 calls)
     ffts         :      0.04s CPU      0.05s WALL (      32 calls)
     fftw         :    900.57s CPU    907.14s WALL ( 1621350 calls)
 
     Parallel routines
 
     PWSCF        :  36m 6.67s CPU  36m43.80s WALL

 
   This run was terminated on:  22: 8:57  15Feb2024            

=------------------------------------------------------------------------------=
   JOB DONE.
=------------------------------------------------------------------------------=
