MPI startup(): Warning: I_MPI_PMI_LIBRARY will be ignored since the hydra process manager was found
MPI startup(): Warning: I_MPI_PMI_LIBRARY will be ignored since the hydra process manager was found
MPI startup(): Warning: I_MPI_PMI_LIBRARY will be ignored since the hydra process manager was found
MPI startup(): Warning: I_MPI_PMI_LIBRARY will be ignored since the hydra process manager was found
MPI startup(): Warning: I_MPI_PMI_LIBRARY will be ignored since the hydra process manager was found
MPI startup(): Warning: I_MPI_PMI_LIBRARY will be ignored since the hydra process manager was found
MPI startup(): Warning: I_MPI_PMI_LIBRARY will be ignored since the hydra process manager was found
MPI startup(): Warning: I_MPI_PMI_LIBRARY will be ignored since the hydra process manager was found
MPI startup(): Warning: I_MPI_PMI_LIBRARY will be ignored since the hydra process manager was found
MPI startup(): Warning: I_MPI_PMI_LIBRARY will be ignored since the hydra process manager was found

     Program PWSCF v.7.0 starts on 15Feb2024 at 20:58:36 

     This program is part of the open-source Quantum ESPRESSO suite
     for quantum simulation of materials; please cite
         "P. Giannozzi et al., J. Phys.:Condens. Matter 21 395502 (2009);
         "P. Giannozzi et al., J. Phys.:Condens. Matter 29 465901 (2017);
         "P. Giannozzi et al., J. Chem. Phys. 152 154105 (2020);
          URL http://www.quantum-espresso.org", 
     in publications or presentations arising from this work. More details at
     http://www.quantum-espresso.org/quote

     Parallel version (MPI), running on    10 processors

     MPI processes distributed on     1 nodes
     R & G space division:  proc/nbgrp/npool/nimage =      10
     110371 MiB available memory on the printing compute node when the environment starts
 
     Reading input from GSF111_0.15.in
Warning: card &CELL ignored
Warning: card / ignored

     Current dimensions of program PWSCF are:
     Max number of different atomic species (ntypx) = 10
     Max number of k-points (npk) =  40000
     Max angular momentum in pseudopotentials (lmaxx) =  4

     File ./pwscf.bfgs deleted, as requested
     file Au.pbe-n-kjpaw_psl.1.0.0.UPF: wavefunction(s)  6S 5D renormalized
     Found identity + ( -0.5000  0.5000  0.0000) symmetry
     This is a supercell, fractional translations are disabled

     Subspace diagonalization in iterative solution of the eigenvalue problem:
     one sub-group per band group will be used
     scalapack distributed-memory algorithm (size of sub-group:  3*  3 procs)

 
     Parallelization info
     --------------------
     sticks:   dense  smooth     PW     G-vecs:    dense   smooth      PW
     Min          85      85     25                18799    18799    3045
     Max          87      87     26                18816    18816    3065
     Sum         859     859    251               188065   188065   30575
 
     Using Slab Decomposition
 


     bravais-lattice index     =            0
     lattice parameter (alat)  =       9.6360  a.u.
     unit-cell volume          =    3935.2145 (a.u.)^3
     number of atoms/cell      =           26
     number of atomic types    =            1
     number of electrons       =       286.00
     number of Kohn-Sham states=          172
     kinetic-energy cutoff     =      50.0000  Ry
     charge density cutoff     =     200.0000  Ry
     scf convergence threshold =      1.0E-06
     mixing beta               =       0.7000
     number of iterations used =            8  plain     mixing
     Exchange-correlation= SLA  PW   PBX  PBC
                           (   1   4   3   4   0   0   0)

     celldm(1)=   9.635999  celldm(2)=   0.000000  celldm(3)=   0.000000
     celldm(4)=   0.000000  celldm(5)=   0.000000  celldm(6)=   0.000000

     crystal axes: (cart. coord. in units of alat)
               a(1) = (   1.000000   0.000000   0.000000 )  
               a(2) = (   0.000000   0.577350   0.000000 )  
               a(3) = (  -0.000005   0.000000   7.617966 )  

     reciprocal axes: (cart. coord. in units 2 pi/alat)
               b(1) = (  1.000000  0.000000  0.000001 )  
               b(2) = (  0.000000  1.732052  0.000000 )  
               b(3) = (  0.000000  0.000000  0.131269 )  


     PseudoPot. # 1 for Au read from file:
     ./Au.pbe-n-kjpaw_psl.1.0.0.UPF
     MD5 check sum: 4db85c736373c707a97ce4c36c2a9d23
     Pseudo is Projector augmented-wave + core cor, Zval = 11.0
     Generated using &quot;atomic&quot; code by A. Dal Corso  v.6.3
     Shape of augmentation charge: PSQ
     Using radial grid of 1279 points,  6 beta functions with: 
                l(1) =   0
                l(2) =   0
                l(3) =   1
                l(4) =   1
                l(5) =   2
                l(6) =   2
     Q(r) pseudized with 0 coefficients 


     atomic species   valence    mass     pseudopotential
        Au            11.00   196.96657     Au( 1.00)

     No symmetry found



   Cartesian axes

     site n.     atom                  positions (alat units)
         1           Au  tau(   1) = (   0.0000000   0.0000000   0.0000000  )
         2           Au  tau(   2) = (   0.9999954   0.0866026   5.6568550  )
         3           Au  tau(   3) = (   0.9999966   0.0866026   4.2426411  )
         4           Au  tau(   4) = (   0.9999976   0.0000000   2.8284275  )
         5           Au  tau(   5) = (   0.9999988   0.0000000   1.4142138  )
         6           Au  tau(   6) = (   0.3333329   0.0000000   0.4714045  )
         7           Au  tau(   7) = (   0.3333296   0.0866026   4.7140455  )
         8           Au  tau(   8) = (   0.3333308   0.0866026   3.2998319  )
         9           Au  tau(   9) = (   0.3333318   0.0000000   1.8856185  )
        10           Au  tau(  10) = (   0.6666659   0.0000000   0.9428093  )
        11           Au  tau(  11) = (   0.6666625   0.0866026   5.1854506  )
        12           Au  tau(  12) = (   0.6666637   0.0866026   3.7712367  )
        13           Au  tau(  13) = (   0.6666649   0.0000000   2.3570234  )
        14           Au  tau(  14) = (   0.8333330   0.2886749   0.4714045  )
        15           Au  tau(  15) = (   0.8333294   0.3752776   4.7140455  )
        16           Au  tau(  16) = (   0.8333306   0.3752776   3.2998319  )
        17           Au  tau(  17) = (   0.8333318   0.2886749   1.8856185  )
        18           Au  tau(  18) = (   0.1666658   0.2886749   0.9428093  )
        19           Au  tau(  19) = (   0.1666624   0.3752776   5.1854506  )
        20           Au  tau(  20) = (   0.1666636   0.3752776   3.7712367  )
        21           Au  tau(  21) = (   0.1666648   0.2886749   2.3570234  )
        22           Au  tau(  22) = (   0.5000001   0.2886749   0.0000000  )
        23           Au  tau(  23) = (   0.4999955   0.3752776   5.6568550  )
        24           Au  tau(  24) = (   0.4999965   0.3752776   4.2426411  )
        25           Au  tau(  25) = (   0.4999977   0.2886749   2.8284275  )
        26           Au  tau(  26) = (   0.4999989   0.2886749   1.4142138  )

     number of k points=    50  Gaussian smearing, width (Ry)=  0.0200
                       cart. coord. in units 2pi/alat
        k(    1) = (   0.0000000   0.0000000   0.0000000), wk =   0.0208333
        k(    2) = (   0.0000000   0.1443376   0.0000000), wk =   0.0416667
        k(    3) = (   0.0000000   0.2886753   0.0000000), wk =   0.0416667
        k(    4) = (   0.0000000   0.4330129   0.0000000), wk =   0.0416667
        k(    5) = (   0.0000000   0.5773506   0.0000000), wk =   0.0416667
        k(    6) = (   0.0000000   0.7216882   0.0000000), wk =   0.0416667
        k(    7) = (   0.0000000  -0.8660259   0.0000000), wk =   0.0208333
        k(    8) = (   0.1250000   0.0000000   0.0000001), wk =   0.0416667
        k(    9) = (   0.1250000   0.1443376   0.0000001), wk =   0.0416667
        k(   10) = (   0.1250000   0.2886753   0.0000001), wk =   0.0416667
        k(   11) = (   0.1250000   0.4330129   0.0000001), wk =   0.0416667
        k(   12) = (   0.1250000   0.5773506   0.0000001), wk =   0.0416667
        k(   13) = (   0.1250000   0.7216882   0.0000001), wk =   0.0416667
        k(   14) = (   0.1250000  -0.8660259   0.0000001), wk =   0.0416667
        k(   15) = (   0.2500000   0.0000000   0.0000002), wk =   0.0416667
        k(   16) = (   0.2500000   0.1443376   0.0000002), wk =   0.0416667
        k(   17) = (   0.2500000   0.2886753   0.0000002), wk =   0.0416667
        k(   18) = (   0.2500000   0.4330129   0.0000002), wk =   0.0416667
        k(   19) = (   0.2500000   0.5773506   0.0000002), wk =   0.0416667
        k(   20) = (   0.2500000   0.7216882   0.0000002), wk =   0.0416667
        k(   21) = (   0.2500000  -0.8660259   0.0000002), wk =   0.0416667
        k(   22) = (   0.3750000   0.0000000   0.0000002), wk =   0.0416667
        k(   23) = (   0.3750000   0.1443376   0.0000002), wk =   0.0416667
        k(   24) = (   0.3750000   0.2886753   0.0000002), wk =   0.0416667
        k(   25) = (   0.3750000   0.4330129   0.0000002), wk =   0.0416667
        k(   26) = (   0.3750000   0.5773506   0.0000002), wk =   0.0416667
        k(   27) = (   0.3750000   0.7216882   0.0000002), wk =   0.0416667
        k(   28) = (   0.3750000  -0.8660259   0.0000002), wk =   0.0416667
        k(   29) = (  -0.5000000   0.0000000  -0.0000003), wk =   0.0208333
        k(   30) = (  -0.5000000   0.1443376  -0.0000003), wk =   0.0416667
        k(   31) = (  -0.5000000   0.2886753  -0.0000003), wk =   0.0416667
        k(   32) = (  -0.5000000   0.4330129  -0.0000003), wk =   0.0416667
        k(   33) = (  -0.5000000   0.5773506  -0.0000003), wk =   0.0416667
        k(   34) = (  -0.5000000   0.7216882  -0.0000003), wk =   0.0416667
        k(   35) = (  -0.5000000  -0.8660259  -0.0000003), wk =   0.0208333
        k(   36) = (  -0.1250000   0.1443376  -0.0000001), wk =   0.0416667
        k(   37) = (  -0.1250000   0.2886753  -0.0000001), wk =   0.0416667
        k(   38) = (  -0.1250000   0.4330129  -0.0000001), wk =   0.0416667
        k(   39) = (  -0.1250000   0.5773506  -0.0000001), wk =   0.0416667
        k(   40) = (  -0.1250000   0.7216882  -0.0000001), wk =   0.0416667
        k(   41) = (  -0.2500000   0.1443376  -0.0000002), wk =   0.0416667
        k(   42) = (  -0.2500000   0.2886753  -0.0000002), wk =   0.0416667
        k(   43) = (  -0.2500000   0.4330129  -0.0000002), wk =   0.0416667
        k(   44) = (  -0.2500000   0.5773506  -0.0000002), wk =   0.0416667
        k(   45) = (  -0.2500000   0.7216882  -0.0000002), wk =   0.0416667
        k(   46) = (  -0.3750000   0.1443376  -0.0000002), wk =   0.0416667
        k(   47) = (  -0.3750000   0.2886753  -0.0000002), wk =   0.0416667
        k(   48) = (  -0.3750000   0.4330129  -0.0000002), wk =   0.0416667
        k(   49) = (  -0.3750000   0.5773506  -0.0000002), wk =   0.0416667
        k(   50) = (  -0.3750000   0.7216882  -0.0000002), wk =   0.0416667

     Dense  grid:   188065 G-vectors     FFT dimensions: (  45,  25, 360)

     Estimated max dynamical RAM per process >     418.32 MB

     Estimated total dynamical RAM >       4.09 GB

     Initial potential from superposition of free atoms

     starting charge     285.9971, renormalised to     286.0000

     negative rho (up, down):  2.490E-03 0.000E+00
     Starting wfcs are  234 randomized atomic wfcs
     Checking if some PAW data can be deallocated... 

     total cpu time spent up to now is       25.8 secs

     Self-consistent Calculation

     iteration #  1     ecut=    50.00 Ry     beta= 0.70
     Davidson diagonalization with overlap
     ethr =  1.00E-02,  avg # of iterations =  5.0

     Threshold (ethr) on eigenvalues was too large:
     Diagonalizing with lowered threshold

     Davidson diagonalization with overlap
     ethr =  4.15E-04,  avg # of iterations =  4.4

     negative rho (up, down):  1.684E-03 0.000E+00

     total cpu time spent up to now is      164.5 secs

     total energy              =  -20152.79231739 Ry
     estimated scf accuracy    <       1.50114683 Ry

     iteration #  2     ecut=    50.00 Ry     beta= 0.70
     Davidson diagonalization with overlap
     c_bands:  3 eigenvalues not converged
     c_bands:  2 eigenvalues not converged
     c_bands:  2 eigenvalues not converged
     c_bands:  3 eigenvalues not converged
     ethr =  5.25E-04,  avg # of iterations = 16.8

     negative rho (up, down):  1.684E-03 0.000E+00

     total cpu time spent up to now is      311.3 secs

     total energy              =  -20130.29662375 Ry
     estimated scf accuracy    <    3187.68575616 Ry

     iteration #  3     ecut=    50.00 Ry     beta= 0.70
     Davidson diagonalization with overlap
     c_bands:  1 eigenvalues not converged
     ethr =  5.25E-04,  avg # of iterations = 11.2

     negative rho (up, down):  1.900E-03 0.000E+00

     total cpu time spent up to now is      430.4 secs

     total energy              =  -20152.49628752 Ry
     estimated scf accuracy    <       3.94949560 Ry

     iteration #  4     ecut=    50.00 Ry     beta= 0.70
     Davidson diagonalization with overlap
     ethr =  5.25E-04,  avg # of iterations = 10.3

     negative rho (up, down):  1.947E-03 0.000E+00

     total cpu time spent up to now is      524.9 secs

     total energy              =  -20149.13572169 Ry
     estimated scf accuracy    <     178.63724179 Ry

     iteration #  5     ecut=    50.00 Ry     beta= 0.70
     Davidson diagonalization with overlap
     ethr =  5.25E-04,  avg # of iterations = 11.2

     negative rho (up, down):  1.919E-03 0.000E+00

     total cpu time spent up to now is      634.0 secs

     total energy              =  -20143.74082928 Ry
     estimated scf accuracy    <    1597.51014629 Ry

     iteration #  6     ecut=    50.00 Ry     beta= 0.70
     Davidson diagonalization with overlap
     ethr =  5.25E-04,  avg # of iterations = 10.1

     negative rho (up, down):  1.887E-03 0.000E+00

     total cpu time spent up to now is      716.3 secs

     total energy              =  -20153.39875081 Ry
     estimated scf accuracy    <       1.46482260 Ry

     iteration #  7     ecut=    50.00 Ry     beta= 0.70
     Davidson diagonalization with overlap
     ethr =  5.12E-04,  avg # of iterations =  2.1

     negative rho (up, down):  1.913E-03 0.000E+00

     total cpu time spent up to now is      769.3 secs

     total energy              =  -20153.47393340 Ry
     estimated scf accuracy    <       1.06107667 Ry

     iteration #  8     ecut=    50.00 Ry     beta= 0.70
     Davidson diagonalization with overlap
     ethr =  3.71E-04,  avg # of iterations =  1.5

     negative rho (up, down):  1.951E-03 0.000E+00

     total cpu time spent up to now is      816.5 secs

     total energy              =  -20153.49564903 Ry
     estimated scf accuracy    <       0.55196715 Ry

     iteration #  9     ecut=    50.00 Ry     beta= 0.70
     Davidson diagonalization with overlap
     ethr =  1.93E-04,  avg # of iterations =  2.5

     negative rho (up, down):  2.044E-03 0.000E+00

     total cpu time spent up to now is      869.6 secs

     total energy              =  -20153.49938715 Ry
     estimated scf accuracy    <       0.56591802 Ry

     iteration # 10     ecut=    50.00 Ry     beta= 0.70
     Davidson diagonalization with overlap
     ethr =  1.93E-04,  avg # of iterations =  1.2

     negative rho (up, down):  2.202E-03 0.000E+00

     total cpu time spent up to now is      921.0 secs

     total energy              =  -20153.51508533 Ry
     estimated scf accuracy    <       0.06871987 Ry

     iteration # 11     ecut=    50.00 Ry     beta= 0.70
     Davidson diagonalization with overlap
     c_bands:  1 eigenvalues not converged
     c_bands:  1 eigenvalues not converged
     ethr =  2.40E-05,  avg # of iterations = 10.1

     negative rho (up, down):  2.279E-03 0.000E+00

     total cpu time spent up to now is      985.4 secs

     total energy              =  -20153.51759002 Ry
     estimated scf accuracy    <       0.01271686 Ry

     iteration # 12     ecut=    50.00 Ry     beta= 0.70
     Davidson diagonalization with overlap
     c_bands:  1 eigenvalues not converged
     c_bands:  1 eigenvalues not converged
     c_bands:  1 eigenvalues not converged
     c_bands:  1 eigenvalues not converged
     c_bands:  1 eigenvalues not converged
     ethr =  4.45E-06,  avg # of iterations = 11.8

     negative rho (up, down):  2.245E-03 0.000E+00

     total cpu time spent up to now is     1065.7 secs

     total energy              =  -20153.51443907 Ry
     estimated scf accuracy    <       0.20417158 Ry

     iteration # 13     ecut=    50.00 Ry     beta= 0.70
     Davidson diagonalization with overlap
     c_bands:  1 eigenvalues not converged
     c_bands:  1 eigenvalues not converged
     ethr =  4.45E-06,  avg # of iterations =  8.9

     negative rho (up, down):  2.304E-03 0.000E+00

     total cpu time spent up to now is     1131.7 secs

     total energy              =  -20153.51880650 Ry
     estimated scf accuracy    <       0.02911435 Ry

     iteration # 14     ecut=    50.00 Ry     beta= 0.70
     Davidson diagonalization with overlap
     ethr =  4.45E-06,  avg # of iterations =  2.8

     negative rho (up, down):  2.276E-03 0.000E+00

     total cpu time spent up to now is     1185.6 secs

     total energy              =  -20153.51901267 Ry
     estimated scf accuracy    <       0.01852249 Ry

     iteration # 15     ecut=    50.00 Ry     beta= 0.70
     Davidson diagonalization with overlap
     ethr =  4.45E-06,  avg # of iterations = 12.5

     negative rho (up, down):  2.282E-03 0.000E+00

     total cpu time spent up to now is     1257.2 secs

     total energy              =  -20153.51059014 Ry
     estimated scf accuracy    <       0.94731408 Ry

     iteration # 16     ecut=    50.00 Ry     beta= 0.70
     Davidson diagonalization with overlap
     c_bands:  1 eigenvalues not converged
     c_bands:  1 eigenvalues not converged
     ethr =  4.45E-06,  avg # of iterations = 13.0

     negative rho (up, down):  2.288E-03 0.000E+00

     total cpu time spent up to now is     1327.7 secs

     total energy              =  -20153.51994957 Ry
     estimated scf accuracy    <       0.00159167 Ry

     iteration # 17     ecut=    50.00 Ry     beta= 0.70
     Davidson diagonalization with overlap
     ethr =  5.57E-07,  avg # of iterations =  2.1

     negative rho (up, down):  2.290E-03 0.000E+00

     total cpu time spent up to now is     1380.5 secs

     total energy              =  -20153.52004524 Ry
     estimated scf accuracy    <       0.00007830 Ry

     iteration # 18     ecut=    50.00 Ry     beta= 0.70
     Davidson diagonalization with overlap
     ethr =  2.74E-08,  avg # of iterations =  5.6

     negative rho (up, down):  2.290E-03 0.000E+00

     total cpu time spent up to now is     1472.6 secs

     total energy              =  -20153.52007140 Ry
     estimated scf accuracy    <       0.00022331 Ry

     iteration # 19     ecut=    50.00 Ry     beta= 0.70
     Davidson diagonalization with overlap
     ethr =  2.74E-08,  avg # of iterations =  1.3

     negative rho (up, down):  2.293E-03 0.000E+00

     total cpu time spent up to now is     1520.9 secs

     total energy              =  -20153.52005832 Ry
     estimated scf accuracy    <       0.00034514 Ry

     iteration # 20     ecut=    50.00 Ry     beta= 0.70
     Davidson diagonalization with overlap
     ethr =  2.74E-08,  avg # of iterations =  2.0

     negative rho (up, down):  2.295E-03 0.000E+00

     total cpu time spent up to now is     1572.7 secs

     total energy              =  -20153.52005316 Ry
     estimated scf accuracy    <       0.00033839 Ry

     iteration # 21     ecut=    50.00 Ry     beta= 0.70
     Davidson diagonalization with overlap
     ethr =  2.74E-08,  avg # of iterations =  2.0

     negative rho (up, down):  2.296E-03 0.000E+00

     total cpu time spent up to now is     1625.6 secs

     total energy              =  -20153.52007541 Ry
     estimated scf accuracy    <       0.00010621 Ry

     iteration # 22     ecut=    50.00 Ry     beta= 0.70
     Davidson diagonalization with overlap
     ethr =  2.74E-08,  avg # of iterations =  1.4

     negative rho (up, down):  2.296E-03 0.000E+00

     total cpu time spent up to now is     1674.3 secs

     total energy              =  -20153.52007703 Ry
     estimated scf accuracy    <       0.00001819 Ry

     iteration # 23     ecut=    50.00 Ry     beta= 0.70
     Davidson diagonalization with overlap
     ethr =  6.36E-09,  avg # of iterations =  2.1

     negative rho (up, down):  2.296E-03 0.000E+00

     total cpu time spent up to now is     1734.5 secs

     total energy              =  -20153.52006000 Ry
     estimated scf accuracy    <       0.00128226 Ry

     iteration # 24     ecut=    50.00 Ry     beta= 0.70
     Davidson diagonalization with overlap
     ethr =  6.36E-09,  avg # of iterations =  2.0

     negative rho (up, down):  2.296E-03 0.000E+00

     total cpu time spent up to now is     1793.9 secs

     total energy              =  -20153.52007528 Ry
     estimated scf accuracy    <       0.00010932 Ry

     iteration # 25     ecut=    50.00 Ry     beta= 0.70
     Davidson diagonalization with overlap
     ethr =  6.36E-09,  avg # of iterations =  1.8

     negative rho (up, down):  2.296E-03 0.000E+00

     total cpu time spent up to now is     1841.9 secs

     total energy              =  -20153.52008042 Ry
     estimated scf accuracy    <       0.00002820 Ry

     iteration # 26     ecut=    50.00 Ry     beta= 0.70
     Davidson diagonalization with overlap
     ethr =  6.36E-09,  avg # of iterations =  1.0

     negative rho (up, down):  2.296E-03 0.000E+00

     total cpu time spent up to now is     1886.9 secs

     total energy              =  -20153.52007950 Ry
     estimated scf accuracy    <       0.00022414 Ry

     iteration # 27     ecut=    50.00 Ry     beta= 0.70
     Davidson diagonalization with overlap
     ethr =  6.36E-09,  avg # of iterations =  1.0

     negative rho (up, down):  2.296E-03 0.000E+00

     total cpu time spent up to now is     1937.3 secs

     total energy              =  -20153.52008156 Ry
     estimated scf accuracy    <       0.00000273 Ry

     iteration # 28     ecut=    50.00 Ry     beta= 0.70
     Davidson diagonalization with overlap
     ethr =  9.56E-10,  avg # of iterations =  1.6

     negative rho (up, down):  2.296E-03 0.000E+00

     total cpu time spent up to now is     1986.8 secs

     End of self-consistent calculation

          k = 0.0000 0.0000 0.0000 ( 23605 PWs)   bands (ev):

     1.5080   1.6514   1.8845   2.1897   2.5527   2.9438   3.3203   3.6233
     3.8142   3.8957   3.9281   3.9539   4.0667   4.0717   4.0729   4.2074
     4.2297   4.2871   4.4066   4.4279   4.5103   4.5321   4.5666   4.6021
     4.6611   4.6949   4.7227   4.8772   4.9811   5.0020   5.1591   5.4388
     5.7113   5.8393   5.9378   5.9707   6.1433   6.1472   6.1804   6.2316
     6.2508   6.2716   6.3071   6.3170   6.3173   6.3282   6.3442   6.3523
     6.3543   6.3672   6.3947   6.4012   6.4024   6.4056   6.4182   6.4273
     6.4355   6.4583   6.4705   6.4816   6.4949   6.5252   6.5312   6.5402
     6.5553   6.5598   6.5775   6.5859   6.6177   6.6219   6.6787   6.7138
     6.7452   6.7590   6.8349   6.8703   6.8708   6.8715   6.8721   7.0307
     7.0770   7.1407   7.1717   7.2850   7.4505   7.4673   7.5664   7.5890
     7.6091   7.6843   7.6884   7.6929   7.7021   7.7155   7.7347   7.7656
     7.8004   7.8038   7.8676   7.8682   7.8995   7.9516   8.0094   8.0138
     8.0350   8.1098   8.1689   8.1928   8.3044   8.3701   8.3813   8.3875
     8.4768   8.5159   8.5285   8.5595   8.5647   8.6009   8.6940   8.7061
     8.7066   8.7247   8.7586   8.7608   8.7690   8.7989   8.8041   8.8211
     8.8307   8.8363   8.8394   8.8616   8.8813   8.9031   8.9378   8.9574
     9.0157   9.0270   9.0967   9.2202   9.2213   9.4068  10.2050  10.5088
    10.5627  10.6298  10.9327  11.2450  11.4697  11.6257  11.7286  11.7975
    11.8522  11.8864  11.9210  12.1215  12.1226  13.5501  13.7341  13.9501
    13.9956  14.2904  14.5524  14.8663  14.8883  15.0646  15.3515  15.8997
    16.2069  16.3811  16.4597  16.4708

          k = 0.0000 0.1443 0.0000 ( 23551 PWs)   bands (ev):

     1.6604   1.8029   2.0339   2.3372   2.6983   3.0888   3.4656   3.7675
     3.9529   4.0270   4.0540   4.0767   4.1895   4.2074   4.2086   4.3017
     4.3507   4.3896   4.5176   4.5534   4.5974   4.6422   4.6598   4.7377
     4.7803   4.7986   4.8514   4.9373   5.1013   5.1266   5.2155   5.4710
     5.7061   5.8137   5.8732   5.9378   6.0459   6.0922   6.1241   6.1392
     6.1487   6.1952   6.2465   6.2511   6.2741   6.2851   6.3346   6.3481
     6.3575   6.3849   6.3939   6.4163   6.4288   6.4292   6.4478   6.4674
     6.4682   6.4721   6.4924   6.5068   6.5394   6.5430   6.5523   6.5697
     6.5870   6.5949   6.6221   6.6311   6.6423   6.6537   6.6762   6.6900
     6.7089   6.7325   6.8060   6.8133   6.8406   6.8580   6.9493   6.9556
     6.9680   6.9734   7.1689   7.2293   7.3317   7.3399   7.4057   7.4608
     7.4991   7.5720   7.5784   7.6012   7.6204   7.6756   7.7208   7.7319
     7.7608   7.7694   7.7768   7.8043   7.8436   7.9158   7.9233   7.9534
     8.0393   8.0669   8.0865   8.1095   8.1372   8.2096   8.2589   8.2836
     8.3439   8.3959   8.4399   8.4720   8.4758   8.5089   8.5111   8.5769
     8.6091   8.6238   8.6309   8.6825   8.7019   8.7159   8.7332   8.7393
     8.7511   8.7684   8.7741   8.7987   8.8432   8.8693   8.8881   8.9260
     8.9324   9.0258   9.0525   9.0985   9.3991  10.0386  10.8513  10.9173
    11.0697  11.1072  11.3133  11.5229  11.6788  11.8001  11.9014  11.9989
    12.1096  12.2352  12.3744  12.5057  12.5333  13.5536  13.7739  13.9812
    14.0714  14.3838  14.6569  14.9284  15.0227  15.1740  15.5114  16.0589
    16.1195  16.4700  16.5383  16.5626

          k = 0.0000 0.2887 0.0000 ( 23495 PWs)   bands (ev):

     2.1023   2.2406   2.4629   2.7573   3.1087   3.4927   3.8672   4.1653
     4.3334   4.3866   4.3995   4.4094   4.5143   4.5209   4.5809   4.5821
     4.6113   4.6620   4.7585   4.8647   4.8856   4.9230   4.9449   5.0321
     5.0865   5.1265   5.1484   5.2362   5.3284   5.4086   5.4743   5.6039
     5.6870   5.7047   5.7555   5.8092   5.8373   5.8958   5.9178   5.9557
     5.9908   6.0001   6.0449   6.0552   6.0674   6.0885   6.1462   6.1555
     6.1758   6.2069   6.2530   6.2773   6.3756   6.4019   6.4326   6.4769
     6.5176   6.5249   6.5636   6.6024   6.6110   6.6234   6.6363   6.6597
     6.6717   6.6830   6.6843   6.6937   6.7256   6.7421   6.7623   6.7871
     6.8088   6.8090   6.8322   6.8684   6.8724   6.9048   6.9256   6.9624
     6.9703   6.9835   7.0483   7.0953   7.1244   7.1948   7.2096   7.2219
     7.2947   7.3007   7.3254   7.3755   7.3911   7.4264   7.4573   7.4683
     7.5177   7.5601   7.6100   7.6725   7.7111   7.7735   7.7736   7.7969
     7.8624   7.9088   7.9336   7.9485   7.9564   7.9624   8.0543   8.0597
     8.1303   8.1789   8.2195   8.2360   8.3098   8.3222   8.3389   8.4511
     8.4997   8.5096   8.5264   8.5536   8.5747   8.6030   8.6154   8.6584
     8.6872   8.7098   8.7173   8.7220   8.7854   8.7987   8.8620   8.9304
     8.9426   9.0044   9.1327   9.5647  10.1727  10.8824  11.7446  11.9618
    11.9815  11.9963  12.0449  12.1212  12.1509  12.2236  12.3549  12.5196
    12.7157  12.9377  13.1561  13.3799  13.6050  13.6390  14.0103  14.1255
    14.3886  14.7074  14.9728  15.1471  15.4251  15.5049  15.6927  16.0454
    16.1757  16.6754  16.7516  16.7712

          k = 0.0000 0.4330 0.0000 ( 23423 PWs)   bands (ev):

     2.7845   2.9111   3.1091   3.3752   3.6916   4.0443   4.4000   4.6941
     4.7678   4.8339   4.8419   4.8577   4.8709   4.8745   4.9267   4.9818
     5.0055   5.0727   5.0742   5.1101   5.1792   5.2424   5.3308   5.3613
     5.3714   5.4039   5.4439   5.4991   5.5144   5.5573   5.5611   5.6023
     5.6591   5.6857   5.6931   5.7491   5.7703   5.7827   5.7863   5.7948
     5.8082   5.8197   5.8304   5.8366   5.8859   5.9083   5.9154   5.9377
     5.9733   6.0575   6.0588   6.0869   6.0938   6.1991   6.2791   6.3056
     6.3081   6.3406   6.4376   6.4759   6.5204   6.5515   6.5520   6.6221
     6.6307   6.6502   6.6836   6.7115   6.7137   6.7366   6.7468   6.7537
     6.7634   6.7685   6.8210   6.8855   6.8952   6.9662   7.0065   7.0611
     7.1035   7.1288   7.1678   7.1846   7.1907   7.2685   7.2742   7.3161
     7.3500   7.3831   7.3900   7.4024   7.4048   7.4197   7.4301   7.4497
     7.4981   7.5015   7.5263   7.5495   7.5682   7.6229   7.6342   7.7001
     7.7519   7.8213   7.8294   7.8417   7.8872   7.9096   7.9850   7.9865
     7.9985   8.0559   8.0832   8.1453   8.1684   8.2885   8.3702   8.3922
     8.4162   8.4447   8.5049   8.5099   8.5348   8.5597   8.6097   8.6237
     8.6579   8.6579   8.6736   8.7235   8.7655   8.7879   8.8061   8.8421
     8.8781   9.2148   9.6816  10.2243  10.9127  11.6744  12.5104  12.5256
    12.5797  12.6445  12.6539  12.8483  12.8916  13.1232  13.2111  13.4197
    13.5086  13.5467  13.8643  13.9971  14.2794  14.3502  14.5270  14.5481
    14.8554  15.2635  15.3358  15.5622  15.6009  15.6528  15.9960  16.0658
    16.1149  16.5084  16.6861  17.0338

          k = 0.0000 0.5774 0.0000 ( 23470 PWs)   bands (ev):

     3.6129   3.7106   3.8486   4.0412   4.2612   4.5118   4.7758   4.9341
     5.0358   5.0366   5.0670   5.1095   5.1127   5.1141   5.1980   5.2353
     5.2369   5.2619   5.2864   5.3179   5.3610   5.3668   5.3694   5.3958
     5.4190   5.4329   5.4514   5.5170   5.5241   5.5256   5.5496   5.5517
     5.5694   5.5905   5.6419   5.6499   5.6729   5.6788   5.7080   5.7176
     5.7491   5.7780   5.7848   5.7966   5.8066   5.8123   5.8372   5.9627
     5.9640   5.9888   6.0479   6.0706   6.1427   6.2003   6.2542   6.2786
     6.3307   6.3348   6.3644   6.3944   6.4013   6.4029   6.4224   6.4573
     6.4616   6.4807   6.5184   6.5383   6.5617   6.5808   6.5858   6.5891
     6.5946   6.6157   6.9365   6.9761   6.9954   7.0512   7.0523   7.0562
     7.0569   7.0572   7.1671   7.1961   7.2532   7.3476   7.4152   7.4411
     7.4956   7.5192   7.5239   7.5402   7.5457   7.5480   7.5610   7.5764
     7.5835   7.5935   7.6429   7.6894   7.6937   7.7923   7.8095   7.8218
     7.8232   7.9437   8.0242   8.0577   8.1838   8.2015   8.2476   8.3679
     8.3704   8.4071   8.4243   8.4324   8.4475   8.4551   8.4794   8.4926
     8.5196   8.5254   8.5574   8.5578   8.5867   8.5976   8.6270   8.6402
     8.6465   8.6729   8.6818   8.6846   8.7060   8.7088   8.7629   8.8485
     9.2742   9.7681  10.3375  10.9613  11.6917  12.4580  13.0101  13.1296
    13.1900  13.2718  13.2816  13.2894  13.3000  13.4476  13.5252  13.5982
    13.7370  13.7990  13.8625  13.9941  14.7841  14.9159  14.9270  15.0295
    15.3169  15.3320  15.3867  15.5447  15.8672  15.8788  16.1514  16.3341
    16.4271  16.5206  16.8574  16.9043

          k = 0.0000 0.7217 0.0000 ( 23446 PWs)   bands (ev):

     4.4008   4.4628   4.4861   4.5461   4.6171   4.7192   4.8123   4.8471
     4.9025   4.9611   4.9627   4.9899   5.0531   5.0886   5.1423   5.1863
     5.1922   5.2175   5.2464   5.2527   5.2787   5.2835   5.3583   5.3604
     5.4162   5.4442   5.4912   5.5282   5.5531   5.5781   5.6018   5.6082
     5.6115   5.6315   5.6377   5.6660   5.7119   5.7148   5.7338   5.7456
     5.7669   5.7768   5.7874   5.8022   5.8146   5.8224   5.8742   5.9210
     6.0269   6.0412   6.1127   6.1390   6.1637   6.1974   6.2067   6.2382
     6.2527   6.3091   6.3120   6.3345   6.3472   6.3581   6.3701   6.3986
     6.4188   6.4215   6.4917   6.5247   6.5844   6.6177   6.6812   6.7128
     6.7140   6.7537   6.9732   6.9746   7.0121   7.0132   7.0720   7.1343
     7.1754   7.1764   7.1795   7.2282   7.3254   7.3495   7.3597   7.3881
     7.4001   7.4333   7.4747   7.5127   7.5288   7.5952   7.6182   7.6366
     7.6554   7.6668   7.7113   7.7454   7.7986   7.8206   7.8533   7.8611
     7.9349   8.0556   8.1039   8.1254   8.2440   8.3027   8.3807   8.5234
     8.5647   8.6208   8.6662   8.6764   8.6809   8.6894   8.7104   8.7259
     8.7294   8.7511   8.7766   8.7779   8.7995   8.8041   8.8828   8.8909
     8.9192   8.9259   9.3319   9.3471   9.3556   9.4239   9.5550   9.8031
    10.2108  10.7323  11.3355  11.7082  11.8013  11.9842  12.0048  12.2622
    12.6052  12.7036  13.0103  13.4256  13.4417  13.7814  13.9680  14.0169
    14.1437  14.1491  14.3115  14.4394  14.6587  14.7385  15.0116  15.1210
    15.5348  15.6162  16.0085  16.1283  16.1702  16.3436  16.4572  16.6070
    16.7091  16.8060  17.0738  17.1173

          k = 0.0000-0.8660 0.0000 ( 23420 PWs)   bands (ev):

     4.6870   4.6870   4.7704   4.7704   4.8223   4.8224   4.8263   4.8264
     4.9056   4.9056   4.9400   4.9400   5.0279   5.0280   5.0340   5.0340
     5.1104   5.1105   5.1842   5.1842   5.2479   5.2480   5.2491   5.2491
     5.4556   5.4556   5.4762   5.4762   5.5258   5.5258   5.5553   5.5553
     5.6237   5.6238   5.6696   5.6697   5.7624   5.7624   5.7671   5.7672
     5.8636   5.8636   5.9011   5.9011   5.9122   5.9122   5.9870   5.9870
     6.0034   6.0034   6.0556   6.0557   6.1089   6.1089   6.1423   6.1423
     6.2012   6.2012   6.2613   6.2613   6.3634   6.3634   6.4209   6.4209
     6.5421   6.5421   6.5733   6.5733   6.6314   6.6314   6.7239   6.7239
     6.9838   6.9839   6.9861   6.9861   7.0305   7.0305   7.0328   7.0329
     7.2136   7.2136   7.2302   7.2302   7.2976   7.2976   7.3388   7.3388
     7.3845   7.3845   7.4730   7.4730   7.5702   7.5702   7.6390   7.6390
     7.6885   7.6886   7.7417   7.7417   7.8168   7.8169   7.8614   7.8614
     7.9389   7.9389   8.0249   8.0249   8.2004   8.2004   8.4304   8.4305
     8.6358   8.6359   8.7857   8.7857   8.8178   8.8178   8.8350   8.8351
     8.8669   8.8669   8.9047   8.9047   8.9294   8.9295   9.0245   9.0246
     9.0587   9.0587  10.4194  10.4194  10.4512  10.4512  10.5549  10.5549
    10.7036  10.7036  10.9462  10.9462  11.2822  11.2822  11.7164  11.7164
    12.2294  12.2294  12.8048  12.8048  13.4029  13.4029  14.0247  14.0247
    14.5833  14.5833  15.0257  15.0257  15.7260  15.7260  15.7392  15.7392
    15.8898  15.8898  15.9455  15.9455  16.1705  16.1705  16.2497  16.2497
    16.4901  16.4902  16.5969  16.5970

          k = 0.1250 0.0000 0.0000 ( 23563 PWs)   bands (ev):

     1.6226   1.7652   1.9969   2.3006   2.6624   3.0530   3.4298   3.7320
     3.9192   3.9506   3.9947   4.0239   4.0631   4.1738   4.1750   4.2258
     4.2507   4.3248   4.4190   4.4402   4.5405   4.5612   4.6011   4.6158
     4.6582   4.7506   4.7780   4.9201   5.0094   5.0364   5.1936   5.4649
     5.7229   5.8459   5.9130   5.9941   6.0666   6.1457   6.1596   6.1729
     6.2133   6.2195   6.2610   6.2711   6.2998   6.3350   6.3370   6.3427
     6.3577   6.3701   6.4046   6.4170   6.4224   6.4245   6.4409   6.4490
     6.4577   6.4705   6.4734   6.4949   6.5310   6.5435   6.5475   6.5647
     6.5871   6.5954   6.6157   6.6236   6.6280   6.6609   6.6860   6.6919
     6.7617   6.7620   6.8239   6.8421   6.8507   6.9289   6.9335   6.9349
     7.0029   7.0563   7.1164   7.2883   7.3689   7.3758   7.4269   7.5016
     7.5658   7.5719   7.5815   7.5974   7.6355   7.6913   7.7297   7.7570
     7.7990   7.8151   7.8289   7.8688   7.8700   7.9193   7.9361   7.9474
     8.0375   8.0864   8.1033   8.1879   8.2193   8.2367   8.3116   8.3525
     8.3786   8.4097   8.4771   8.5103   8.5427   8.5835   8.5948   8.6477
     8.6579   8.6820   8.6896   8.6962   8.7201   8.7304   8.7473   8.7648
     8.7778   8.7779   8.8043   8.8267   8.8479   8.8593   8.8605   8.9215
     8.9523   9.0034   9.1227   9.1239   9.2869   9.3427   9.6651   9.9366
     9.9443  10.1328  10.2130  10.3333  10.6908  10.8256  10.9995  11.2714
    11.9561  12.6625  13.2765  13.4542  13.5322  13.6647  13.9213  13.9727
    14.2188  14.5225  14.8351  14.9124  15.1466  15.2142  15.5813  15.8968
    16.3700  16.4472  16.5369  16.9250

          k = 0.1250 0.1443 0.0000 ( 23537 PWs)   bands (ev):

     1.7743   1.9145   2.1446   2.4452   2.8049   3.1944   3.5715   3.8726
     4.0552   4.0768   4.1212   4.1524   4.1881   4.3052   4.3064   4.3443
     4.3511   4.4289   4.5418   4.5561   4.6396   4.6767   4.6900   4.7444
     4.7922   4.8255   4.9119   4.9775   5.1292   5.1629   5.2443   5.4883
     5.7143   5.7998   5.8412   5.9361   5.9928   6.0357   6.0917   6.1030
     6.1233   6.1815   6.1955   6.2228   6.2416   6.2732   6.2796   6.2975
     6.3132   6.3507   6.3902   6.4323   6.4379   6.4665   6.4715   6.4837
     6.4926   6.5047   6.5131   6.5162   6.5419   6.5682   6.5801   6.6060
     6.6128   6.6177   6.6448   6.6566   6.6830   6.6910   6.7016   6.7177
     6.7452   6.7549   6.7620   6.7918   6.8230   6.8771   6.8950   6.9239
     7.0143   7.0160   7.1399   7.1735   7.1938   7.2346   7.3437   7.4306
     7.4562   7.5107   7.5338   7.5495   7.5513   7.5683   7.5962   7.6613
     7.7095   7.7268   7.7572   7.8126   7.8399   7.8536   7.8609   7.8920
     7.9435   7.9793   8.0425   8.0622   8.1336   8.1498   8.2134   8.2152
     8.2732   8.3250   8.3557   8.3606   8.3855   8.4732   8.4756   8.5254
     8.5391   8.5447   8.5688   8.5822   8.6011   8.6291   8.6600   8.6987
     8.7127   8.7479   8.7481   8.7656   8.7818   8.7876   8.8350   8.8903
     8.9985   9.0325   9.1156   9.1475   9.6569   9.9752  10.1390  10.3047
    10.3537  10.4409  10.5688  10.7903  11.1648  11.1691  11.4143  11.6983
    12.3289  12.9958  13.4700  13.5553  13.6517  13.7368  14.0045  14.0146
    14.3278  14.6305  14.9393  14.9789  15.2548  15.3381  15.7106  15.9451
    16.4158  16.5323  16.6400  16.9741

          k = 0.1250 0.2887 0.0000 ( 23467 PWs)   bands (ev):

     2.2103   2.3437   2.5651   2.8534   3.2011   3.5802   3.9516   4.2450
     4.4074   4.4178   4.4522   4.5021   4.5187   4.5604   4.6453   4.6574
     4.6588   4.6634   4.7822   4.8608   4.9262   4.9505   4.9706   5.0748
     5.0907   5.1190   5.1928   5.2486   5.3441   5.4216   5.4807   5.5729
     5.5903   5.6933   5.7668   5.7887   5.8374   5.8528   5.8775   5.9663
     5.9797   6.0201   6.0341   6.0447   6.0624   6.0782   6.0941   6.0967
     6.1442   6.2015   6.2236   6.2760   6.3291   6.3702   6.4690   6.4888
     6.5166   6.5390   6.5799   6.5959   6.6088   6.6189   6.6415   6.6591
     6.6658   6.6792   6.7260   6.7540   6.7629   6.7753   6.7903   6.7920
     6.8340   6.8375   6.8596   6.8778   6.8852   6.9032   6.9132   6.9706
     6.9848   7.0225   7.0233   7.0421   7.0475   7.0949   7.1756   7.1840
     7.1998   7.2236   7.2468   7.3028   7.3520   7.3623   7.4033   7.4817
     7.5050   7.5135   7.5672   7.6167   7.6726   7.6852   7.7490   7.7796
     7.7828   7.7907   7.8526   7.8671   7.9355   7.9608   7.9756   8.0637
     8.0997   8.1223   8.1362   8.2105   8.2273   8.2356   8.2603   8.2706
     8.3287   8.3806   8.4215   8.4918   8.5479   8.6382   8.6528   8.6897
     8.7522   8.7536   8.7789   8.7833   8.8173   8.8256   8.8809   8.9740
     9.0144   9.1157   9.1907   9.6999  10.3128  10.7424  10.8160  10.9298
    11.0632  11.0953  11.3307  11.6598  11.8989  12.0859  12.3764  12.6022
    13.1967  13.5943  13.7152  13.8271  13.9460  14.1634  14.1872  14.4402
    14.6887  14.9730  15.2086  15.2732  15.5866  15.6268  15.9597  16.1160
    16.4223  16.8018  16.9373  16.9616

          k = 0.1250 0.4330 0.0000 ( 23435 PWs)   bands (ev):

     2.8754   2.9904   3.1876   3.4387   3.7443   4.0775   4.4096   4.6648
     4.7892   4.7939   4.8424   4.8580   4.8634   4.8871   4.9700   4.9751
     5.0040   5.0851   5.0904   5.1002   5.1322   5.2006   5.2457   5.3236
     5.3454   5.3706   5.3864   5.4296   5.4727   5.5207   5.5893   5.6030
     5.6487   5.7021   5.7125   5.7404   5.7494   5.7703   5.7932   5.8094
     5.8304   5.8388   5.8601   5.8797   5.9173   5.9326   5.9524   5.9750
     6.0162   6.0324   6.0703   6.1005   6.2031   6.2592   6.2760   6.3394
     6.3851   6.4264   6.4658   6.4908   6.5109   6.5202   6.5612   6.5863
     6.6129   6.6350   6.6558   6.6569   6.6793   6.7059   6.7247   6.7403
     6.7603   6.7786   6.8811   6.8842   6.9546   6.9650   6.9907   7.0470
     7.1329   7.1582   7.1677   7.1987   7.2019   7.2295   7.2458   7.2937
     7.3035   7.3253   7.3428   7.3491   7.3893   7.4134   7.4463   7.4790
     7.4909   7.5344   7.5345   7.5530   7.5978   7.6145   7.6345   7.6427
     7.6618   7.7251   7.7975   7.8040   7.8512   7.9183   7.9304   7.9317
     7.9571   8.0479   8.0911   8.1076   8.1606   8.1889   8.2004   8.2901
     8.3695   8.4381   8.4913   8.5011   8.6125   8.6257   8.6752   8.7197
     8.7282   8.7444   8.7508   8.7703   8.7984   8.8331   8.8834   8.9369
     9.0388   9.2255   9.7288  10.3183  11.0003  11.3686  11.4592  11.6273
    11.7876  11.8677  12.1818  12.5764  12.6583  13.0293  13.5037  13.5821
    13.7774  13.9318  14.2010  14.2960  14.5247  14.6102  14.6677  14.8362
    15.1612  15.3636  15.4894  15.6567  15.6724  15.8565  16.1194  16.1535
    16.3424  16.6615  16.7963  17.2591

          k = 0.1250 0.5774 0.0000 ( 23447 PWs)   bands (ev):

     3.6533   3.7266   3.8780   4.0430   4.2473   4.4598   4.6777   4.8603
     4.8673   4.9130   4.9585   4.9694   4.9711   5.0285   5.0670   5.0788
     5.1110   5.1135   5.2005   5.2077   5.2212   5.2335   5.2992   5.3278
     5.3885   5.4313   5.4326   5.4512   5.4545   5.4884   5.5384   5.5385
     5.5927   5.6054   5.6624   5.6934   5.6998   5.7404   5.7554   5.7652
     5.7681   5.7815   5.7863   5.8601   5.8887   5.9341   5.9358   5.9607
     6.0011   6.0698   6.0850   6.1194   6.1568   6.1594   6.2424   6.2652
     6.3070   6.3884   6.4244   6.4484   6.5040   6.5254   6.5279   6.5700
     6.5855   6.5920   6.6067   6.6100   6.6425   6.6746   6.7025   6.7301
     6.7526   6.7670   6.8665   6.8929   6.9524   6.9689   6.9744   7.0908
     7.1905   7.2491   7.2552   7.2732   7.3035   7.3494   7.3869   7.4186
     7.4373   7.4675   7.4961   7.5197   7.5435   7.5543   7.6117   7.6258
     7.6407   7.6492   7.7167   7.7225   7.7672   7.7711   7.8998   7.9084
     7.9195   7.9695   8.0710   8.0988   8.1636   8.2084   8.2358   8.2452
     8.3342   8.3463   8.3931   8.4340   8.4495   8.4532   8.4759   8.5043
     8.5141   8.5574   8.5576   8.5980   8.6189   8.6324   8.6400   8.6584
     8.6957   8.7244   8.7416   8.7543   8.7715   8.8214   8.8225   8.9188
     9.2555   9.7746  10.3694  11.0279  11.7502  12.0687  12.1916  12.4028
    12.5344  12.6931  13.0354  13.2840  13.3391  13.4142  13.4489  13.6683
    13.9173  14.0244  14.1809  14.2802  14.4522  14.5726  14.8721  15.0756
    15.2063  15.4370  15.4446  15.6489  15.8579  15.9458  16.2157  16.2969
    16.3946  16.7335  16.9032  16.9543

          k = 0.1250 0.7217 0.0000 ( 23455 PWs)   bands (ev):

     4.2662   4.3141   4.4659   4.5203   4.6015   4.6640   4.7198   4.7322
     4.7422   4.8021   4.8205   4.8610   4.9136   4.9561   4.9751   5.0248
     5.0633   5.0939   5.0996   5.1183   5.1945   5.2054   5.2443   5.2629
     5.2647   5.2952   5.3068   5.3416   5.4177   5.4228   5.4542   5.4574
     5.5044   5.5831   5.5966   5.6286   5.6636   5.7176   5.7256   5.7596
     5.7830   5.8276   5.8362   5.8692   5.8971   5.9201   5.9549   6.0066
     6.0271   6.0733   6.0810   6.1578   6.2309   6.2531   6.2565   6.2966
     6.3360   6.3499   6.3682   6.4366   6.4831   6.4920   6.5334   6.6121
     6.6246   6.6506   6.7349   6.7736   6.7756   6.7908   6.8289   6.8384
     6.9086   6.9182   6.9532   7.0171   7.0238   7.0369   7.0812   7.1045
     7.1866   7.1939   7.2632   7.2685   7.3767   7.4119   7.4872   7.4979
     7.5193   7.5487   7.5739   7.6394   7.6584   7.6650   7.7106   7.7400
     7.7609   7.7896   7.8531   7.8752   7.9187   7.9246   8.0397   8.0537
     8.0578   8.1739   8.2320   8.2389   8.3339   8.3377   8.4362   8.5507
     8.5629   8.5712   8.6004   8.6505   8.6604   8.6606   8.6970   8.7397
     8.7547   8.7716   8.7743   8.8010   8.8022   8.8710   8.8933   8.8933
     8.9188   8.9334   9.2647   9.3170   9.3531   9.4002   9.5220   9.7616
    10.1773  10.7207  11.3466  11.7903  11.8730  12.0281  12.0669  12.3054
    12.6357  12.7451  13.0185  13.0761  13.2142  13.4239  13.4840  13.5083
    13.7277  13.9897  14.0779  14.1750  14.4717  14.5760  14.8334  15.1248
    15.2557  15.5473  15.7346  15.9163  15.9910  16.2730  16.3156  16.4993
    16.5349  16.6449  16.8045  16.9791

          k = 0.1250-0.8660 0.0000 ( 23492 PWs)   bands (ev):

     4.4907   4.5484   4.5820   4.6077   4.6221   4.6720   4.7165   4.7291
     4.7454   4.7647   4.8364   4.8702   4.9221   4.9252   5.0038   5.0039
     5.0581   5.0740   5.1102   5.1179   5.1318   5.1344   5.1541   5.1601
     5.2247   5.2367   5.2895   5.2940   5.3366   5.3388   5.3705   5.3780
     5.4751   5.4766   5.5701   5.5919   5.6406   5.6429   5.7326   5.7363
     5.8216   5.8397   5.9154   5.9234   5.9295   5.9613   6.0022   6.0199
     6.0482   6.0529   6.0819   6.0904   6.1565   6.1761   6.2506   6.2573
     6.4179   6.4181   6.4363   6.4566   6.5919   6.5982   6.6289   6.6412
     6.6958   6.7198   6.7586   6.7632   6.8444   6.8465   6.8689   6.8844
     6.9082   6.9199   6.9736   6.9944   7.0670   7.0733   7.1215   7.1730
     7.2228   7.2621   7.3223   7.3579   7.4319   7.4546   7.4864   7.4922
     7.5294   7.5601   7.6082   7.6457   7.7068   7.7107   7.7724   7.8210
     7.8585   7.8645   7.8962   7.9280   7.9916   8.0033   8.0105   8.0282
     8.0823   8.1073   8.1391   8.1622   8.2460   8.2486   8.4385   8.4431
     8.6291   8.6385   8.7323   8.7491   8.7859   8.7863   8.8035   8.8333
     8.8608   8.8814   8.8977   8.9281   8.9406   8.9466   9.0248   9.0254
     9.0545   9.0637  10.4156  10.4164  10.4545  10.4591  10.5587  10.5588
    10.6954  10.7040  10.9282  10.9337  11.2533  11.2642  11.6865  11.6974
    12.2112  12.2170  12.8077  12.8091  13.4003  13.4435  13.9889  14.0103
    14.4391  14.4548  14.6435  14.6446  14.7833  14.8348  14.9922  15.0320
    15.2505  15.2657  15.4465  15.4744  15.7998  15.8230  15.8946  15.9530
    16.2365  16.2399  16.5781  16.6023

          k = 0.2500 0.0000 0.0000 ( 23536 PWs)   bands (ev):

     1.9577   2.0970   2.3230   2.6203   2.9756   3.3621   3.7376   3.9018
     4.0115   4.0364   4.1702   4.2106   4.2699   4.2920   4.3519   4.3588
     4.4084   4.4595   4.4607   4.4754   4.5061   4.6074   4.6914   4.7409
     4.7636   4.8679   4.9176   5.0288   5.1063   5.1321   5.3002   5.5410
     5.7700   5.7889   5.8634   5.8836   5.9220   6.0335   6.0445   6.0556
     6.1103   6.1364   6.1556   6.1719   6.1813   6.2223   6.2843   6.2897
     6.3252   6.3587   6.3790   6.4095   6.4471   6.4754   6.5007   6.5110
     6.5293   6.5526   6.5602   6.5796   6.5880   6.6078   6.6220   6.6329
     6.6465   6.6690   6.7021   6.7032   6.7131   6.7333   6.7480   6.7513
     6.7928   6.8056   6.8212   6.8381   6.8632   6.8720   6.9118   6.9130
     6.9842   7.0296   7.1031   7.1075   7.1223   7.2316   7.2512   7.2816
     7.3407   7.3846   7.4291   7.4568   7.4868   7.5195   7.5596   7.5674
     7.6494   7.6594   7.6898   7.7157   7.7400   7.8240   7.8243   7.8619
     7.9375   7.9743   7.9773   8.0270   8.0506   8.1198   8.2122   8.2158
     8.2296   8.2886   8.3014   8.3389   8.3643   8.3943   8.4041   8.4174
     8.4535   8.4719   8.4956   8.5287   8.5324   8.5508   8.5657   8.5839
     8.6077   8.6150   8.6346   8.6564   8.6790   8.7101   8.7807   8.7922
     8.7978   8.8255   8.8399   8.8811   8.9170   8.9235   8.9369   8.9439
     9.1088   9.3890   9.6978   9.9628  10.3989  10.6698  11.1432  11.5081
    11.8423  11.9025  12.6639  13.4005  14.0684  14.1324  15.0685  15.1122
    15.3287  15.3950  15.5101  15.6042  15.9138  16.3531  16.6496  16.7738
    16.8134  17.1121  17.4041  17.7927

          k = 0.2500 0.1443 0.0000 ( 23484 PWs)   bands (ev):

     2.1052   2.2406   2.4648   2.7570   3.1093   3.4932   3.8691   4.0365
     4.1441   4.1681   4.2999   4.3385   4.3870   4.4164   4.4558   4.4888
     4.5187   4.5806   4.5818   4.5993   4.6376   4.7235   4.7759   4.8206
     4.8703   4.9462   5.0348   5.0910   5.2286   5.2407   5.3436   5.5429
     5.6927   5.7266   5.8048   5.8447   5.8958   5.9165   6.0019   6.0111
     6.0417   6.0550   6.0783   6.0874   6.1415   6.1635   6.2095   6.2322
     6.2679   6.3413   6.3617   6.3752   6.4003   6.4200   6.4501   6.4643
     6.5118   6.5371   6.5670   6.5787   6.6010   6.6091   6.6126   6.6277
     6.6482   6.6678   6.6912   6.6999   6.7209   6.7496   6.7591   6.7842
     6.7903   6.8210   6.8265   6.8362   6.8741   6.9002   6.9348   6.9403
     6.9733   6.9959   7.0322   7.0957   7.1043   7.1941   7.2140   7.2237
     7.2649   7.3000   7.3100   7.3316   7.3965   7.4357   7.4503   7.4696
     7.5111   7.5577   7.6183   7.6636   7.7137   7.7572   7.7785   7.8097
     7.8465   7.8503   7.8995   7.9280   7.9342   7.9901   8.0089   8.0349
     8.1349   8.1645   8.1928   8.1972   8.2142   8.2262   8.2731   8.2916
     8.3069   8.4133   8.4562   8.4684   8.5199   8.5308   8.5455   8.5843
     8.6076   8.6672   8.7115   8.7172   8.7383   8.7607   8.7963   8.8503
     8.9053   8.9818   9.1104   9.1350   9.2303   9.3230   9.3706   9.4528
     9.6022   9.6678  10.1044  10.1816  10.7028  10.9239  11.3876  11.7460
    12.1106  12.1656  12.8546  13.5703  14.1159  14.2965  15.1483  15.2907
    15.3768  15.5015  15.5704  15.7110  16.0036  16.4389  16.7411  16.8719
    16.9044  17.1975  17.4629  17.8228

          k = 0.2500 0.2887 0.0000 ( 23496 PWs)   bands (ev):

     2.5215   2.6458   2.8590   3.1319   3.4649   3.8283   4.1884   4.3987
     4.4699   4.4899   4.6129   4.6215   4.6555   4.6575   4.7199   4.7464
     4.7934   4.8342   4.8772   4.8798   4.9253   4.9845   5.0516   5.0911
     5.1047   5.2004   5.2541   5.3036   5.3801   5.4350   5.4466   5.5737
     5.6138   5.6183   5.7203   5.7222   5.7720   5.8196   5.8844   5.9121
     5.9223   5.9274   5.9546   5.9798   6.0081   6.0569   6.0877   6.1029
     6.1212   6.1234   6.1733   6.2105   6.2422   6.3160   6.3634   6.3685
     6.4248   6.4587   6.4916   6.5089   6.5496   6.5667   6.5678   6.6230
     6.6352   6.6611   6.6775   6.6815   6.6970   6.7384   6.7730   6.7934
     6.8251   6.8350   6.8514   6.8770   6.8987   6.9319   6.9524   6.9587
     6.9844   7.0070   7.0225   7.0415   7.1045   7.1294   7.1547   7.1554
     7.1728   7.2067   7.2432   7.2761   7.2916   7.3393   7.3574   7.3613
     7.4288   7.4422   7.4762   7.5382   7.5414   7.5790   7.6257   7.6792
     7.7201   7.7419   7.7452   7.8071   7.8316   7.8390   7.8872   7.9041
     7.9397   7.9647   8.0067   8.0702   8.0933   8.1561   8.1701   8.2227
     8.2480   8.3799   8.3831   8.4714   8.5984   8.6114   8.6493   8.6974
     8.7631   8.7669   8.7811   8.7927   8.8310   8.8635   8.9446   8.9891
     9.0072   9.0864   9.4592   9.8000   9.8503   9.9090  10.0078  10.0201
    10.1806  10.4647  10.6604  10.8781  11.4023  11.4441  12.0115  12.2914
    12.6629  12.9679  13.3625  14.0178  14.3323  14.6974  15.4080  15.5213
    15.6730  15.8370  15.8575  16.0014  16.2521  16.6399  17.0027  17.0535
    17.2068  17.2820  17.5546  17.6119

          k = 0.2500 0.4330 0.0000 ( 23431 PWs)   bands (ev):

     3.1271   3.2241   3.4101   3.6290   3.9003   4.1846   4.4603   4.6571
     4.7652   4.7741   4.7856   4.8077   4.8239   4.8783   4.9107   4.9512
     4.9836   5.0267   5.0347   5.1126   5.1156   5.1407   5.1552   5.2029
     5.2484   5.2496   5.3091   5.4234   5.4604   5.4835   5.5251   5.5639
     5.5822   5.6249   5.6809   5.7084   5.7512   5.7942   5.8178   5.8361
     5.8626   5.8849   5.9081   5.9268   5.9580   5.9859   6.0028   6.0458
     6.0657   6.1071   6.1272   6.1413   6.1862   6.1915   6.2419   6.2875
     6.3600   6.3807   6.4183   6.4496   6.5254   6.5478   6.5684   6.5743
     6.6226   6.6375   6.6549   6.6736   6.6923   6.7110   6.7121   6.7603
     6.8002   6.8655   6.9079   6.9319   6.9709   6.9834   6.9860   7.0301
     7.0323   7.1283   7.1837   7.1857   7.2048   7.2106   7.2592   7.2652
     7.3089   7.3332   7.3515   7.3868   7.4109   7.4491   7.4678   7.4944
     7.5275   7.5595   7.5971   7.6031   7.6236   7.6317   7.6605   7.6950
     7.7024   7.7217   7.7913   7.8063   7.8160   7.8605   7.8893   7.9367
     7.9699   8.0283   8.0398   8.0620   8.1123   8.1731   8.2188   8.2606
     8.3725   8.3978   8.4284   8.5745   8.6282   8.6740   8.7685   8.8022
     8.8219   8.8244   8.8383   8.8505   8.8516   8.8719   8.9697   9.0220
     9.1228   9.3344   9.9036  10.4073  10.4527  10.5459  10.5494  10.7101
    10.9496  11.2380  11.2867  11.7159  12.0419  12.2220  12.7939  12.8789
    13.3772  14.0135  14.0208  14.5525  14.8438  15.0880  15.6965  15.8311
    15.8877  15.9077  15.9404  16.1755  16.2648  16.4234  16.5220  16.6226
    16.9059  17.0147  17.4024  17.4325

          k = 0.2500 0.5774 0.0000 ( 23466 PWs)   bands (ev):

     3.7319   3.7927   3.9613   4.0912   4.2517   4.3884   4.5257   4.6271
     4.6453   4.6946   4.7168   4.7556   4.7607   4.8312   4.8789   4.8986
     4.9071   4.9971   4.9993   5.0457   5.0496   5.1210   5.1290   5.1808
     5.1943   5.2196   5.2269   5.2538   5.2833   5.3379   5.3627   5.4009
     5.4357   5.4849   5.5263   5.6288   5.6728   5.6728   5.7575   5.8188
     5.8429   5.8553   5.8913   5.9235   5.9570   5.9601   5.9989   6.0838
     6.1185   6.1830   6.2446   6.2514   6.2975   6.3985   6.4107   6.4552
     6.4747   6.4994   6.5292   6.5721   6.5892   6.6178   6.6364   6.6365
     6.6505   6.7151   6.7622   6.7775   6.7900   6.8262   6.8492   6.9173
     6.9218   6.9734   6.9931   7.0133   7.0817   7.1003   7.1694   7.1772
     7.2802   7.2803   7.3290   7.3484   7.3889   7.4831   7.4895   7.5145
     7.5237   7.5450   7.5558   7.6517   7.6638   7.7421   7.7829   7.8108
     7.8777   7.8799   7.9170   7.9348   7.9454   7.9660   7.9947   8.0586
     8.0649   8.0770   8.0839   8.1242   8.1258   8.1305   8.1942   8.2018
     8.2670   8.3036   8.3448   8.3546   8.4089   8.4385   8.4566   8.4929
     8.4933   8.5411   8.5776   8.6159   8.6886   8.6998   8.7441   8.7455
     8.7505   8.8232   8.8232   8.8535   8.8575   8.9339   8.9829   9.0801
     9.2335   9.8304  10.4876  11.0634  11.1373  11.1975  11.2760  11.4824
    11.7628  11.9246  12.1327  12.5792  12.7190  13.0869  13.4799  13.5845
    13.7563  13.8532  14.0766  14.2896  14.4201  14.7622  15.0197  15.0706
    15.1514  15.4533  15.6299  15.7404  15.8850  16.1725  16.4058  16.5498
    16.6497  17.0653  17.2217  17.4226

          k = 0.2500 0.7217 0.0000 ( 23545 PWs)   bands (ev):

     4.0744   4.1392   4.3257   4.3938   4.3996   4.4921   4.5104   4.5180
     4.5431   4.5823   4.6076   4.6451   4.6587   4.7319   4.7556   4.7671
     4.8210   4.8614   4.8674   4.8699   4.9226   4.9310   4.9427   5.0135
     5.0462   5.0812   5.0901   5.1311   5.1483   5.2263   5.2427   5.2441
     5.3113   5.3448   5.4076   5.4840   5.5494   5.6001   5.7159   5.7173
     5.7668   5.8534   5.8673   5.9389   5.9914   6.0154   6.0358   6.1416
     6.1483   6.2452   6.2703   6.3377   6.3545   6.3917   6.4011   6.4646
     6.5391   6.5468   6.5595   6.5972   6.6413   6.6656   6.6943   6.7239
     6.7586   6.8076   6.8146   6.8483   6.9375   6.9629   7.0257   7.0739
     7.1116   7.1177   7.1989   7.2133   7.2753   7.2925   7.3024   7.3689
     7.4155   7.4182   7.5557   7.5819   7.6458   7.6768   7.7401   7.8102
     7.8269   7.8998   7.9088   7.9242   7.9511   7.9631   8.0094   8.0785
     8.1383   8.1757   8.2027   8.2179   8.2247   8.2283   8.2728   8.3036
     8.3213   8.3345   8.4314   8.4513   8.4787   8.5350   8.5394   8.5584
     8.5813   8.5839   8.5947   8.6104   8.6607   8.6886   8.6925   8.7048
     8.7415   8.7735   8.7896   8.8212   8.8741   8.9062   8.9294   8.9444
     8.9474   9.0008   9.1246   9.2259   9.3278   9.3564   9.4487   9.6640
    10.1077  10.7130  11.3999  11.9309  11.9805  12.0010  12.0576  12.1349
    12.1408  12.2429  12.3847  12.5411  12.7653  12.8725  12.9567  13.2125
    13.3750  13.4522  13.6260  13.7876  13.9833  14.2835  14.3065  14.6866
    14.9045  15.3049  15.3598  15.3598  15.5601  15.7297  15.7531  15.9791
    16.0207  16.1926  16.4479  16.6066

          k = 0.2500-0.8660 0.0000 ( 23532 PWs)   bands (ev):

     4.2020   4.2556   4.3270   4.3304   4.4102   4.4630   4.4740   4.5041
     4.5388   4.5426   4.6364   4.6585   4.7041   4.7057   4.7345   4.7414
     4.7974   4.7987   4.8088   4.8101   4.8925   4.9038   4.9057   4.9177
     4.9494   4.9536   5.0420   5.0472   5.0772   5.0778   5.2268   5.2342
     5.3019   5.3100   5.3293   5.3307   5.5184   5.5199   5.6823   5.6848
     5.8165   5.8499   5.9406   5.9695   6.0512   6.0564   6.1072   6.1262
     6.1612   6.1660   6.2260   6.2376   6.4160   6.4216   6.4566   6.4595
     6.5257   6.5486   6.5688   6.5797   6.6472   6.6611   6.7090   6.7265
     6.7759   6.8016   6.8825   6.9108   6.9921   7.0041   7.0841   7.1059
     7.1669   7.1801   7.2966   7.3086   7.3665   7.3767   7.4333   7.4577
     7.5010   7.5222   7.6613   7.6944   7.6961   7.7005   7.8846   7.9122
     7.9189   7.9622   8.0611   8.0622   8.0852   8.0988   8.0991   8.1212
     8.2453   8.2563   8.3006   8.3394   8.3547   8.3657   8.3903   8.3936
     8.3991   8.4119   8.4292   8.4420   8.4732   8.4767   8.5263   8.5369
     8.6419   8.6580   8.7009   8.7193   8.7515   8.7569   8.7854   8.8100
     8.8300   8.8599   8.9016   8.9127   8.9654   8.9813   9.0305   9.0346
     9.0538   9.0686  10.3875  10.4034  10.4774  10.4868  10.6055  10.6129
    10.7233  10.7467  10.9160  10.9284  11.1939  11.2201  11.5993  11.6275
    12.1184  12.1420  12.7174  12.7582  13.3512  13.3681  13.5192  13.5464
    13.6437  13.6444  13.7605  13.8256  13.9341  14.0474  14.1352  14.1747
    14.3956  14.5461  14.7435  14.8039  15.0160  15.1347  15.4459  15.4906
    15.7719  15.7982  15.9707  15.9809

          k = 0.3750 0.0000 0.0000 ( 23492 PWs)   bands (ev):

     2.4807   2.6115   2.8224   3.1003   3.4332   3.6610   3.7623   3.7975
     3.9097   4.0794   4.1551   4.2374   4.3693   4.4344   4.4957   4.5734
     4.6104   4.6287   4.6844   4.7204   4.8465   4.8487   4.8536   4.9137
     4.9773   5.0160   5.1095   5.1845   5.2267   5.3205   5.4799   5.5161
     5.6167   5.6676   5.7633   5.7992   5.8585   5.8909   5.9131   5.9166
     5.9386   5.9735   6.0329   6.0680   6.0867   6.1212   6.1385   6.1807
     6.2655   6.3076   6.3328   6.4097   6.4132   6.4578   6.4903   6.5138
     6.5161   6.5587   6.5610   6.5887   6.5931   6.6160   6.6371   6.6445
     6.6638   6.6898   6.6963   6.6986   6.7464   6.7757   6.8113   6.8207
     6.8359   6.8596   6.8858   6.9136   6.9253   6.9297   6.9473   6.9738
     6.9991   7.0045   7.0214   7.0628   7.1208   7.1447   7.1472   7.1781
     7.2016   7.2065   7.2720   7.3128   7.3248   7.3455   7.3917   7.4345
     7.4911   7.5010   7.5269   7.5353   7.6161   7.6174   7.6498   7.6760
     7.6767   7.7411   7.7741   7.7906   7.8750   7.9023   7.9459   7.9524
     7.9692   7.9825   8.0115   8.0332   8.0359   8.0525   8.0677   8.0688
     8.0902   8.1314   8.1731   8.1934   8.2340   8.2435   8.2687   8.3215
     8.3427   8.3431   8.3817   8.4366   8.4578   8.5300   8.5573   8.5855
     8.6324   8.6599   8.7020   8.7998   8.8178   8.8498   8.8738   8.9442
     9.1667   9.4071   9.7739   9.9527  10.4348  10.6053  11.1303  11.3632
    11.8697  12.2480  12.6383  12.8815  13.4532  14.3282  14.9632  15.3785
    15.6155  15.8202  16.4901  16.9837  17.1944  17.2643  17.4280  17.6106
    17.7871  17.9648  18.2624  18.7130

          k = 0.3750 0.1443 0.0000 ( 23495 PWs)   bands (ev):

     2.6233   2.7482   2.9565   3.2270   3.5553   3.8028   3.9019   3.9164
     4.0398   4.2019   4.2780   4.3493   4.4786   4.5690   4.6114   4.7123
     4.7340   4.7512   4.7945   4.8429   4.9544   4.9592   4.9607   4.9943
     5.0505   5.1120   5.2037   5.2730   5.3458   5.4099   5.5038   5.5163
     5.6184   5.6462   5.6593   5.7751   5.7821   5.8092   5.8523   5.8757
     5.8810   5.9169   5.9339   6.0027   6.0199   6.0329   6.0735   6.1090
     6.1207   6.2035   6.2337   6.2587   6.2937   6.3255   6.3620   6.4161
     6.4320   6.4416   6.4770   6.5017   6.5371   6.5501   6.5579   6.5846
     6.6078   6.6380   6.6750   6.6878   6.6948   6.6963   6.7132   6.7346
     6.7797   6.7954   6.8267   6.8442   6.8722   6.9213   6.9451   6.9920
     7.0221   7.0344   7.0770   7.0778   7.1483   7.1490   7.1899   7.2099
     7.2358   7.2788   7.2956   7.3034   7.3261   7.3654   7.3828   7.3999
     7.4215   7.4398   7.4772   7.4776   7.5136   7.5764   7.6152   7.6743
     7.7091   7.7291   7.7461   7.7671   7.7786   7.8365   7.9047   7.9096
     7.9526   7.9629   8.0351   8.0622   8.0793   8.0952   8.1474   8.1738
     8.2263   8.2585   8.2964   8.3116   8.3940   8.4103   8.4267   8.4741
     8.4945   8.5057   8.5211   8.5462   8.6178   8.6399   8.6599   8.6921
     8.7029   8.7135   8.7542   8.7584   8.7907   8.8313   8.9371   9.1175
     9.3897   9.5616   9.9521  10.1113  10.5868  10.7614  11.2685  11.5378
    12.0103  12.4079  12.7703  13.1459  13.5851  14.4103  15.1817  15.4795
    15.7797  15.9221  16.6192  17.0976  17.2739  17.3503  17.4613  17.6428
    17.8910  18.0406  18.2989  18.7628

          k = 0.3750 0.2887 0.0000 ( 23497 PWs)   bands (ev):

     3.0125   3.1209   3.3138   3.5551   3.8540   4.1819   4.1848   4.2665
     4.3491   4.4567   4.5188   4.5556   4.6747   4.7989   4.8174   4.9276
     4.9669   4.9761   5.0857   5.1029   5.1845   5.1895   5.1921   5.2384
     5.2617   5.3289   5.3488   5.3718   5.4280   5.4917   5.5111   5.5830
     5.5971   5.6243   5.6251   5.6860   5.7133   5.7332   5.7422   5.7616
     5.7731   5.8174   5.8506   5.8639   5.9020   5.9047   5.9606   5.9707
     5.9747   5.9825   6.0583   6.0802   6.1246   6.1984   6.2018   6.2352
     6.2836   6.3168   6.3217   6.3618   6.4010   6.4189   6.4244   6.4536
     6.4546   6.5326   6.5340   6.5743   6.6022   6.6135   6.6414   6.6950
     6.7113   6.7255   6.7367   6.7403   6.8007   6.8741   6.8761   6.9452
     6.9602   6.9921   7.0339   7.1262   7.1883   7.2374   7.2461   7.2692
     7.2939   7.3222   7.3362   7.3676   7.3782   7.4002   7.4297   7.4443
     7.4870   7.5182   7.5280   7.5967   7.5998   7.6259   7.6480   7.6541
     7.6872   7.7111   7.7214   7.7634   7.8659   7.9097   7.9460   7.9581
     7.9727   8.0840   8.1027   8.1184   8.1401   8.1472   8.1920   8.2251
     8.2717   8.3278   8.4078   8.4949   8.5112   8.5536   8.5788   8.6134
     8.6297   8.6728   8.6799   8.6864   8.6992   8.7699   8.8287   8.9048
     8.9317   9.0544   9.1020   9.1066   9.1638   9.2709   9.3559   9.4900
     9.8565   9.8970  10.4205  10.4560  11.0233  11.1327  11.6773  11.9301
    12.4126  12.7801  13.1456  13.8165  13.9300  14.7184  15.7622  15.7839
    16.2119  16.2543  16.9491  17.3839  17.4854  17.5251  17.5838  17.7823
    18.0679  18.1411  18.3521  18.6466

          k = 0.3750 0.4330 0.0000 ( 23475 PWs)   bands (ev):

     3.5210   3.5940   3.7607   3.9305   4.1468   4.3625   4.4322   4.5264
     4.5752   4.6044   4.6890   4.7122   4.7367   4.7513   4.8477   4.8567
     4.9508   4.9648   5.0232   5.0739   5.1183   5.1427   5.1713   5.2162
     5.2267   5.2415   5.2988   5.3206   5.3331   5.3555   5.4102   5.4664
     5.5158   5.5851   5.5963   5.6267   5.6986   5.7168   5.7391   5.8284
     5.8382   5.8688   5.8886   5.9584   5.9735   5.9782   6.0759   6.0862
     6.0992   6.1124   6.1653   6.1906   6.2148   6.2291   6.2598   6.2896
     6.2984   6.3262   6.3483   6.3744   6.4028   6.4621   6.5110   6.5242
     6.6016   6.6130   6.6272   6.6371   6.6895   6.7001   6.7654   6.7807
     6.8126   6.8774   6.8831   6.8897   6.9290   6.9603   6.9608   6.9763
     7.0061   7.0325   7.1135   7.1341   7.1867   7.2675   7.2744   7.3597
     7.3782   7.4159   7.4515   7.5044   7.5201   7.5614   7.5618   7.5819
     7.6420   7.6582   7.6682   7.6950   7.7103   7.7676   7.7906   7.8315
     7.8983   7.9156   7.9236   7.9679   7.9790   8.0092   8.0401   8.0929
     8.1475   8.1792   8.1981   8.2360   8.2953   8.3460   8.3531   8.3945
     8.4159   8.4210   8.4946   8.5748   8.6100   8.6861   8.6926   8.7586
     8.7708   8.7778   8.7851   8.7949   8.8245   8.8950   8.9461   9.0344
     9.1191   9.5643   9.5910   9.6229   9.6493   9.7096   9.8634  10.1323
    10.2501  10.5362  10.9232  11.0485  11.6309  11.6464  12.2816  12.4328
    13.0041  13.2216  13.6905  14.4260  14.6765  15.2876  16.2492  16.2727
    16.5498  16.6129  16.7228  16.8511  17.0551  17.1013  17.4157  17.5121
    17.6957  17.7424  17.9476  18.0589

          k = 0.3750 0.5774 0.0000 ( 23521 PWs)   bands (ev):

     3.8677   3.9284   4.1125   4.2262   4.2929   4.3322   4.3977   4.4130
     4.4665   4.5460   4.5621   4.5759   4.6351   4.6791   4.7398   4.7618
     4.7856   4.8092   4.8626   4.8688   4.8926   4.9344   4.9422   4.9613
     5.0232   5.0296   5.0483   5.1093   5.1473   5.1730   5.1891   5.2227
     5.3149   5.3815   5.3825   5.4284   5.5427   5.6027   5.6764   5.7964
     5.8243   5.9099   5.9375   6.0055   6.0893   6.1131   6.1426   6.1712
     6.2137   6.3136   6.3237   6.3634   6.4023   6.4575   6.4807   6.5276
     6.5355   6.5421   6.5662   6.5667   6.6115   6.6483   6.7123   6.7368
     6.7492   6.7785   6.8152   6.8172   6.8832   6.8857   6.9807   7.0116
     7.0147   7.0860   7.0994   7.1168   7.1451   7.2612   7.2776   7.3067
     7.3737   7.3822   7.4803   7.5325   7.5841   7.6627   7.6675   7.7330
     7.7487   7.7526   7.8103   7.8321   7.9202   7.9448   7.9819   8.0006
     8.0299   8.0714   8.0817   8.1165   8.1535   8.1952   8.1999   8.2031
     8.2368   8.2502   8.2523   8.2688   8.3069   8.3176   8.3290   8.3334
     8.3450   8.3608   8.4243   8.4295   8.4714   8.5042   8.5387   8.5742
     8.5967   8.6053   8.6319   8.6878   8.7033   8.7375   8.7625   8.7808
     8.8367   8.8490   8.8699   8.8945   8.8967   8.9730   9.0170   9.1064
     9.4179  10.0664  10.0826  10.1394  10.2238  10.3501  10.5335  10.7890
    10.8333  11.2506  11.5375  11.7748  12.2738  12.3954  13.0265  13.0644
    13.7009  13.7755  14.2302  14.4954  14.6338  14.8845  14.9599  15.2923
    15.3089  15.4914  15.7788  15.8585  16.2374  16.3756  16.4866  16.7131
    16.7661  16.9613  17.1548  17.2627

          k = 0.3750 0.7217 0.0000 ( 23544 PWs)   bands (ev):

     3.9824   4.0534   4.1247   4.2417   4.2524   4.2750   4.3734   4.3788
     4.3965   4.4059   4.4550   4.4655   4.5496   4.5766   4.5954   4.6065
     4.6219   4.6456   4.6759   4.7034   4.7041   4.7252   4.7928   4.8011
     4.8209   4.8610   4.8670   4.9468   4.9707   4.9843   5.0569   5.0853
     5.1565   5.2027   5.2372   5.2612   5.4866   5.4934   5.7215   5.7241
     5.8674   5.9012   5.9620   6.0482   6.0573   6.1363   6.1769   6.1999
     6.2636   6.3277   6.3548   6.3733   6.4252   6.4542   6.4654   6.4677
     6.4951   6.5091   6.6083   6.6582   6.6589   6.7129   6.7474   6.8031
     6.8375   6.8572   6.9103   7.0087   7.0572   7.1303   7.1686   7.2071
     7.2593   7.2917   7.3780   7.4381   7.5044   7.5568   7.5830   7.6416
     7.7422   7.7790   7.8142   7.8513   7.9040   7.9951   8.0278   8.0759
     8.1600   8.2037   8.2393   8.3087   8.3191   8.3710   8.3794   8.4115
     8.4637   8.4656   8.4819   8.5186   8.5376   8.5458   8.5624   8.5751
     8.5940   8.6088   8.6155   8.6191   8.6483   8.6493   8.6629   8.6969
     8.6979   8.7111   8.7115   8.7313   8.7339   8.7438   8.7672   8.7876
     8.7953   8.8434   8.8660   8.8964   8.9054   8.9516   8.9924   8.9953
     9.0213   9.0311   9.1073   9.1720   9.4023   9.4791   9.5476   9.7040
    10.1757  10.7212  10.8482  10.8887  11.0408  11.2202  11.3829  11.5888
    11.6221  11.9329  12.2801  12.3800  12.5923  12.7424  12.9415  13.0303
    13.1297  13.2627  13.3871  13.8245  13.8624  14.0772  14.2923  14.3425
    14.4702  14.4914  14.6640  14.7216  14.9061  15.1206  15.2528  15.5746
    15.6262  16.0380  16.0675  16.2483

          k = 0.3750-0.8660 0.0000 ( 23556 PWs)   bands (ev):

     4.0005   4.0549   4.1309   4.1331   4.2489   4.2759   4.2909   4.3165
     4.3591   4.3626   4.4513   4.4686   4.5068   4.5128   4.5484   4.5534
     4.6029   4.6098   4.6194   4.6209   4.6775   4.6954   4.7214   4.7221
     4.7450   4.7451   4.8156   4.8223   4.9208   4.9253   5.0550   5.0583
     5.0825   5.0834   5.1921   5.1935   5.4543   5.4570   5.6967   5.7261
     5.8905   5.8911   5.9901   6.0318   6.1237   6.1314   6.1838   6.1844
     6.2594   6.2814   6.3313   6.3619   6.4079   6.4151   6.4584   6.4681
     6.5189   6.5299   6.6410   6.6581   6.6935   6.7019   6.7841   6.7887
     6.9120   6.9268   6.9926   7.0281   7.1151   7.1187   7.2450   7.2745
     7.3789   7.3803   7.4449   7.4453   7.5927   7.6157   7.7509   7.7802
     7.8369   7.8497   7.8996   7.9202   8.1371   8.1453   8.1873   8.1911
     8.2233   8.2392   8.4202   8.4288   8.4453   8.4865   8.5436   8.5533
     8.5616   8.5798   8.6074   8.6159   8.6418   8.6553   8.6670   8.6797
     8.6980   8.7015   8.7357   8.7432   8.7585   8.7594   8.7685   8.7817
     8.7894   8.8097   8.8211   8.8363   8.8515   8.8563   8.8685   8.8820
     8.9037   8.9253   8.9484   8.9619   9.0207   9.0222   9.0840   9.0885
     9.0941   9.0984  10.2851  10.3506  10.5177  10.5313  10.7581  10.7979
    10.9355  10.9764  11.0929  11.1147  11.2420  11.2895  11.4978  11.5540
    11.8602  11.9047  12.2223  12.3123  12.5100  12.5415  12.6391  12.7464
    12.7898  12.7973  12.8229  13.0089  13.3397  13.6583  13.7677  13.8053
    13.9819  14.1900  14.3689  14.4301  14.6103  14.7652  14.9913  15.1108
    15.4215  15.6294  15.7648  15.9382

          k =-0.5000 0.0000-0.0000 ( 23442 PWs)   bands (ev):

     3.1130   3.1130   3.2259   3.2259   3.4037   3.4037   3.6336   3.6336
     3.9023   3.9023   4.1883   4.1883   4.4614   4.4614   4.6579   4.6579
     4.7632   4.7632   4.8783   4.8783   5.0043   5.0043   5.1312   5.1312
     5.1629   5.1629   5.2218   5.2218   5.3094   5.3094   5.4491   5.4491
     5.5781   5.5781   5.7058   5.7058   5.8121   5.8121   5.8567   5.8567
     5.9208   5.9208   5.9808   5.9808   6.0411   6.0411   6.1185   6.1185
     6.1795   6.1795   6.2415   6.2416   6.3559   6.3559   6.4294   6.4294
     6.5290   6.5290   6.5850   6.5850   6.6267   6.6267   6.6736   6.6736
     6.6809   6.6809   6.6917   6.6917   6.7102   6.7102   6.7387   6.7387
     6.8042   6.8043   6.8795   6.8795   6.9051   6.9051   6.9464   6.9464
     7.0002   7.0002   7.1611   7.1612   7.1845   7.1846   7.1884   7.1885
     7.2436   7.2436   7.2802   7.2803   7.3612   7.3612   7.4122   7.4122
     7.4324   7.4324   7.5064   7.5064   7.5424   7.5424   7.5571   7.5571
     7.6087   7.6087   7.6244   7.6244   7.6675   7.6676   7.7107   7.7107
     7.7908   7.7908   7.8295   7.8295   7.8935   7.8935   7.9660   7.9660
     8.0258   8.0258   8.0740   8.0740   8.1013   8.1014   8.1619   8.1619
     8.2404   8.2404   8.3570   8.3570   8.4056   8.4056   8.5675   8.5675
     8.6637   8.6637   8.8165   8.8165   8.8263   8.8263   8.8574   8.8574
     9.3282   9.3282   9.8908   9.8909  10.5141  10.5141  11.2191  11.2191
    11.9974  11.9974  12.8814  12.8814  13.9799  13.9799  14.8669  14.8669
    15.8727  15.8727  16.4449  16.4452  17.4163  17.4166  17.8137  17.8138
    19.1485  19.1486  19.3099  19.3101

          k =-0.5000 0.1443-0.0000 ( 23476 PWs)   bands (ev):

     3.2472   3.2545   3.3600   3.3608   3.5294   3.5324   3.7525   3.7552
     4.0151   4.0162   4.2988   4.3010   4.5818   4.5824   4.7956   4.8058
     4.9035   4.9058   5.0099   5.0121   5.1282   5.1309   5.2141   5.2237
     5.2741   5.2776   5.2913   5.3068   5.3678   5.3736   5.4865   5.4964
     5.5868   5.6033   5.6658   5.6840   5.7217   5.7392   5.7552   5.7580
     5.8396   5.8459   5.8567   5.8604   5.9381   5.9417   5.9749   5.9977
     6.0359   6.0639   6.0723   6.0726   6.2166   6.2296   6.3399   6.3480
     6.4094   6.4530   6.4636   6.4835   6.5128   6.5148   6.5481   6.5744
     6.5928   6.6049   6.6224   6.6344   6.6580   6.6639   6.6769   6.6831
     6.6989   6.7099   6.7224   6.7280   6.7633   6.7812   6.9056   6.9107
     6.9783   6.9855   7.0846   7.0898   7.1703   7.1809   7.2900   7.2985
     7.3595   7.3609   7.3727   7.3799   7.3928   7.3946   7.4194   7.4284
     7.4522   7.4936   7.5055   7.5295   7.5742   7.5836   7.6455   7.6684
     7.6972   7.7060   7.7655   7.7660   7.7773   7.7967   7.8395   7.8594
     7.8648   7.8786   7.9318   7.9517   8.0736   8.0744   8.0919   8.0953
     8.1403   8.1497   8.1952   8.2097   8.2228   8.2397   8.2895   8.2941
     8.3012   8.3037   8.3486   8.3556   8.4350   8.4438   8.5326   8.5489
     8.6324   8.6696   8.7142   8.7166   8.7383   8.7410   9.0058   9.0219
     9.4581   9.4909  10.0020  10.0361  10.6168  10.6575  11.3360  11.3578
    12.1097  12.1416  12.9963  13.0029  14.1960  14.2150  14.9885  15.0076
    15.9922  15.9958  16.5371  16.5490  17.5497  17.5739  17.8681  17.8776
    19.2040  19.2156  19.3817  19.4090

          k =-0.5000 0.2887-0.0000 ( 23540 PWs)   bands (ev):

     3.6019   3.6282   3.7086   3.7120   3.8463   3.8556   4.0347   4.0457
     4.2585   4.2657   4.5044   4.5190   4.7686   4.7834   5.0339   5.0371
     5.2264   5.2435   5.2697   5.3057   5.3187   5.3405   5.3610   5.3723
     5.3976   5.3984   5.4197   5.4298   5.4550   5.4619   5.5046   5.5059
     5.5252   5.5282   5.5409   5.5658   5.5928   5.6041   5.6487   5.6496
     5.7117   5.7201   5.7665   5.7820   5.8104   5.8175   5.8263   5.8406
     5.9734   6.0014   6.0407   6.0497   6.0722   6.0728   6.1317   6.1468
     6.1928   6.2145   6.2355   6.2436   6.3140   6.3305   6.3860   6.3919
     6.4366   6.4412   6.5007   6.5095   6.5315   6.5315   6.5650   6.5837
     6.5886   6.5888   6.5942   6.6517   6.9405   6.9468   6.9645   6.9852
     6.9998   7.0122   7.0470   7.0513   7.1446   7.1749   7.1991   7.2121
     7.2553   7.2712   7.3318   7.3584   7.4168   7.4786   7.5254   7.5370
     7.5849   7.5858   7.6398   7.6433   7.6832   7.7050   7.7731   7.7766
     7.8181   7.8347   7.9373   7.9541   8.0182   8.0245   8.0516   8.0568
     8.1509   8.1904   8.2064   8.2216   8.2400   8.2574   8.3657   8.3668
     8.3944   8.4103   8.4245   8.4300   8.4473   8.4579   8.4895   8.4928
     8.5114   8.5164   8.5397   8.5755   8.5974   8.5982   8.6231   8.6352
     8.6814   8.6832   8.6985   8.7200   8.8454   8.8487   9.2630   9.2885
     9.7494   9.7936  10.3114  10.3611  10.9328  11.0027  11.6727  11.7082
    12.4332  12.4946  13.2903  13.3078  14.7651  14.8123  15.3691  15.4020
    16.3263  16.3474  16.8363  16.8736  17.8900  17.9618  18.0523  18.0659
    19.2612  19.2885  19.3360  19.4071

          k =-0.5000 0.4330-0.0000 ( 23522 PWs)   bands (ev):

     3.9402   4.0100   4.0574   4.0646   4.1700   4.2003   4.3004   4.3358
     4.4341   4.4654   4.5660   4.5975   4.7148   4.7399   4.8593   4.8702
     4.9601   4.9820   5.0285   5.0457   5.0873   5.1066   5.1361   5.1466
     5.2045   5.2120   5.2864   5.3021   5.3349   5.3483   5.4509   5.4515
     5.5000   5.5079   5.5839   5.5869   5.6089   5.6617   5.7353   5.7472
     5.8433   5.8456   5.9226   5.9383   5.9956   6.0029   6.0419   6.0485
     6.1026   6.1329   6.1574   6.1652   6.2236   6.2297   6.2780   6.2847
     6.3160   6.3303   6.3735   6.3922   6.4514   6.4605   6.4806   6.4988
     6.5400   6.5633   6.6168   6.6496   6.7083   6.7128   6.7348   6.7617
     6.7738   6.8059   6.8449   6.8498   6.8737   6.9088   6.9287   6.9296
     7.0113   7.0256   7.1096   7.1169   7.2187   7.2321   7.3874   7.3881
     7.4538   7.4593   7.5192   7.5200   7.5512   7.5568   7.5819   7.6047
     7.6077   7.6161   7.6992   7.7105   7.8242   7.8284   7.8492   7.8546
     8.0152   8.0214   8.0953   8.1215   8.2124   8.2219   8.2718   8.2746
     8.3637   8.3711   8.4569   8.4622   8.5005   8.5089   8.5356   8.5365
     8.5692   8.5731   8.6293   8.6295   8.6445   8.6961   8.7732   8.7767
     8.7862   8.7895   8.8114   8.8461   8.8553   8.8634   8.8740   8.8774
     8.9250   8.9276   9.0040   9.0046   9.1966   9.2003   9.6188   9.6417
    10.1512  10.1960  10.7674  10.8168  11.4158  11.5014  12.1729  12.2135
    12.9062  12.9914  13.7069  13.7343  15.4134  15.4963  15.9258  15.9696
    16.7546  16.7948  17.2867  17.3903  17.4980  17.5831  17.6675  17.7114
    17.9411  17.9869  18.1257  18.1297

          k =-0.5000 0.5774-0.0000 ( 23534 PWs)   bands (ev):

     4.0044   4.0729   4.1389   4.1421   4.2767   4.3242   4.3922   4.4608
     4.4920   4.4994   4.5178   4.5184   4.5826   4.6142   4.6275   4.6447
     4.7208   4.7328   4.7503   4.7626   4.8211   4.8233   4.8648   4.8687
     4.9307   4.9454   5.0126   5.0365   5.0919   5.0928   5.2263   5.2297
     5.2418   5.2450   5.3324   5.3404   5.5314   5.5479   5.7006   5.7222
     5.8477   5.8723   6.0177   6.0463   6.1545   6.1562   6.2173   6.2845
     6.3224   6.3373   6.3630   6.3647   6.4201   6.4356   6.4872   6.4898
     6.5259   6.5342   6.5690   6.5698   6.6149   6.6242   6.6981   6.7135
     6.7516   6.7549   6.8240   6.8504   6.9478   6.9550   7.0248   7.0266
     7.0949   7.1080   7.1820   7.1895   7.2544   7.2791   7.3026   7.3366
     7.4193   7.4339   7.5608   7.5620   7.6413   7.6698   7.7378   7.7869
     7.8243   7.8327   7.8991   7.9015   7.9212   7.9284   8.0236   8.0269
     8.1244   8.1255   8.1750   8.1981   8.2117   8.2150   8.2205   8.2220
     8.2643   8.2724   8.2825   8.3013   8.4349   8.4383   8.4725   8.4751
     8.5304   8.5386   8.5816   8.5845   8.5990   8.6066   8.6679   8.6763
     8.7334   8.7353   8.7693   8.7854   8.7944   8.8397   8.9051   8.9073
     8.9307   8.9811   9.1202   9.1224   9.2282   9.2292   9.3192   9.3283
     9.3556   9.3789   9.4497   9.4589   9.6707   9.6820  10.1124  10.1191
    10.6950  10.7263  11.3801  11.4112  12.0678  12.1528  12.8362  12.8761
    13.5276  13.6347  14.2690  14.2924  15.2869  15.3042  15.3533  15.3916
    15.5596  15.5829  15.7130  15.7314  15.9654  16.0058  16.4052  16.4392
    16.8875  16.8938  17.1891  17.1973

          k =-0.5000 0.7217-0.0000 ( 23516 PWs)   bands (ev):

     3.9567   4.0154   4.0901   4.0922   4.2352   4.2461   4.2824   4.2901
     4.3532   4.3553   4.4268   4.4403   4.4802   4.4802   4.5488   4.5564
     4.5741   4.5815   4.6250   4.6276   4.6437   4.6549   4.6889   4.6892
     4.7533   4.7567   4.8110   4.8190   4.9342   4.9380   5.0410   5.0411
     5.0688   5.0693   5.1984   5.2007   5.4630   5.4630   5.6971   5.7303
     5.8825   5.9164   6.0281   6.0904   6.1386   6.1787   6.2178   6.2218
     6.3143   6.3186   6.3404   6.3516   6.4038   6.4142   6.4652   6.4676
     6.5019   6.5091   6.6397   6.6546   6.7308   6.7552   6.8082   6.8199
     6.8941   6.9224   7.0100   7.0235   7.0843   7.0978   7.2560   7.2756
     7.3319   7.3378   7.4430   7.4595   7.5778   7.5897   7.7191   7.7647
     7.8327   7.8463   7.8738   7.9103   8.1047   8.1159   8.1523   8.1649
     8.2494   8.2610   8.3950   8.4080   8.4500   8.4560   8.5332   8.5474
     8.5613   8.5643   8.5932   8.5961   8.6356   8.6427   8.6643   8.6651
     8.6974   8.7014   8.7083   8.7152   8.7305   8.7332   8.7409   8.7426
     8.7536   8.7680   8.7799   8.7897   8.8001   8.8023   8.8331   8.8339
     8.8694   8.8710   8.9182   8.9278   8.9716   9.0235   9.0643   9.0655
     9.0686   9.0871   9.5672   9.6140   9.8112   9.8148  10.0385  10.0697
    10.1860  10.2228  10.2953  10.3264  10.4566  10.5000  10.8248  10.8606
    11.3896  11.4011  12.0455  12.0814  12.7346  12.7490  13.2999  13.3904
    13.4646  13.4745  13.5342  13.5621  13.6617  13.7687  13.9221  13.9623
    14.1625  14.3270  14.5183  14.5749  14.7941  14.9325  15.1917  15.2999
    15.5533  15.5722  15.8509  15.9153

          k =-0.5000-0.8660-0.0000 ( 23552 PWs)   bands (ev):

     3.9298   3.9848   4.0613   4.0633   4.1862   4.2065   4.2217   4.2481
     4.2893   4.2930   4.3806   4.3963   4.4340   4.4398   4.4872   4.4958
[...]
     5.6147   5.6278   5.7156   5.7753   5.8012   5.8058   5.8888   5.9030
     5.9148   5.9279   5.9603   6.0041   6.0117   6.0467   6.0956   6.1100
     6.1180   6.1419   6.1778   6.2372   6.2807   6.3297   6.3583   6.3973
     6.4322   6.4473   6.4757   6.5038   6.5208   6.5622   6.5797   6.6234
     6.6319   6.6564   6.6877   6.7018   6.7138   6.7314   6.7716   6.7829
     6.8241   6.8265   6.8553   6.8751   6.9065   6.9260   6.9591   6.9826
     6.9860   6.9910   7.0151   7.0561   7.0876   7.1204   7.1421   7.1790
     7.1790   7.2339   7.2596   7.2912   7.2969   7.3381   7.3635   7.3684
     7.4481   7.4498   7.5016   7.5531   7.5659   7.5912   7.6357   7.6746
     7.6881   7.7385   7.7585   7.7683   7.8126   7.8303   7.8865   7.9028
     7.9426   7.9660   7.9793   8.0402   8.0933   8.1651   8.1657   8.2026
     8.2565   8.3845   8.3922   8.4637   8.6223   8.6275   8.6805   8.6868
     8.7620   8.7677   8.7973   8.8226   8.8328   8.8747   8.9060   8.9710
     8.9934   9.0077   9.4257   9.8091   9.8491   9.9048   9.9322  10.0000
    10.1760  10.4676  10.6252  10.8926  11.3507  11.4288  12.0408  12.2885
    12.7015  12.9216  13.3708  14.0451  14.3660  14.6411  15.3979  15.4866
    15.6768  15.8461  15.8530  16.0085  16.2080  16.5988  17.0192  17.0322
    17.2188  17.2679  17.5405  17.6135

          k =-0.2500 0.4330-0.0000 ( 23431 PWs)   bands (ev):

     3.0930   3.2270   3.3930   3.6384   3.9021   4.1933   4.4623   4.6430
     4.6662   4.7329   4.7414   4.8195   4.8281   4.8665   4.8995   4.9214
     4.9737   5.0216   5.0644   5.1047   5.1337   5.1562   5.2004   5.2343
     5.2485   5.2509   5.3149   5.4612   5.4704   5.4741   5.5244   5.5570
     5.5859   5.6301   5.6616   5.7106   5.7420   5.7861   5.8182   5.8625
     5.9061   5.9146   5.9240   5.9291   5.9875   5.9915   6.0237   6.0255
     6.0427   6.1084   6.1405   6.1552   6.1861   6.2214   6.2320   6.2664
     6.3730   6.3896   6.4252   6.4609   6.5114   6.5451   6.5773   6.5861
     6.6188   6.6287   6.6639   6.6808   6.7003   6.7080   6.7279   6.7555
     6.8159   6.8787   6.8972   6.9664   6.9842   6.9852   7.0274   7.0321
     7.0537   7.1402   7.1425   7.1824   7.1893   7.2332   7.2557   7.2786
     7.2952   7.3375   7.3397   7.3843   7.4091   7.4138   7.4783   7.4834
     7.5550   7.5612   7.5973   7.6154   7.6289   7.6526   7.6537   7.6942
     7.6996   7.7434   7.7951   7.8039   7.8478   7.8589   7.8883   7.9203
     7.9725   8.0255   8.0271   8.0567   8.0979   8.1582   8.1902   8.2374
     8.3856   8.4085   8.4322   8.5580   8.6437   8.7268   8.7777   8.8054
     8.8057   8.8220   8.8545   8.8692   8.8849   8.8910   8.9131   9.0280
     9.0445   9.2922   9.8671  10.4072  10.4480  10.4531  10.5456  10.7017
    10.9467  11.2002  11.2872  11.7274  11.9421  12.2486  12.8221  12.8820
    13.4363  13.9420  14.0167  14.6057  14.8814  14.9253  15.6209  15.7519
    15.8573  15.8922  15.9580  16.1543  16.2599  16.4535  16.4748  16.6190
    16.9930  17.1088  17.4353  17.4819

          k =-0.2500 0.5774-0.0000 ( 23466 PWs)   bands (ev):

     3.6607   3.7985   3.9234   4.1177   4.2709   4.4129   4.5369   4.6011
     4.6319   4.6454   4.7208   4.7329   4.7569   4.8447   4.8680   4.8752
     4.9087   4.9972   5.0107   5.0424   5.0586   5.1205   5.1358   5.1826
     5.2030   5.2039   5.2298   5.2625   5.2845   5.3480   5.3758   5.4030
     5.4347   5.4840   5.5336   5.6062   5.6606   5.6860   5.7618   5.8221
     5.8370   5.8430   5.9284   5.9446   5.9467   5.9869   6.0186   6.0844
     6.1311   6.1886   6.2656   6.2701   6.3032   6.3945   6.4037   6.4479
     6.4953   6.5078   6.5453   6.5769   6.6122   6.6294   6.6347   6.6449
     6.6727   6.7095   6.7399   6.7656   6.8187   6.8435   6.8662   6.9122
     6.9277   6.9491   6.9830   7.0087   7.0905   7.1143   7.1373   7.1944
     7.2400   7.2874   7.3333   7.3352   7.4678   7.4681   7.5128   7.5220
     7.5290   7.5404   7.5689   7.6231   7.6564   7.7254   7.7956   7.8312
     7.8440   7.8864   7.9096   7.9275   7.9548   7.9969   8.0017   8.0589
     8.0662   8.0702   8.0733   8.1127   8.1134   8.1368   8.1907   8.2084
     8.2554   8.3085   8.3321   8.3562   8.4162   8.4365   8.4578   8.4839
     8.5054   8.5391   8.5755   8.6490   8.6955   8.7006   8.7463   8.7500
     8.7959   8.8258   8.8352   8.8707   8.8746   8.8848   8.9872   9.0097
     9.2236   9.7982  10.4587  11.0597  11.1134  11.1320  11.2723  11.4711
    11.7577  11.8891  12.1247  12.5772  12.6236  13.0984  13.4863  13.6374
    13.7153  13.8664  14.0326  14.3331  14.4129  14.7172  14.9774  15.0178
    15.1120  15.4799  15.6626  15.6880  15.8789  16.2246  16.4165  16.5020
    16.6951  17.2229  17.2535  17.4936

          k =-0.2500 0.7217-0.0000 ( 23545 PWs)   bands (ev):

     4.0022   4.1419   4.2759   4.4373   4.4615   4.4662   4.4982   4.5178
     4.5246   4.6081   4.6182   4.6262   4.6823   4.7164   4.7368   4.7564
     4.8246   4.8610   4.8685   4.8777   4.9243   4.9402   4.9435   5.0086
     5.0213   5.0930   5.0983   5.1257   5.1516   5.2301   5.2434   5.2466
     5.3208   5.3332   5.4070   5.4777   5.5401   5.6003   5.7060   5.7257
     5.7828   5.8501   5.8522   5.9464   5.9966   6.0261   6.0321   6.1603
     6.1674   6.2778   6.2830   6.3042   6.3620   6.4057   6.4385   6.5065
     6.5302   6.5343   6.5779   6.6066   6.6199   6.6718   6.7025   6.7065
     6.7720   6.8018   6.8510   6.8537   6.9424   6.9833   7.0169   7.0210
     7.1012   7.1098   7.1668   7.2309   7.2514   7.2775   7.3287   7.3928
     7.4193   7.4558   7.5394   7.5773   7.6449   7.6649   7.7409   7.7948
     7.8322   7.8970   7.8985   7.9471   7.9472   7.9489   8.0381   8.0646
     8.1167   8.1712   8.1778   8.2095   8.2195   8.2638   8.2710   8.2955
     8.3218   8.3539   8.4402   8.4749   8.4945   8.5172   8.5409   8.5510
     8.5754   8.5847   8.5990   8.6427   8.6639   8.6699   8.6818   8.7329
     8.7666   8.7787   8.7904   8.8069   8.8716   8.9057   8.9236   8.9355
     8.9400   8.9537   9.1245   9.2329   9.3251   9.3776   9.4531   9.6784
    10.1162  10.7037  11.3919  11.9440  11.9919  12.0260  12.0578  12.0773
    12.1253  12.2134  12.3331  12.5027  12.6747  12.8417  12.9186  13.1026
    13.3658  13.5222  13.5316  13.7735  14.0398  14.2856  14.4757  14.7307
    15.0552  15.2871  15.3833  15.4350  15.5477  15.5822  15.7157  15.9576
    16.1234  16.1591  16.4027  16.6677

          k =-0.3750 0.1443-0.0000 ( 23495 PWs)   bands (ev):

     2.6164   2.7487   2.9529   3.2283   3.5548   3.8043   3.9011   3.9162
     4.0400   4.1993   4.2746   4.3472   4.4755   4.5610   4.6110   4.7028
     4.7404   4.7451   4.7742   4.8426   4.9469   4.9591   4.9607   4.9863
     5.0509   5.1113   5.1873   5.2729   5.3440   5.4144   5.5015   5.5410
     5.6320   5.6605   5.6986   5.7781   5.7796   5.8114   5.8258   5.8497
     5.8803   5.9192   5.9496   6.0029   6.0047   6.0326   6.0839   6.1085
     6.1553   6.2124   6.2139   6.2673   6.2837   6.3596   6.3766   6.4202
     6.4247   6.4466   6.4719   6.5142   6.5246   6.5374   6.5603   6.5919
     6.6312   6.6342   6.6582   6.6914   6.6966   6.7015   6.7197   6.7476
     6.7905   6.7998   6.8028   6.8563   6.9039   6.9106   6.9409   6.9849
     7.0440   7.0550   7.0669   7.0796   7.1188   7.1606   7.1679   7.2174
     7.2363   7.2884   7.2989   7.3188   7.3566   7.3674   7.3873   7.4001
     7.4361   7.4683   7.4787   7.4859   7.5638   7.5711   7.6057   7.6423
     7.6837   7.7223   7.7233   7.7678   7.7753   7.8252   7.8751   7.9089
     7.9171   7.9808   8.0224   8.0259   8.0563   8.1098   8.1824   8.1966
     8.2181   8.2598   8.2641   8.2983   8.3827   8.4015   8.4366   8.4706
     8.4939   8.5204   8.5473   8.5770   8.5961   8.6217   8.6643   8.6918
     8.7057   8.7067   8.7459   8.7596   8.7951   8.8120   8.9428   9.0897
     9.4121   9.5301   9.9823  10.0595  10.6176  10.7364  11.2990  11.4908
    12.0264  12.4073  12.7910  13.1229  13.5703  14.4327  15.1924  15.4762
    15.7643  15.9316  16.6170  17.1216  17.2778  17.3396  17.4410  17.6426
    17.8678  18.0336  18.2997  18.7489

          k =-0.3750 0.2887-0.0000 ( 23497 PWs)   bands (ev):

     2.9918   3.1227   3.3035   3.5608   3.8547   4.1865   4.1897   4.2656
     4.3523   4.4517   4.5180   4.5444   4.6571   4.7841   4.7979   4.8874
     4.9609   4.9683   5.0279   5.1069   5.1867   5.1886   5.1912   5.2238
     5.2849   5.3258   5.3661   5.4217   5.4256   5.5050   5.5197   5.5910
     5.6370   5.6431   5.6625   5.6877   5.6944   5.7360   5.7369   5.7444
     5.7931   5.8113   5.8493   5.8702   5.8872   5.9076   5.9445   5.9696
     5.9751   5.9968   6.0452   6.1027   6.1049   6.1931   6.2389   6.2610
     6.2806   6.3207   6.3427   6.3713   6.3998   6.4112   6.4547   6.4548
     6.4905   6.5219   6.5504   6.5559   6.5992   6.6161   6.6446   6.6995
     6.7121   6.7322   6.7380   6.7408   6.8103   6.8753   6.8823   6.9409
     6.9622   6.9985   7.0123   7.1189   7.1334   7.2427   7.2525   7.2775
     7.2933   7.3211   7.3495   7.3758   7.3768   7.4112   7.4326   7.4528
     7.5003   7.5201   7.5568   7.5792   7.6039   7.6275   7.6480   7.6496
     7.7222   7.7227   7.7436   7.7913   7.8486   7.8833   7.9210   7.9597
     7.9682   8.0649   8.0897   8.1257   8.1370   8.1569   8.1843   8.2319
     8.2651   8.3134   8.3914   8.4931   8.5536   8.5573   8.5956   8.6040
     8.6238   8.6703   8.6878   8.6969   8.7146   8.7177   8.8315   8.8488
     8.9130   9.0583   9.0936   9.1177   9.1611   9.2685   9.3129   9.4954
     9.8099   9.9177  10.3721  10.4564  11.0652  11.0934  11.7302  11.8486
    12.4375  12.7841  13.1889  13.7652  13.8959  14.7560  15.7672  15.7965
    16.1812  16.2790  16.9518  17.3914  17.4264  17.5079  17.5998  17.7568
    18.0262  18.1215  18.3313  18.6688

          k =-0.3750 0.4330-0.0000 ( 23475 PWs)   bands (ev):

     3.4674   3.5994   3.7362   3.9492   4.1562   4.3813   4.4836   4.5226
     4.5755   4.5845   4.6424   4.7111   4.7177   4.7332   4.8147   4.8234
     4.9465   4.9532   5.0469   5.0718   5.1105   5.1664   5.1730   5.2220
     5.2385   5.2630   5.3040   5.3089   5.3254   5.3619   5.4169   5.4723
     5.5131   5.5890   5.5941   5.6181   5.7092   5.7148   5.7183   5.8218
     5.8339   5.8886   5.9464   5.9563   5.9749   6.0123   6.0578   6.0797
     6.1076   6.1331   6.1796   6.2075   6.2348   6.2428   6.2630   6.2998
     6.3092   6.3390   6.3781   6.3854   6.4217   6.4301   6.4714   6.5092
     6.5944   6.6141   6.6363   6.6420   6.6884   6.7001   6.7215   6.7722
     6.8508   6.8781   6.8802   6.8834   6.9200   6.9274   6.9757   7.0014
     7.0068   7.0451   7.1219   7.1299   7.1932   7.2399   7.2806   7.3656
     7.4039   7.4207   7.4721   7.5062   7.5162   7.5299   7.5609   7.6109
     7.6473   7.6632   7.6692   7.7012   7.7058   7.7670   7.7930   7.8570
     7.9141   7.9167   7.9276   7.9576   7.9859   8.0115   8.0633   8.0923
     8.1323   8.1809   8.2096   8.2498   8.2908   8.3335   8.3390   8.3702
     8.4045   8.4258   8.4868   8.6010   8.6530   8.6784   8.6911   8.7594
     8.7746   8.7808   8.7973   8.8322   8.8357   8.8421   8.9502   8.9676
     9.0907   9.5637   9.5915   9.5965   9.6209   9.7004   9.8579  10.1313
    10.1996  10.5490  10.8241  11.0797  11.5866  11.6840  12.3321  12.3492
    13.0318  13.2341  13.7591  14.3672  14.5915  15.3299  16.2303  16.2945
    16.4320  16.6314  16.7127  16.8967  16.9673  17.0833  17.3618  17.5351
    17.7072  17.7457  17.9752  18.1444

          k =-0.3750 0.5774-0.0000 ( 23521 PWs)   bands (ev):

     3.7900   3.9330   4.0615   4.2559   4.3406   4.3707   4.4091   4.4155
     4.4742   4.4922   4.5486   4.5818   4.6376   4.6575   4.7219   4.7753
     4.7827   4.8017   4.8654   4.8718   4.8933   4.9367   4.9460   4.9767
     5.0037   5.0309   5.0464   5.1030   5.1489   5.1783   5.1934   5.2274
     5.3116   5.3784   5.3829   5.4303   5.5519   5.5883   5.6627   5.8027
     5.8058   5.9454   5.9484   6.0499   6.1073   6.1169   6.1619   6.2135
     6.2334   6.3106   6.3115   6.3716   6.3918   6.4530   6.4816   6.5207
     6.5357   6.5482   6.5722   6.5765   6.6225   6.6308   6.6879   6.7128
     6.7495   6.7625   6.7964   6.8778   6.8849   6.8984   6.9682   7.0060
     7.0124   7.0934   7.1073   7.1118   7.1497   7.2117   7.2568   7.3202
     7.3860   7.4390   7.4487   7.5370   7.5520   7.6380   7.6708   7.7324
     7.7454   7.7609   7.8191   7.8594   7.9323   7.9456   7.9882   8.0227
     8.0370   8.0763   8.0891   8.1160   8.1571   8.1772   8.2019   8.2116
     8.2424   8.2497   8.2539   8.2726   8.3032   8.3222   8.3295   8.3350
     8.3605   8.3708   8.4206   8.4351   8.4820   8.4903   8.5379   8.5679
     8.5754   8.6354   8.6437   8.6848   8.7094   8.7618   8.7765   8.8074
     8.8461   8.8492   8.8668   8.9039   8.9274   8.9344   9.0209   9.0403
     9.3947  10.0374  10.0737  10.1327  10.2253  10.3308  10.5236  10.7508
    10.8198  11.2476  11.4419  11.7899  12.2313  12.4119  12.9551  13.0999
    13.7346  13.7860  14.2516  14.4943  14.6594  14.8135  14.9811  15.2211
    15.2546  15.5462  15.7879  15.8924  16.2191  16.3876  16.5339  16.6972
    16.7081  16.9573  17.2116  17.2182

          k =-0.3750 0.7217-0.0000 ( 23544 PWs)   bands (ev):

     3.9159   4.0556   4.1735   4.1962   4.2488   4.3183   4.3320   4.3724
     4.4105   4.4260   4.4612   4.4774   4.5483   4.5560   4.5754   4.6182
     4.6304   4.6417   4.6781   4.6993   4.7039   4.7289   4.7975   4.8104
     4.8265   4.8398   4.8667   4.9503   4.9763   4.9836   5.0586   5.0848
     5.1615   5.2028   5.2331   5.2581   5.4851   5.4901   5.6843   5.7474
     5.8519   5.9155   5.9554   6.0796   6.0967   6.1269   6.2047   6.2104
     6.2471   6.3592   6.3619   6.3675   6.4124   6.4378   6.4662   6.4724
     6.5152   6.5179   6.5667   6.6492   6.6867   6.7382   6.7525   6.7850
     6.8410   6.8499   6.9264   7.0033   7.0602   7.1119   7.1589   7.2181
     7.2544   7.2867   7.4054   7.4299   7.4913   7.5563   7.6104   7.6172
     7.7169   7.8094   7.8188   7.8492   7.8982   7.9779   8.0261   8.0840
     8.1188   8.2279   8.2308   8.3088   8.3144   8.3585   8.3703   8.3960
     8.4788   8.4839   8.5015   8.5281   8.5482   8.5504   8.5677   8.5688
     8.5898   8.5980   8.6136   8.6220   8.6419   8.6635   8.6639   8.6976
     8.6989   8.7105   8.7250   8.7276   8.7522   8.7581   8.7666   8.7944
     8.8305   8.8443   8.8626   8.8861   8.9106   8.9475   8.9741   8.9903
     9.0179   9.0365   9.0483   9.1701   9.3796   9.5198   9.5739   9.7350
    10.1937  10.7703  10.8393  10.8724  11.0628  11.1850  11.3657  11.5831
    11.5898  11.8878  12.2416  12.3142  12.5188  12.7112  12.8343  13.0177
    13.0801  13.1043  13.6873  13.7457  13.8677  14.2798  14.2813  14.4027
    14.4442  14.5286  14.7108  14.8714  14.8727  15.1323  15.2386  15.5656
    15.6938  15.7858  16.0417  16.2724

     the Fermi energy is    10.7330 ev

!    total energy              =  -20153.52008136 Ry

     total all-electron energy =   -988623.518449 Ry
     estimated scf accuracy    <       0.00000055 Ry
     smearing contrib. (-TS)   =      -0.02227586 Ry
     internal energy E=F+TS    =  -20153.49780550 Ry

     The total energy is F=E-TS. E is the sum of the following terms:
     one-electron contribution =   -8804.10870588 Ry
     hartree contribution      =    4727.53420536 Ry
     xc contribution           =    -833.59592725 Ry
     ewald contribution        =    2762.00844364 Ry
     one-center paw contrib.   =  -18005.33582136 Ry

     convergence has been achieved in  28 iterations

     negative rho (up, down):  2.296E-03 0.000E+00

     Forces acting on atoms (cartesian axes, Ry/au):

     atom    1 type  1   force =    -0.00005191   -0.00003927   -0.00284300
     atom    2 type  1   force =     0.00004295    0.00006714    0.00251804
     atom    3 type  1   force =     0.00005796    0.00002597    0.00045694
     atom    4 type  1   force =     0.00429158    0.00802095   -0.00953216
     atom    5 type  1   force =    -0.00004715    0.00000697   -0.00017275
     atom    6 type  1   force =     0.00010853   -0.00000882    0.00517268
     atom    7 type  1   force =    -0.00001832    0.00001868    0.00167292
     atom    8 type  1   force =    -0.00426999   -0.00798324    0.00945827
     atom    9 type  1   force =     0.00000581    0.00001036   -0.00028474
     atom   10 type  1   force =     0.00001125   -0.00000507   -0.00098452
     atom   11 type  1   force =    -0.00010940    0.00004861   -0.00488675
     atom   12 type  1   force =    -0.00006357    0.00078419    0.00040541
     atom   13 type  1   force =     0.00002775   -0.00075501   -0.00098986
     atom   14 type  1   force =     0.00010797   -0.00000400    0.00516955
     atom   15 type  1   force =    -0.00001206   -0.00004535    0.00166879
     atom   16 type  1   force =    -0.00426955   -0.00804728    0.00945664
     atom   17 type  1   force =     0.00001133    0.00001691   -0.00027963
     atom   18 type  1   force =     0.00001053    0.00000635   -0.00098421
     atom   19 type  1   force =    -0.00010856   -0.00002152   -0.00488932
     atom   20 type  1   force =    -0.00006116    0.00071678    0.00040177
     atom   21 type  1   force =     0.00003784   -0.00075421   -0.00098272
     atom   22 type  1   force =    -0.00004090   -0.00004132   -0.00283771
     atom   23 type  1   force =     0.00003867   -0.00001133    0.00252265
     atom   24 type  1   force =     0.00005849   -0.00004083    0.00046386
     atom   25 type  1   force =     0.00429018    0.00802557   -0.00952680
     atom   26 type  1   force =    -0.00004825    0.00000875   -0.00017336

     Total force =     0.028878     Total SCF correction =     0.004555
     SCF correction compared to forces is large: reduce conv_thr to get better values

     Writing all to output data dir ./pwscf.save/
 
     init_run     :     24.91s CPU     25.41s WALL (       1 calls)
     electrons    :   1940.69s CPU   1961.16s WALL (       1 calls)
     forces       :      8.48s CPU      8.55s WALL (       1 calls)

     Called by init_run:
     wfcinit      :     24.26s CPU     24.69s WALL (       1 calls)
     potinit      :      0.35s CPU      0.40s WALL (       1 calls)
     hinit0       :      0.20s CPU      0.22s WALL (       1 calls)

     Called by electrons:
     c_bands      :   1760.80s CPU   1779.29s WALL (      29 calls)
     sum_band     :    171.21s CPU    172.51s WALL (      29 calls)
     v_of_rho     :      0.63s CPU      1.02s WALL (      29 calls)
     newd         :      1.57s CPU      1.74s WALL (      29 calls)
     PAW_pot      :      6.67s CPU      6.71s WALL (      29 calls)
     mix_rho      :      0.10s CPU      0.11s WALL (      29 calls)

     Called by c_bands:
     init_us_2    :      4.59s CPU      4.64s WALL (    3000 calls)
     init_us_2:cp :      4.58s CPU      4.64s WALL (    3000 calls)
     cegterg      :   1694.32s CPU   1712.12s WALL (    1450 calls)

     Called by *egterg:
     cdiaghg      :    198.84s CPU    201.69s WALL (    9368 calls)
     h_psi        :    958.16s CPU    966.91s WALL (    9468 calls)
     s_psi        :    113.69s CPU    114.34s WALL (    9468 calls)
     g_psi        :      2.28s CPU      2.30s WALL (    7968 calls)

     Called by h_psi:
     h_psi:calbec :    141.66s CPU    142.32s WALL (    9468 calls)
     vloc_psi     :    697.22s CPU    702.62s WALL (    9468 calls)
     add_vuspsi   :    117.88s CPU    118.38s WALL (    9468 calls)

     General routines
     calbec       :    199.45s CPU    200.37s WALL (   11118 calls)
     fft          :      0.78s CPU      1.24s WALL (     331 calls)
     ffts         :      0.04s CPU      0.05s WALL (      29 calls)
     fftw         :    781.41s CPU    787.32s WALL ( 1520828 calls)
 
     Parallel routines
 
     PWSCF        :  33m 1.97s CPU  33m34.53s WALL

 
   This run was terminated on:  21:32:10  15Feb2024            

=------------------------------------------------------------------------------=
   JOB DONE.
=------------------------------------------------------------------------------=
