MPI startup(): Warning: I_MPI_PMI_LIBRARY will be ignored since the hydra process manager was found
MPI startup(): Warning: I_MPI_PMI_LIBRARY will be ignored since the hydra process manager was found
MPI startup(): Warning: I_MPI_PMI_LIBRARY will be ignored since the hydra process manager was found
MPI startup(): Warning: I_MPI_PMI_LIBRARY will be ignored since the hydra process manager was found
MPI startup(): Warning: I_MPI_PMI_LIBRARY will be ignored since the hydra process manager was found
MPI startup(): Warning: I_MPI_PMI_LIBRARY will be ignored since the hydra process manager was found
MPI startup(): Warning: I_MPI_PMI_LIBRARY will be ignored since the hydra process manager was found
MPI startup(): Warning: I_MPI_PMI_LIBRARY will be ignored since the hydra process manager was found
MPI startup(): Warning: I_MPI_PMI_LIBRARY will be ignored since the hydra process manager was found
MPI startup(): Warning: I_MPI_PMI_LIBRARY will be ignored since the hydra process manager was found

     Program PWSCF v.7.0 starts on 14Feb2024 at 17:49: 9 

     This program is part of the open-source Quantum ESPRESSO suite
     for quantum simulation of materials; please cite
         "P. Giannozzi et al., J. Phys.:Condens. Matter 21 395502 (2009);
         "P. Giannozzi et al., J. Phys.:Condens. Matter 29 465901 (2017);
         "P. Giannozzi et al., J. Chem. Phys. 152 154105 (2020);
          URL http://www.quantum-espresso.org", 
     in publications or presentations arising from this work. More details at
     http://www.quantum-espresso.org/quote

     Parallel version (MPI), running on    10 processors

     MPI processes distributed on     1 nodes
     R & G space division:  proc/nbgrp/npool/nimage =      10
     80378 MiB available memory on the printing compute node when the environment starts
 
     Reading input from GSF111R_0.2.in
Warning: card &CELL ignored
Warning: card / ignored

     Current dimensions of program PWSCF are:
     Max number of different atomic species (ntypx) = 10
     Max number of k-points (npk) =  40000
     Max angular momentum in pseudopotentials (lmaxx) =  4
     file Au.pbe-n-kjpaw_psl.1.0.0.UPF: wavefunction(s)  6S 5D renormalized
     Found identity + ( -0.5000  0.5000  0.0000) symmetry
     This is a supercell, fractional translations are disabled

     Subspace diagonalization in iterative solution of the eigenvalue problem:
     one sub-group per band group will be used
     scalapack distributed-memory algorithm (size of sub-group:  3*  3 procs)

 
     Parallelization info
     --------------------
     sticks:   dense  smooth     PW     G-vecs:    dense   smooth      PW
     Min          85      85     25                18799    18799    3045
     Max          87      87     26                18816    18816    3065
     Sum         859     859    251               188065   188065   30575
 
     Using Slab Decomposition
 


     bravais-lattice index     =            0
     lattice parameter (alat)  =       9.6360  a.u.
     unit-cell volume          =    3935.2145 (a.u.)^3
     number of atoms/cell      =           26
     number of atomic types    =            1
     number of electrons       =       286.00
     number of Kohn-Sham states=          172
     kinetic-energy cutoff     =      50.0000  Ry
     charge density cutoff     =     200.0000  Ry
     scf convergence threshold =      1.0E-06
     mixing beta               =       0.7000
     number of iterations used =            8  plain     mixing
     energy convergence thresh.=      1.0E-04
     force convergence thresh. =      1.0E-03
     Exchange-correlation= SLA  PW   PBX  PBC
                           (   1   4   3   4   0   0   0)
     nstep                     =           50


     celldm(1)=   9.635999  celldm(2)=   0.000000  celldm(3)=   0.000000
     celldm(4)=   0.000000  celldm(5)=   0.000000  celldm(6)=   0.000000

     crystal axes: (cart. coord. in units of alat)
               a(1) = (   1.000000   0.000000   0.000000 )  
               a(2) = (   0.000000   0.577350   0.000000 )  
               a(3) = (  -0.000005   0.000000   7.617966 )  

     reciprocal axes: (cart. coord. in units 2 pi/alat)
               b(1) = (  1.000000  0.000000  0.000001 )  
               b(2) = (  0.000000  1.732052  0.000000 )  
               b(3) = (  0.000000  0.000000  0.131269 )  


     PseudoPot. # 1 for Au read from file:
     ./Au.pbe-n-kjpaw_psl.1.0.0.UPF
     MD5 check sum: 4db85c736373c707a97ce4c36c2a9d23
     Pseudo is Projector augmented-wave + core cor, Zval = 11.0
     Generated using &quot;atomic&quot; code by A. Dal Corso  v.6.3
     Shape of augmentation charge: PSQ
     Using radial grid of 1279 points,  6 beta functions with: 
                l(1) =   0
                l(2) =   0
                l(3) =   1
                l(4) =   1
                l(5) =   2
                l(6) =   2
     Q(r) pseudized with 0 coefficients 


     atomic species   valence    mass     pseudopotential
        Au            11.00   196.96657     Au( 1.00)

     No symmetry found



   Cartesian axes

     site n.     atom                  positions (alat units)
         1           Au  tau(   1) = (   0.0000000   0.0000000   0.0000000  )
         2           Au  tau(   2) = (   0.9999954   0.1154702   5.6568550  )
         3           Au  tau(   3) = (   0.9999966   0.1154702   4.2426411  )
         4           Au  tau(   4) = (   0.9999976   0.0000000   2.8284275  )
         5           Au  tau(   5) = (   0.9999988   0.0000000   1.4142138  )
         6           Au  tau(   6) = (   0.3333329   0.0000000   0.4714045  )
         7           Au  tau(   7) = (   0.3333296   0.1154702   4.7140455  )
         8           Au  tau(   8) = (   0.3333308   0.1154702   3.2998319  )
         9           Au  tau(   9) = (   0.3333318   0.0000000   1.8856185  )
        10           Au  tau(  10) = (   0.6666659   0.0000000   0.9428093  )
        11           Au  tau(  11) = (   0.6666625   0.1154702   5.1854506  )
        12           Au  tau(  12) = (   0.6666637   0.1154702   3.7712367  )
        13           Au  tau(  13) = (   0.6666649   0.0000000   2.3570234  )
        14           Au  tau(  14) = (   0.8333330   0.2886749   0.4714045  )
        15           Au  tau(  15) = (   0.8333294   0.4041451   4.7140455  )
        16           Au  tau(  16) = (   0.8333306   0.4041451   3.2998319  )
        17           Au  tau(  17) = (   0.8333318   0.2886749   1.8856185  )
        18           Au  tau(  18) = (   0.1666658   0.2886749   0.9428093  )
        19           Au  tau(  19) = (   0.1666624   0.4041451   5.1854506  )
        20           Au  tau(  20) = (   0.1666636   0.4041451   3.7712367  )
        21           Au  tau(  21) = (   0.1666648   0.2886749   2.3570234  )
        22           Au  tau(  22) = (   0.5000001   0.2886749   0.0000000  )
        23           Au  tau(  23) = (   0.4999955   0.4041451   5.6568550  )
        24           Au  tau(  24) = (   0.4999965   0.4041451   4.2426411  )
        25           Au  tau(  25) = (   0.4999977   0.2886749   2.8284275  )
        26           Au  tau(  26) = (   0.4999989   0.2886749   1.4142138  )

     number of k points=    50  Gaussian smearing, width (Ry)=  0.0020
                       cart. coord. in units 2pi/alat
        k(    1) = (   0.0000000   0.0000000   0.0000000), wk =   0.0208333
        k(    2) = (   0.0000000   0.1443376   0.0000000), wk =   0.0416667
        k(    3) = (   0.0000000   0.2886753   0.0000000), wk =   0.0416667
        k(    4) = (   0.0000000   0.4330129   0.0000000), wk =   0.0416667
        k(    5) = (   0.0000000   0.5773506   0.0000000), wk =   0.0416667
        k(    6) = (   0.0000000   0.7216882   0.0000000), wk =   0.0416667
        k(    7) = (   0.0000000  -0.8660259   0.0000000), wk =   0.0208333
        k(    8) = (   0.1250000   0.0000000   0.0000001), wk =   0.0416667
        k(    9) = (   0.1250000   0.1443376   0.0000001), wk =   0.0416667
        k(   10) = (   0.1250000   0.2886753   0.0000001), wk =   0.0416667
        k(   11) = (   0.1250000   0.4330129   0.0000001), wk =   0.0416667
        k(   12) = (   0.1250000   0.5773506   0.0000001), wk =   0.0416667
        k(   13) = (   0.1250000   0.7216882   0.0000001), wk =   0.0416667
        k(   14) = (   0.1250000  -0.8660259   0.0000001), wk =   0.0416667
        k(   15) = (   0.1250000  -0.7216882   0.0000001), wk =   0.0416667
        k(   16) = (   0.1250000  -0.5773506   0.0000001), wk =   0.0416667
        k(   17) = (   0.1250000  -0.4330129   0.0000001), wk =   0.0416667
        k(   18) = (   0.1250000  -0.2886753   0.0000001), wk =   0.0416667
        k(   19) = (   0.1250000  -0.1443376   0.0000001), wk =   0.0416667
        k(   20) = (   0.2500000   0.0000000   0.0000002), wk =   0.0416667
        k(   21) = (   0.2500000   0.1443376   0.0000002), wk =   0.0416667
        k(   22) = (   0.2500000   0.2886753   0.0000002), wk =   0.0416667
        k(   23) = (   0.2500000   0.4330129   0.0000002), wk =   0.0416667
        k(   24) = (   0.2500000   0.5773506   0.0000002), wk =   0.0416667
        k(   25) = (   0.2500000   0.7216882   0.0000002), wk =   0.0416667
        k(   26) = (   0.2500000  -0.8660259   0.0000002), wk =   0.0416667
        k(   27) = (   0.2500000  -0.7216882   0.0000002), wk =   0.0416667
        k(   28) = (   0.2500000  -0.5773506   0.0000002), wk =   0.0416667
        k(   29) = (   0.2500000  -0.4330129   0.0000002), wk =   0.0416667
        k(   30) = (   0.2500000  -0.2886753   0.0000002), wk =   0.0416667
        k(   31) = (   0.2500000  -0.1443376   0.0000002), wk =   0.0416667
        k(   32) = (   0.3750000   0.0000000   0.0000002), wk =   0.0416667
        k(   33) = (   0.3750000   0.1443376   0.0000002), wk =   0.0416667
        k(   34) = (   0.3750000   0.2886753   0.0000002), wk =   0.0416667
        k(   35) = (   0.3750000   0.4330129   0.0000002), wk =   0.0416667
        k(   36) = (   0.3750000   0.5773506   0.0000002), wk =   0.0416667
        k(   37) = (   0.3750000   0.7216882   0.0000002), wk =   0.0416667
        k(   38) = (   0.3750000  -0.8660259   0.0000002), wk =   0.0416667
        k(   39) = (   0.3750000  -0.7216882   0.0000002), wk =   0.0416667
        k(   40) = (   0.3750000  -0.5773506   0.0000002), wk =   0.0416667
        k(   41) = (   0.3750000  -0.4330129   0.0000002), wk =   0.0416667
        k(   42) = (   0.3750000  -0.2886753   0.0000002), wk =   0.0416667
        k(   43) = (   0.3750000  -0.1443376   0.0000002), wk =   0.0416667
        k(   44) = (  -0.5000000   0.0000000  -0.0000003), wk =   0.0208333
        k(   45) = (  -0.5000000   0.1443376  -0.0000003), wk =   0.0416667
        k(   46) = (  -0.5000000   0.2886753  -0.0000003), wk =   0.0416667
        k(   47) = (  -0.5000000   0.4330129  -0.0000003), wk =   0.0416667
        k(   48) = (  -0.5000000   0.5773506  -0.0000003), wk =   0.0416667
        k(   49) = (  -0.5000000   0.7216882  -0.0000003), wk =   0.0416667
        k(   50) = (  -0.5000000  -0.8660259  -0.0000003), wk =   0.0208333

     Dense  grid:   188065 G-vectors     FFT dimensions: (  45,  25, 360)

     Estimated max dynamical RAM per process >     418.32 MB

     Estimated total dynamical RAM >       4.09 GB

     Initial potential from superposition of free atoms

     starting charge     285.9971, renormalised to     286.0000

     negative rho (up, down):  2.509E-03 0.000E+00
     Starting wfcs are  234 randomized atomic wfcs
     Checking if some PAW data can be deallocated... 

     total cpu time spent up to now is       24.0 secs

     Self-consistent Calculation

     iteration #  1     ecut=    50.00 Ry     beta= 0.70
     Davidson diagonalization with overlap
     ethr =  1.00E-02,  avg # of iterations =  5.0

     Threshold (ethr) on eigenvalues was too large:
     Diagonalizing with lowered threshold

     Davidson diagonalization with overlap
     ethr =  3.97E-04,  avg # of iterations =  4.4

     negative rho (up, down):  1.755E-03 0.000E+00

     total cpu time spent up to now is      154.4 secs

     total energy              =  -20152.82023327 Ry
     estimated scf accuracy    <       1.44829511 Ry

     iteration #  2     ecut=    50.00 Ry     beta= 0.70
     Davidson diagonalization with overlap
     c_bands:  1 eigenvalues not converged
     c_bands:  1 eigenvalues not converged
     c_bands:  2 eigenvalues not converged
     ethr =  5.06E-04,  avg # of iterations = 16.3

     negative rho (up, down):  1.756E-03 0.000E+00

     total cpu time spent up to now is      290.9 secs

     total energy              =  -20133.79491909 Ry
     estimated scf accuracy    <    2608.25088376 Ry

     iteration #  3     ecut=    50.00 Ry     beta= 0.70
     Davidson diagonalization with overlap
     ethr =  5.06E-04,  avg # of iterations = 11.6

     negative rho (up, down):  1.977E-03 0.000E+00

     total cpu time spent up to now is      396.7 secs

     total energy              =  -20152.51517234 Ry
     estimated scf accuracy    <       3.95486293 Ry

     iteration #  4     ecut=    50.00 Ry     beta= 0.70
     Davidson diagonalization with overlap
     ethr =  5.06E-04,  avg # of iterations = 10.6

     negative rho (up, down):  2.013E-03 0.000E+00

     total cpu time spent up to now is      489.7 secs

     total energy              =  -20148.96923157 Ry
     estimated scf accuracy    <     198.80847536 Ry

     iteration #  5     ecut=    50.00 Ry     beta= 0.70
     Davidson diagonalization with overlap
     ethr =  5.06E-04,  avg # of iterations = 12.4

     negative rho (up, down):  1.850E-03 0.000E+00

     total cpu time spent up to now is      600.9 secs

     total energy              =  -20141.38919274 Ry
     estimated scf accuracy    <    2034.34256877 Ry

     iteration #  6     ecut=    50.00 Ry     beta= 0.70
     Davidson diagonalization with overlap
     ethr =  5.06E-04,  avg # of iterations = 10.5

     negative rho (up, down):  1.790E-03 0.000E+00

     total cpu time spent up to now is      687.2 secs

     total energy              =  -20153.36544080 Ry
     estimated scf accuracy    <       1.68726843 Ry

     iteration #  7     ecut=    50.00 Ry     beta= 0.70
     Davidson diagonalization with overlap
     ethr =  5.06E-04,  avg # of iterations =  2.1

     negative rho (up, down):  1.844E-03 0.000E+00

     total cpu time spent up to now is      739.3 secs

     total energy              =  -20153.45769749 Ry
     estimated scf accuracy    <       1.25333533 Ry

     iteration #  8     ecut=    50.00 Ry     beta= 0.70
     Davidson diagonalization with overlap
     ethr =  4.38E-04,  avg # of iterations =  1.0

     negative rho (up, down):  1.943E-03 0.000E+00

     total cpu time spent up to now is      784.9 secs

     total energy              =  -20153.48853386 Ry
     estimated scf accuracy    <       0.31858046 Ry

     iteration #  9     ecut=    50.00 Ry     beta= 0.70
     Davidson diagonalization with overlap
     ethr =  1.11E-04,  avg # of iterations =  7.2

     negative rho (up, down):  2.029E-03 0.000E+00

     total cpu time spent up to now is      844.8 secs

     total energy              =  -20153.47552326 Ry
     estimated scf accuracy    <       0.80111188 Ry

     iteration # 10     ecut=    50.00 Ry     beta= 0.70
     Davidson diagonalization with overlap
     ethr =  1.11E-04,  avg # of iterations =  1.8

     negative rho (up, down):  2.259E-03 0.000E+00

     total cpu time spent up to now is      892.2 secs

     total energy              =  -20153.49811804 Ry
     estimated scf accuracy    <       0.11109386 Ry

     iteration # 11     ecut=    50.00 Ry     beta= 0.70
     Davidson diagonalization with overlap
     c_bands:  1 eigenvalues not converged
     ethr =  3.88E-05,  avg # of iterations =  4.3

     negative rho (up, down):  2.381E-03 0.000E+00

     total cpu time spent up to now is      945.1 secs

     total energy              =  -20153.50147872 Ry
     estimated scf accuracy    <       0.00999442 Ry

     iteration # 12     ecut=    50.00 Ry     beta= 0.70
     Davidson diagonalization with overlap
     c_bands:  1 eigenvalues not converged
     c_bands:  1 eigenvalues not converged
     c_bands:  1 eigenvalues not converged
     c_bands:  1 eigenvalues not converged
     c_bands:  1 eigenvalues not converged
     c_bands:  1 eigenvalues not converged
     ethr =  3.49E-06,  avg # of iterations = 14.6

     negative rho (up, down):  2.316E-03 0.000E+00

     total cpu time spent up to now is     1037.6 secs

     total energy              =  -20153.49706991 Ry
     estimated scf accuracy    <       0.32272345 Ry

     iteration # 13     ecut=    50.00 Ry     beta= 0.70
     Davidson diagonalization with overlap
     c_bands:  1 eigenvalues not converged
     ethr =  3.49E-06,  avg # of iterations = 10.1

     negative rho (up, down):  2.390E-03 0.000E+00

     total cpu time spent up to now is     1104.2 secs

     total energy              =  -20153.50298983 Ry
     estimated scf accuracy    <       0.01869488 Ry

     iteration # 14     ecut=    50.00 Ry     beta= 0.70
     Davidson diagonalization with overlap
     ethr =  3.49E-06,  avg # of iterations =  4.0

     negative rho (up, down):  2.363E-03 0.000E+00

     total cpu time spent up to now is     1159.9 secs

     total energy              =  -20153.50222656 Ry
     estimated scf accuracy    <       0.02654808 Ry

     iteration # 15     ecut=    50.00 Ry     beta= 0.70
     Davidson diagonalization with overlap
     ethr =  3.49E-06,  avg # of iterations = 12.2

     negative rho (up, down):  2.362E-03 0.000E+00

     total cpu time spent up to now is     1229.8 secs

     total energy              =  -20153.49771958 Ry
     estimated scf accuracy    <       0.53030563 Ry

     iteration # 16     ecut=    50.00 Ry     beta= 0.70
     Davidson diagonalization with overlap
     c_bands:  1 eigenvalues not converged
     c_bands:  1 eigenvalues not converged
     c_bands:  1 eigenvalues not converged
     ethr =  3.49E-06,  avg # of iterations = 12.7

     negative rho (up, down):  2.362E-03 0.000E+00

     total cpu time spent up to now is     1297.8 secs

     total energy              =  -20153.50373787 Ry
     estimated scf accuracy    <       0.00947019 Ry

     iteration # 17     ecut=    50.00 Ry     beta= 0.70
     Davidson diagonalization with overlap
     ethr =  3.31E-06,  avg # of iterations =  1.7

     negative rho (up, down):  2.362E-03 0.000E+00

     total cpu time spent up to now is     1346.4 secs

     total energy              =  -20153.50401606 Ry
     estimated scf accuracy    <       0.00012999 Ry

     iteration # 18     ecut=    50.00 Ry     beta= 0.70
     Davidson diagonalization with overlap
     ethr =  4.55E-08,  avg # of iterations =  4.3

     negative rho (up, down):  2.365E-03 0.000E+00

     total cpu time spent up to now is     1414.8 secs

     total energy              =  -20153.50403818 Ry
     estimated scf accuracy    <       0.00056020 Ry

     iteration # 19     ecut=    50.00 Ry     beta= 0.70
     Davidson diagonalization with overlap
     ethr =  4.55E-08,  avg # of iterations =  1.2

     negative rho (up, down):  2.367E-03 0.000E+00

     total cpu time spent up to now is     1462.1 secs

     total energy              =  -20153.50402763 Ry
     estimated scf accuracy    <       0.00016142 Ry

     iteration # 20     ecut=    50.00 Ry     beta= 0.70
     Davidson diagonalization with overlap
     ethr =  4.55E-08,  avg # of iterations =  2.0

     negative rho (up, down):  2.371E-03 0.000E+00

     total cpu time spent up to now is     1515.7 secs

     total energy              =  -20153.50396214 Ry
     estimated scf accuracy    <       0.00258036 Ry

     iteration # 21     ecut=    50.00 Ry     beta= 0.70
     Davidson diagonalization with overlap
     ethr =  4.55E-08,  avg # of iterations =  2.0

     negative rho (up, down):  2.371E-03 0.000E+00

     total cpu time spent up to now is     1566.8 secs

     total energy              =  -20153.50404915 Ry
     estimated scf accuracy    <       0.00005908 Ry

     iteration # 22     ecut=    50.00 Ry     beta= 0.70
     Davidson diagonalization with overlap
     ethr =  2.07E-08,  avg # of iterations =  2.0

     negative rho (up, down):  2.371E-03 0.000E+00

     total cpu time spent up to now is     1618.3 secs

     total energy              =  -20153.50404971 Ry
     estimated scf accuracy    <       0.00010491 Ry

     iteration # 23     ecut=    50.00 Ry     beta= 0.70
     Davidson diagonalization with overlap
     ethr =  2.07E-08,  avg # of iterations =  1.2

     negative rho (up, down):  2.371E-03 0.000E+00

     total cpu time spent up to now is     1663.6 secs

     total energy              =  -20153.50403722 Ry
     estimated scf accuracy    <       0.00128199 Ry

     iteration # 24     ecut=    50.00 Ry     beta= 0.70
     Davidson diagonalization with overlap
     ethr =  2.07E-08,  avg # of iterations =  1.1

     negative rho (up, down):  2.371E-03 0.000E+00

     total cpu time spent up to now is     1706.1 secs

     total energy              =  -20153.50405662 Ry
     estimated scf accuracy    <       0.00002391 Ry

     iteration # 25     ecut=    50.00 Ry     beta= 0.70
     Davidson diagonalization with overlap
     ethr =  8.36E-09,  avg # of iterations =  1.4

     negative rho (up, down):  2.371E-03 0.000E+00

     total cpu time spent up to now is     1750.4 secs

     total energy              =  -20153.50405639 Ry
     estimated scf accuracy    <       0.00006929 Ry

     iteration # 26     ecut=    50.00 Ry     beta= 0.70
     Davidson diagonalization with overlap
     ethr =  8.36E-09,  avg # of iterations =  1.0

     negative rho (up, down):  2.371E-03 0.000E+00

     total cpu time spent up to now is     1792.9 secs

     total energy              =  -20153.50405616 Ry
     estimated scf accuracy    <       0.00021912 Ry

     iteration # 27     ecut=    50.00 Ry     beta= 0.70
     Davidson diagonalization with overlap
     ethr =  8.36E-09,  avg # of iterations =  1.0

     negative rho (up, down):  2.372E-03 0.000E+00

     total cpu time spent up to now is     1835.6 secs

     total energy              =  -20153.50405888 Ry
     estimated scf accuracy    <       0.00001189 Ry

     iteration # 28     ecut=    50.00 Ry     beta= 0.70
     Davidson diagonalization with overlap
     ethr =  4.16E-09,  avg # of iterations =  1.0

     negative rho (up, down):  2.372E-03 0.000E+00

     total cpu time spent up to now is     1877.1 secs

     total energy              =  -20153.50405914 Ry
     estimated scf accuracy    <       0.00000782 Ry

     iteration # 29     ecut=    50.00 Ry     beta= 0.70
     Davidson diagonalization with overlap
     ethr =  2.73E-09,  avg # of iterations =  1.0

     negative rho (up, down):  2.372E-03 0.000E+00

     total cpu time spent up to now is     1919.5 secs

     End of self-consistent calculation

          k = 0.0000 0.0000 0.0000 ( 23605 PWs)   bands (ev):

     1.5104   1.6537   1.8892   2.1940   2.5552   2.9469   3.3236   3.6279
     3.8173   3.8958   3.9391   3.9529   4.0698   4.0750   4.0780   4.2097
     4.2337   4.2896   4.4123   4.4342   4.5179   4.5406   4.5708   4.6057
     4.6607   4.6962   4.7529   4.8840   4.9845   5.0056   5.1641   5.4410
     5.6604   5.7791   5.8246   5.9696   6.1426   6.1459   6.1787   6.2327
     6.2513   6.2736   6.3131   6.3198   6.3228   6.3344   6.3446   6.3565
     6.3574   6.3747   6.3957   6.4049   6.4070   6.4094   6.4255   6.4393
     6.4423   6.4596   6.4777   6.4870   6.5065   6.5306   6.5360   6.5464
     6.5634   6.5667   6.5796   6.5915   6.6344   6.6422   6.7018   6.7064
     6.7534   6.7717   6.8536   6.8719   6.8721   6.8749   6.8753   7.0399
     7.0865   7.1477   7.1787   7.3013   7.4434   7.4641   7.5688   7.5762
     7.6110   7.6856   7.6882   7.6968   7.7047   7.7230   7.7372   7.7722
     7.8033   7.8100   7.8767   7.8903   7.9038   7.9536   8.0193   8.0245
     8.0307   8.1063   8.1764   8.2036   8.3139   8.3714   8.3874   8.3901
     8.4802   8.5166   8.5346   8.5579   8.5730   8.5982   8.6982   8.7122
     8.7151   8.7243   8.7628   8.7674   8.7712   8.8000   8.8079   8.8249
     8.8357   8.8403   8.8482   8.8663   8.8881   8.9038   8.9452   8.9601
     9.0213   9.0317   9.1122   9.2213   9.2242   9.4111  10.2074  10.5099
    10.5664  10.6304  10.9358  11.2497  11.4732  11.6290  11.7318  11.7979
    11.8562  11.8868  11.9261  12.1229  12.1258  13.5457  13.7365  13.9656
    13.9949  14.2920  14.5512  14.8684  14.8906  15.0575  15.3533  15.9030
    16.2224  16.3876  16.4560  16.4730

          k = 0.0000 0.1443 0.0000 ( 23551 PWs)   bands (ev):

     1.6626   1.8051   2.0385   2.3415   2.7008   3.0918   3.4687   3.7719
     3.9558   4.0269   4.0643   4.0743   4.1925   4.2106   4.2136   4.3027
     4.3536   4.3922   4.5217   4.5596   4.6096   4.6454   4.6651   4.7414
     4.7891   4.8016   4.8675   4.9459   5.1059   5.1300   5.2201   5.4731
     5.6522   5.7798   5.7802   5.9358   6.0457   6.0944   6.1244   6.1371
     6.1518   6.1936   6.2553   6.2568   6.2756   6.2885   6.3383   6.3416
     6.3653   6.3884   6.3950   6.4214   6.4321   6.4371   6.4507   6.4680
     6.4709   6.4766   6.4966   6.5134   6.5363   6.5440   6.5596   6.5772
     6.5963   6.5982   6.6285   6.6359   6.6525   6.6627   6.6816   6.7060
     6.7217   6.7543   6.8126   6.8297   6.8434   6.8665   6.9533   6.9585
     6.9689   6.9826   7.1864   7.2290   7.3189   7.3444   7.4067   7.4820
     7.4923   7.5736   7.5811   7.6137   7.6229   7.6722   7.7130   7.7340
     7.7651   7.7713   7.7819   7.8109   7.8459   7.9204   7.9360   7.9591
     8.0374   8.0679   8.0946   8.1271   8.1454   8.2245   8.2587   8.2984
     8.3234   8.4072   8.4502   8.4729   8.4808   8.5072   8.5179   8.5793
     8.6155   8.6240   8.6307   8.6951   8.7052   8.7219   8.7357   8.7433
     8.7556   8.7744   8.7758   8.8017   8.8511   8.8723   8.8943   8.9246
     8.9314   9.0341   9.0540   9.1172   9.4092  10.0324  10.8548  10.9197
    11.0738  11.1074  11.3175  11.5279  11.6829  11.8038  11.9051  12.0005
    12.1123  12.2362  12.3747  12.5076  12.5348  13.5485  13.7762  13.9968
    14.0699  14.3849  14.6553  14.9304  15.0247  15.1673  15.5121  16.0604
    16.1403  16.4765  16.5410  16.5591

          k = 0.0000 0.2887 0.0000 ( 23495 PWs)   bands (ev):

     2.1037   2.2428   2.4670   2.7615   3.1110   3.4955   3.8700   4.1692
     4.3356   4.3860   4.4010   4.4078   4.5145   4.5245   4.5840   4.5870
     4.6131   4.6620   4.7606   4.8699   4.8971   4.9266   4.9494   5.0468
     5.0902   5.1235   5.1576   5.2349   5.3401   5.4123   5.4722   5.6056
     5.6502   5.6561   5.7579   5.8104   5.8339   5.8948   5.9207   5.9625
     5.9920   5.9976   6.0498   6.0701   6.0718   6.0919   6.1530   6.1546
     6.1866   6.2110   6.2441   6.2786   6.3780   6.4045   6.4228   6.4792
     6.5050   6.5207   6.5664   6.6051   6.6119   6.6255   6.6294   6.6594
     6.6733   6.6849   6.6899   6.6979   6.7409   6.7499   6.7707   6.8013
     6.8098   6.8119   6.8418   6.8825   6.8839   6.9071   6.9320   6.9710
     6.9736   6.9964   7.0569   7.1020   7.1341   7.1965   7.2134   7.2241
     7.2748   7.3077   7.3247   7.3786   7.4040   7.4416   7.4619   7.4726
     7.5220   7.5727   7.6167   7.6730   7.7162   7.7734   7.7800   7.8001
     7.8673   7.9175   7.9390   7.9493   7.9649   7.9678   8.0575   8.0685
     8.1294   8.1856   8.2239   8.2306   8.3161   8.3284   8.3412   8.4599
     8.5001   8.5106   8.5315   8.5582   8.5778   8.6050   8.6191   8.6588
     8.6910   8.7140   8.7212   8.7228   8.7933   8.8061   8.8592   8.9362
     8.9465   9.0293   9.1415   9.5581  10.1804  10.8744  11.7495  11.9649
    11.9862  12.0023  12.0497  12.1264  12.1494  12.2282  12.3585  12.5223
    12.7155  12.9385  13.1529  13.3817  13.5984  13.6328  14.0120  14.1404
    14.3859  14.7079  14.9706  15.1486  15.4262  15.4992  15.7176  16.0498
    16.1823  16.6772  16.7580  16.7901

          k = 0.0000 0.4330 0.0000 ( 23423 PWs)   bands (ev):

     2.7843   2.9133   3.1119   3.3795   3.6938   4.0469   4.4023   4.6969
     4.7667   4.8064   4.8433   4.8593   4.8720   4.8759   4.9297   4.9810
     5.0084   5.0763   5.0792   5.1155   5.1805   5.2422   5.3367   5.3600
     5.3746   5.4090   5.4541   5.4901   5.5015   5.5577   5.5622   5.6062
     5.6597   5.6863   5.6973   5.7477   5.7676   5.7893   5.7897   5.7978
     5.8130   5.8201   5.8374   5.8417   5.8968   5.9125   5.9191   5.9453
     5.9841   6.0567   6.0631   6.0913   6.1076   6.2016   6.2774   6.2994
     6.3139   6.3419   6.4341   6.4750   6.5128   6.5511   6.5548   6.6221
     6.6285   6.6466   6.6840   6.7114   6.7128   6.7373   6.7441   6.7561
     6.7660   6.7821   6.8253   6.8859   6.9053   6.9670   7.0185   7.0510
     7.1110   7.1376   7.1796   7.1889   7.1970   7.2790   7.2811   7.3173
     7.3579   7.3872   7.3998   7.4034   7.4069   7.4294   7.4379   7.4575
     7.5038   7.5070   7.5335   7.5537   7.5787   7.6281   7.6462   7.7086
     7.7573   7.8262   7.8380   7.8437   7.8898   7.9170   7.9792   7.9910
     8.0029   8.0615   8.0873   8.1399   8.1788   8.2900   8.3657   8.3985
     8.4214   8.4481   8.5047   8.5049   8.5388   8.5674   8.6104   8.6230
     8.6614   8.6628   8.6761   8.7309   8.7729   8.7914   8.8091   8.8482
     8.9060   9.2140   9.6857  10.2165  10.9199  11.6674  12.5115  12.5331
    12.5890  12.6453  12.6563  12.8467  12.8999  13.1226  13.2140  13.4167
    13.4971  13.5491  13.8557  14.0003  14.2719  14.3527  14.5556  14.5590
    14.8560  15.2561  15.3371  15.5877  15.6010  15.6628  15.9846  16.0617
    16.1395  16.5108  16.6980  17.0060

          k = 0.0000 0.5774 0.0000 ( 23470 PWs)   bands (ev):

     3.6089   3.7129   3.8490   4.0460   4.2635   4.5147   4.7781   4.8944
     5.0346   5.0412   5.0703   5.1108   5.1157   5.1173   5.1939   5.2359
     5.2416   5.2658   5.2873   5.3152   5.3633   5.3710   5.3726   5.3967
     5.4211   5.4337   5.4537   5.5156   5.5200   5.5259   5.5520   5.5556
     5.5749   5.5901   5.6464   5.6483   5.6761   5.6824   5.7074   5.7175
     5.7582   5.7872   5.7930   5.8000   5.8155   5.8278   5.8462   5.9689
     5.9721   5.9842   6.0492   6.0730   6.1395   6.1970   6.2565   6.2641
     6.3297   6.3407   6.3717   6.3946   6.4027   6.4069   6.4273   6.4582
     6.4600   6.4778   6.5234   6.5426   6.5792   6.5876   6.5898   6.5923
     6.6139   6.6378   6.9006   6.9756   7.0006   7.0515   7.0544   7.0561
     7.0589   7.0610   7.1759   7.2034   7.2536   7.3567   7.3841   7.4455
     7.4916   7.5217   7.5279   7.5426   7.5477   7.5522   7.5648   7.5775
     7.5949   7.5960   7.6463   7.6957   7.7410   7.8073   7.8252   7.8254
     7.8289   7.9515   8.0305   8.0673   8.1868   8.2094   8.2531   8.3453
     8.3775   8.4124   8.4247   8.4363   8.4536   8.4574   8.4900   8.4977
     8.5183   8.5239   8.5574   8.5625   8.5976   8.6033   8.6316   8.6424
     8.6487   8.6819   8.6865   8.6874   8.7092   8.7103   8.7976   8.8553
     9.2744   9.7643  10.3387  10.9541  11.6987  12.4533  12.9702  13.1381
    13.2038  13.2704  13.2840  13.2941  13.3129  13.4348  13.5332  13.6135
    13.7371  13.8170  13.8672  14.0215  14.7807  14.9149  14.9326  15.0379
    15.3136  15.3323  15.3917  15.5525  15.8668  15.8819  16.1543  16.3318
    16.4201  16.5373  16.8552  16.9104

          k = 0.0000 0.7217 0.0000 ( 23446 PWs)   bands (ev):

     4.3787   4.4643   4.4890   4.5524   4.6235   4.7240   4.7861   4.8523
     4.9025   4.9637   4.9659   4.9892   5.0522   5.0894   5.1440   5.1897
     5.1958   5.2271   5.2524   5.2546   5.2812   5.2890   5.3629   5.3660
     5.4175   5.4489   5.4931   5.5278   5.5443   5.5777   5.6003   5.6056
     5.6148   5.6369   5.6375   5.6690   5.7108   5.7203   5.7376   5.7445
     5.7726   5.7812   5.7884   5.8038   5.8208   5.8329   5.8804   5.9247
     6.0305   6.0334   6.1135   6.1365   6.1635   6.2026   6.2039   6.2448
     6.2547   6.3153   6.3178   6.3431   6.3519   6.3589   6.3743   6.4021
     6.4189   6.4229   6.4973   6.5618   6.5885   6.6215   6.6749   6.7134
     6.7161   6.7632   6.9746   6.9775   7.0108   7.0169   7.0380   7.1324
     7.1761   7.1789   7.1839   7.2348   7.3212   7.3263   7.3648   7.3809
     7.4007   7.4365   7.4778   7.5251   7.5311   7.5897   7.6209   7.6415
     7.6586   7.6651   7.7188   7.7804   7.8006   7.8376   7.8573   7.8679
     7.9537   8.0603   8.1103   8.1309   8.2469   8.3099   8.3768   8.5236
     8.5594   8.6136   8.6729   8.6817   8.6932   8.6982   8.7150   8.7290
     8.7338   8.7544   8.7811   8.7866   8.8189   8.8384   8.8931   8.8984
     8.9190   8.9264   9.3346   9.3526   9.3635   9.4339   9.5600   9.8059
    10.2102  10.7288  11.3349  11.7199  11.8052  11.9787  12.0136  12.2646
    12.6011  12.7099  13.0045  13.4236  13.4310  13.7737  13.9834  14.0334
    14.1543  14.1563  14.3178  14.4379  14.6674  14.7511  15.0011  15.1357
    15.5298  15.6306  15.9873  16.1262  16.1724  16.3871  16.4577  16.6093
    16.7093  16.8122  17.0673  17.1210

          k = 0.0000-0.8660 0.0000 ( 23420 PWs)   bands (ev):

     4.6636   4.6636   4.7709   4.7709   4.8246   4.8247   4.8298   4.8299
     4.9051   4.9051   4.9422   4.9422   5.0310   5.0311   5.0427   5.0427
     5.1142   5.1143   5.1888   5.1889   5.2516   5.2516   5.2549   5.2550
     5.4578   5.4578   5.4825   5.4825   5.5289   5.5289   5.5525   5.5526
     5.6267   5.6267   5.6735   5.6736   5.7602   5.7602   5.7664   5.7665
     5.8609   5.8610   5.9017   5.9017   5.9151   5.9152   5.9952   5.9952
     6.0038   6.0038   6.0618   6.0619   6.1113   6.1114   6.1387   6.1387
     6.2109   6.2110   6.2737   6.2738   6.3573   6.3573   6.4301   6.4301
     6.5476   6.5476   6.5776   6.5776   6.6241   6.6241   6.7398   6.7398
     6.9865   6.9866   6.9899   6.9900   7.0315   7.0316   7.0350   7.0350
     7.1824   7.1824   7.2308   7.2308   7.2988   7.2988   7.3420   7.3420
     7.3880   7.3880   7.4708   7.4708   7.5548   7.5548   7.6486   7.6486
     7.6850   7.6850   7.7623   7.7624   7.8351   7.8351   7.8684   7.8685
     7.9523   7.9523   8.0316   8.0316   8.2046   8.2046   8.4343   8.4344
     8.6304   8.6305   8.7829   8.7830   8.8222   8.8222   8.8410   8.8410
     8.8718   8.8719   8.9229   8.9230   8.9518   8.9519   9.0338   9.0339
     9.0584   9.0585  10.4271  10.4271  10.4575  10.4575  10.5660  10.5660
    10.7109  10.7109  10.9489  10.9489  11.2832  11.2832  11.7146  11.7146
    12.2254  12.2254  12.8028  12.8028  13.3985  13.3985  14.0329  14.0329
    14.5870  14.5870  15.0318  15.0318  15.7370  15.7370  15.7497  15.7497
    15.8904  15.8905  15.9510  15.9510  16.1804  16.1805  16.2547  16.2547
    16.4808  16.4809  16.6005  16.6006

          k = 0.1250 0.0000 0.0000 ( 23563 PWs)   bands (ev):

     1.6250   1.7675   2.0016   2.3050   2.6649   3.0561   3.4332   3.7367
     3.9224   3.9496   3.9947   4.0354   4.0663   4.1771   4.1802   4.2295
     4.2533   4.3276   4.4250   4.4463   4.5429   4.5736   4.6041   4.6197
     4.6663   4.7514   4.8013   4.9268   5.0128   5.0397   5.1988   5.4674
     5.6736   5.7896   5.8097   5.9853   6.0694   6.1477   6.1579   6.1742
     6.2135   6.2168   6.2640   6.2788   6.3032   6.3393   6.3406   6.3485
     6.3629   6.3749   6.4106   6.4217   6.4272   6.4278   6.4445   6.4531
     6.4640   6.4740   6.4786   6.5059   6.5336   6.5467   6.5548   6.5709
     6.5909   6.5979   6.6211   6.6310   6.6324   6.6664   6.6994   6.7157
     6.7655   6.7791   6.8292   6.8541   6.8592   6.9297   6.9349   6.9381
     7.0111   7.0677   7.1282   7.3015   7.3701   7.3702   7.4239   7.5102
     7.5604   7.5844   7.5881   7.5993   7.6407   7.6819   7.7384   7.7591
     7.8080   7.8182   7.8271   7.8742   7.8916   7.9285   7.9391   7.9471
     8.0526   8.0769   8.1034   8.1889   8.2411   8.2454   8.3064   8.3573
     8.3916   8.4239   8.4791   8.4991   8.5596   8.5882   8.5959   8.6423
     8.6664   8.6786   8.6916   8.7000   8.7233   8.7369   8.7559   8.7713
     8.7780   8.7817   8.8086   8.8264   8.8532   8.8634   8.8650   8.9330
     8.9600   9.0058   9.1240   9.1268   9.2928   9.3458   9.6688   9.9378
     9.9475  10.1355  10.2138  10.3354  10.6932  10.8276  11.0006  11.2744
    11.9586  12.6657  13.2811  13.4574  13.5341  13.6669  13.9249  13.9883
    14.2190  14.5239  14.8343  14.9145  15.1397  15.2163  15.5881  15.9046
    16.3744  16.4534  16.5332  16.9290

          k = 0.1250 0.1443 0.0000 ( 23537 PWs)   bands (ev):

     1.7766   1.9168   2.1493   2.4495   2.8075   3.1975   3.5749   3.8772
     4.0582   4.0749   4.1208   4.1653   4.1912   4.3084   4.3115   4.3452
     4.3544   4.4316   4.5467   4.5618   4.6487   4.6814   4.6974   4.7467
     4.7964   4.8373   4.9246   4.9860   5.1336   5.1661   5.2503   5.4910
     5.6838   5.7174   5.7800   5.9270   5.9934   6.0363   6.0946   6.1025
     6.1245   6.1809   6.2022   6.2241   6.2468   6.2773   6.2876   6.3056
     6.3147   6.3545   6.3909   6.4318   6.4475   6.4719   6.4747   6.4866
     6.4961   6.5080   6.5148   6.5198   6.5413   6.5738   6.5827   6.6117
     6.6125   6.6260   6.6525   6.6635   6.6895   6.6970   6.7084   6.7236
     6.7464   6.7670   6.7690   6.8118   6.8272   6.8822   6.9105   6.9283
     7.0161   7.0195   7.1422   7.1754   7.2033   7.2457   7.3494   7.4490
     7.4493   7.5110   7.5363   7.5564   7.5579   7.5703   7.5996   7.6537
     7.7092   7.7300   7.7574   7.8148   7.8403   7.8582   7.8645   7.9067
     7.9510   7.9823   8.0525   8.0731   8.1393   8.1576   8.2073   8.2131
     8.2896   8.3296   8.3564   8.3628   8.3938   8.4623   8.4853   8.5276
     8.5454   8.5473   8.5685   8.5847   8.6053   8.6341   8.6658   8.7041
     8.7202   8.7512   8.7527   8.7719   8.7878   8.7894   8.8418   8.8909
     9.0076   9.0364   9.1334   9.1497   9.6643   9.9789  10.1426  10.3090
    10.3552  10.4451  10.5715  10.7922  11.1679  11.1700  11.4159  11.6991
    12.3293  12.9973  13.4743  13.5584  13.6510  13.7397  14.0187  14.0193
    14.3276  14.6320  14.9380  14.9809  15.2480  15.3393  15.7201  15.9569
    16.4204  16.5377  16.6364  16.9799

          k = 0.1250 0.2887 0.0000 ( 23467 PWs)   bands (ev):

     2.2122   2.3459   2.5693   2.8576   3.2035   3.5832   3.9548   4.2491
     4.4101   4.4113   4.4526   4.5146   4.5214   4.5618   4.6468   4.6607
     4.6637   4.6642   4.7839   4.8662   4.9332   4.9592   4.9758   5.0783
     5.0961   5.1300   5.1925   5.2521   5.3511   5.4254   5.4822   5.5282
     5.5925   5.6835   5.7579   5.7668   5.8293   5.8567   5.8742   5.9734
     5.9849   6.0258   6.0352   6.0474   6.0663   6.0821   6.0963   6.1130
     6.1535   6.2086   6.2278   6.2671   6.3290   6.3576   6.4673   6.4850
     6.5097   6.5367   6.5821   6.5979   6.6122   6.6230   6.6456   6.6586
     6.6590   6.6802   6.7286   6.7561   6.7714   6.7912   6.7944   6.7954
     6.8378   6.8430   6.8658   6.8891   6.8920   6.9089   6.9219   6.9756
     6.9911   7.0279   7.0282   7.0498   7.0565   7.0963   7.1720   7.1892
     7.1971   7.2278   7.2529   7.3170   7.3565   7.3719   7.4066   7.4846
     7.5201   7.5204   7.5649   7.6180   7.6767   7.6934   7.7496   7.7816
     7.7876   7.7938   7.8634   7.8667   7.9392   7.9651   7.9724   8.0662
     8.1043   8.1307   8.1319   8.2158   8.2348   8.2407   8.2601   8.2766
     8.3348   8.3931   8.4241   8.4958   8.5573   8.6343   8.6526   8.6941
     8.7540   8.7563   8.7821   8.7887   8.8232   8.8289   8.8804   8.9849
     9.0193   9.1385   9.1998   9.6989  10.3211  10.7475  10.8193  10.9362
    11.0622  11.1004  11.3326  11.6604  11.9047  12.0851  12.3775  12.6005
    13.1949  13.5968  13.7172  13.8290  13.9463  14.1764  14.1867  14.4423
    14.6887  14.9749  15.2105  15.2710  15.5802  15.6339  15.9804  16.1203
    16.4332  16.8061  16.9555  16.9586

          k = 0.1250 0.4330 0.0000 ( 23435 PWs)   bands (ev):

     2.8765   2.9925   3.1910   3.4428   3.7465   4.0801   4.4124   4.6685
     4.7942   4.7961   4.8289   4.8598   4.8651   4.8894   4.9612   4.9810
     5.0059   5.0892   5.0942   5.1030   5.1317   5.1964   5.2445   5.3122
     5.3506   5.3703   5.3961   5.4345   5.4726   5.5282   5.5853   5.6061
     5.6532   5.7026   5.7031   5.7395   5.7542   5.7780   5.7993   5.8144
     5.8365   5.8415   5.8653   5.8860   5.9157   5.9389   5.9587   5.9730
     6.0201   6.0353   6.0721   6.1133   6.1951   6.2600   6.2785   6.3321
     6.3855   6.4288   6.4639   6.4884   6.5072   6.5211   6.5613   6.5876
     6.6103   6.6385   6.6538   6.6590   6.6795   6.7095   6.7306   6.7436
     6.7594   6.7965   6.8839   6.8920   6.9572   6.9677   6.9917   7.0513
     7.1382   7.1485   7.1771   7.2034   7.2071   7.2311   7.2545   7.2984
     7.3088   7.3290   7.3452   7.3604   7.3981   7.4223   7.4549   7.4856
     7.4957   7.5373   7.5393   7.5615   7.5982   7.6186   7.6411   7.6533
     7.6723   7.7340   7.7948   7.8079   7.8536   7.9234   7.9344   7.9357
     7.9544   8.0509   8.0933   8.1186   8.1610   8.1958   8.2071   8.2953
     8.3781   8.4356   8.5009   8.5034   8.6107   8.6182   8.6770   8.7207
     8.7330   8.7465   8.7509   8.7739   8.8040   8.8409   8.8955   8.9419
     9.0631   9.2274   9.7345  10.3155  11.0088  11.3753  11.4623  11.6339
    11.7867  11.8716  12.1813  12.5747  12.6683  13.0249  13.4957  13.5831
    13.7774  13.9274  14.2043  14.3025  14.5239  14.6185  14.6743  14.8471
    15.1626  15.3824  15.5130  15.6555  15.6740  15.8574  16.1305  16.1475
    16.3472  16.6538  16.7904  17.2675

          k = 0.1250 0.5774 0.0000 ( 23447 PWs)   bands (ev):

     3.6541   3.7282   3.8790   4.0459   4.2482   4.4619   4.6804   4.8643
     4.8704   4.8985   4.9542   4.9705   4.9767   5.0246   5.0651   5.0812
     5.1143   5.1177   5.1966   5.2110   5.2267   5.2376   5.2925   5.3313
     5.3931   5.4298   5.4307   5.4551   5.4605   5.4902   5.5406   5.5425
     5.5962   5.6091   5.6622   5.7002   5.7033   5.7460   5.7580   5.7590
     5.7717   5.7849   5.7862   5.8717   5.8864   5.9316   5.9368   5.9694
     6.0072   6.0727   6.0784   6.1170   6.1674   6.1679   6.2237   6.2607
     6.3145   6.3807   6.4185   6.4521   6.5077   6.5327   6.5338   6.5748
     6.5942   6.5954   6.6097   6.6131   6.6473   6.6779   6.7089   6.7328
     6.7567   6.7669   6.8699   6.9014   6.9547   6.9714   6.9744   7.0964
     7.1890   7.2460   7.2579   7.2702   7.3076   7.3445   7.3862   7.4212
     7.4423   7.4738   7.4956   7.5282   7.5496   7.5570   7.6200   7.6362
     7.6539   7.6660   7.7206   7.7325   7.7661   7.7819   7.9047   7.9129
     7.9238   7.9802   8.0742   8.1130   8.1745   8.2086   8.2370   8.2465
     8.3380   8.3566   8.3968   8.4408   8.4443   8.4554   8.4814   8.5032
     8.5136   8.5590   8.5628   8.6038   8.6183   8.6334   8.6438   8.6601
     8.7024   8.7299   8.7430   8.7537   8.7845   8.8270   8.8308   8.9473
     9.2574   9.7733  10.3722  11.0249  11.7583  12.0751  12.1945  12.4072
    12.5348  12.6953  13.0266  13.2887  13.3520  13.4116  13.4507  13.6739
    13.9241  14.0151  14.1860  14.2783  14.4871  14.5817  14.8752  15.0708
    15.2235  15.4359  15.4470  15.6261  15.8831  15.9798  16.2022  16.2982
    16.3971  16.7272  16.9061  16.9456

          k = 0.1250 0.7217 0.0000 ( 23455 PWs)   bands (ev):

     4.2733   4.3118   4.4551   4.5122   4.6068   4.6679   4.7034   4.7346
     4.7497   4.8065   4.8227   4.8655   4.9143   4.9585   4.9816   5.0274
     5.0678   5.0970   5.1052   5.1219   5.1997   5.2055   5.2485   5.2644
     5.2691   5.2953   5.3087   5.3447   5.4173   5.4288   5.4568   5.4583
     5.5039   5.5850   5.5949   5.6317   5.6664   5.7170   5.7278   5.7515
     5.7841   5.8308   5.8372   5.8762   5.9022   5.9281   5.9599   6.0047
     6.0144   6.0612   6.0936   6.1560   6.2230   6.2474   6.2635   6.3049
     6.3381   6.3593   6.3705   6.4403   6.4806   6.5061   6.5477   6.6157
     6.6171   6.6471   6.7273   6.7747   6.7811   6.7916   6.8335   6.8426
     6.9106   6.9226   6.9562   7.0140   7.0281   7.0416   7.0795   7.1098
     7.1854   7.1976   7.2623   7.2748   7.3893   7.4128   7.4898   7.5002
     7.5037   7.5589   7.5706   7.6447   7.6635   7.6832   7.7172   7.7591
     7.7748   7.7876   7.8548   7.8754   7.9102   7.9348   8.0444   8.0558
     8.0684   8.1800   8.2378   8.2397   8.3396   8.3400   8.4310   8.5492
     8.5591   8.5784   8.6170   8.6550   8.6616   8.6669   8.7012   8.7453
     8.7633   8.7755   8.7935   8.8032   8.8054   8.8887   8.9003   8.9164
     8.9249   8.9337   9.2755   9.3179   9.3557   9.4091   9.5269   9.7645
    10.1774  10.7187  11.3469  11.8009  11.8777  12.0257  12.0774  12.3102
    12.6357  12.7523  13.0154  13.0843  13.2201  13.4182  13.4871  13.5151
    13.7293  13.9724  14.0910  14.1868  14.4792  14.5788  14.8428  15.1079
    15.2768  15.5551  15.7525  15.9260  15.9863  16.2853  16.3116  16.5117
    16.5302  16.6467  16.7981  16.9844

          k = 0.1250-0.8660 0.0000 ( 23492 PWs)   bands (ev):

     4.4798   4.5501   4.5630   4.6078   4.6267   4.6754   4.7124   4.7279
     4.7526   4.7740   4.8322   4.8689   4.9307   4.9328   5.0057   5.0065
     5.0586   5.0788   5.1113   5.1192   5.1370   5.1396   5.1557   5.1653
     5.2278   5.2446   5.2926   5.2974   5.3379   5.3405   5.3712   5.3815
     5.4765   5.4804   5.5704   5.5944   5.6443   5.6444   5.7353   5.7381
     5.8190   5.8423   5.9139   5.9170   5.9305   5.9588   6.0020   6.0175
     6.0510   6.0543   6.0879   6.0972   6.1540   6.1789   6.2553   6.2665
     6.4181   6.4182   6.4406   6.4654   6.5910   6.5958   6.6277   6.6429
     6.6922   6.7186   6.7653   6.7690   6.8476   6.8501   6.8618   6.8811
     6.9075   6.9211   6.9875   7.0032   7.0703   7.0743   7.1252   7.1769
     7.2184   7.2659   7.3290   7.3681   7.4319   7.4597   7.4868   7.4963
     7.5281   7.5672   7.6059   7.6750   7.6955   7.7093   7.7670   7.8206
     7.8570   7.8642   7.8954   7.9347   7.9979   8.0092   8.0220   8.0406
     8.0847   8.1129   8.1424   8.1745   8.2528   8.2559   8.4418   8.4479
     8.6214   8.6333   8.7364   8.7568   8.7902   8.7911   8.8077   8.8383
     8.8654   8.8887   8.9271   8.9290   8.9454   8.9821   9.0326   9.0344
     9.0549   9.0632  10.4211  10.4274  10.4583  10.4661  10.5687  10.5695
    10.7011  10.7135  10.9305  10.9381  11.2540  11.2674  11.6850  11.6975
    12.2081  12.2136  12.8059  12.8064  13.3912  13.4417  13.9964  14.0207
    14.4449  14.4628  14.6514  14.6528  14.7811  14.8448  14.9846  15.0345
    15.2622  15.2823  15.4386  15.4728  15.8017  15.8309  15.9001  15.9672
    16.2416  16.2473  16.5833  16.6124

          k = 0.1250-0.7217 0.0000 ( 23455 PWs)   bands (ev):

     4.1792   4.3190   4.4226   4.5827   4.6310   4.6518   4.6695   4.7617
     4.7699   4.8055   4.8287   4.8611   4.9144   4.9358   4.9693   5.0142
     5.0817   5.0824   5.1074   5.1194   5.1914   5.2292   5.2367   5.2563
     5.2652   5.3045   5.3241   5.3633   5.4086   5.4326   5.4555   5.4646
     5.5127   5.5622   5.5994   5.6092   5.6689   5.7186   5.7317   5.7366
     5.8014   5.8168   5.8296   5.8662   5.9005   5.9176   5.9448   6.0327
     6.0370   6.0701   6.0846   6.1717   6.2098   6.2663   6.2889   6.3278
     6.3403   6.3585   6.3937   6.4274   6.4423   6.5186   6.5324   6.5923
     6.6945   6.6973   6.7588   6.7810   6.7965   6.7967   6.8484   6.8630
     6.8983   6.9230   6.9854   6.9918   7.0302   7.0661   7.1179   7.1310
     7.1359   7.2088   7.2136   7.2937   7.3606   7.4245   7.4724   7.4953
     7.4980   7.5146   7.5650   7.6168   7.6380   7.6734   7.7014   7.7168
     7.7368   7.8162   7.8599   7.8760   7.9409   8.0005   8.0420   8.0441
     8.0805   8.1711   8.2329   8.2623   8.3435   8.3566   8.4337   8.5342
     8.5412   8.6055   8.6085   8.6496   8.6601   8.6654   8.7300   8.7462
     8.7573   8.7807   8.7948   8.8167   8.8245   8.8253   8.8961   8.9005
     8.9238   8.9288   9.2713   9.3253   9.3644   9.4162   9.5291   9.7717
    10.1811  10.7120  11.3396  11.7940  11.8749  11.9816  12.0657  12.3015
    12.6162  12.7312  12.9985  13.0809  13.2074  13.4038  13.4279  13.5179
    13.7250  13.9536  14.1615  14.1897  14.4254  14.5951  14.8201  15.1020
    15.2908  15.5836  15.7466  15.8726  16.0527  16.2940  16.3418  16.4952
    16.5567  16.6637  16.9521  16.9688

          k = 0.1250-0.5774 0.0000 ( 23447 PWs)   bands (ev):

     3.6018   3.7330   3.8593   4.0638   4.2592   4.4808   4.6953   4.7316
     4.8610   4.9097   4.9352   4.9417   4.9975   5.0216   5.0594   5.0665
     5.0975   5.1445   5.2092   5.2129   5.2427   5.2465   5.3189   5.3327
     5.3980   5.3995   5.4582   5.4634   5.4775   5.4921   5.5541   5.5639
     5.5991   5.6016   5.6369   5.6751   5.6887   5.7390   5.7558   5.7673
     5.7821   5.7971   5.8270   5.8578   5.8882   5.9215   5.9328   5.9590
     5.9939   6.0825   6.0999   6.1088   6.1263   6.1472   6.2435   6.2908
     6.3311   6.3862   6.4468   6.4809   6.4851   6.5363   6.5748   6.5749
     6.5959   6.5981   6.6298   6.6535   6.7031   6.7199   6.7358   6.7429
     6.7573   6.8102   6.8344   6.9373   6.9549   6.9606   7.0093   7.1112
     7.1691   7.2085   7.2568   7.2617   7.3037   7.3116   7.3484   7.4040
     7.4419   7.4524   7.4862   7.5209   7.5223   7.5767   7.5797   7.6213
     7.6270   7.6859   7.7182   7.7241   7.8064   7.8654   7.9046   7.9164
     7.9331   7.9646   8.0862   8.0942   8.1852   8.1939   8.2096   8.2512
     8.3441   8.3571   8.3965   8.4307   8.4313   8.4468   8.4804   8.5083
     8.5307   8.5663   8.5946   8.6001   8.6185   8.6312   8.6425   8.6998
     8.7290   8.7302   8.7407   8.7536   8.7851   8.8335   8.8350   8.8515
     9.2527   9.7561  10.3557  10.9675  11.7354  12.0740  12.1918  12.4125
    12.4696  12.6934  13.0407  13.2712  13.3549  13.4116  13.4788  13.6493
    13.8798  13.9905  14.1481  14.2568  14.3352  14.7236  14.8102  15.0300
    15.2269  15.4416  15.4697  15.6545  15.8435  15.9373  16.2960  16.3549
    16.4421  16.8068  16.8994  16.9833

          k = 0.1250-0.4330 0.0000 ( 23435 PWs)   bands (ev):

     2.8571   2.9937   3.1808   3.4471   3.7463   4.0838   4.4121   4.6635
     4.7185   4.7504   4.7754   4.8508   4.8682   4.8957   4.9184   4.9617
     4.9944   5.0952   5.1017   5.1065   5.1537   5.2159   5.2778   5.3597
     5.3829   5.3847   5.4122   5.4251   5.4871   5.5150   5.5934   5.6341
     5.6641   5.6954   5.7187   5.7337   5.7527   5.7700   5.7891   5.7980
     5.8467   5.8560   5.8638   5.8847   5.9461   5.9528   5.9648   5.9669
     6.0217   6.0541   6.0654   6.1015   6.1665   6.2525   6.2972   6.3526
     6.4162   6.4251   6.4516   6.4924   6.5019   6.5629   6.5658   6.5870
     6.5931   6.6399   6.6552   6.6566   6.6809   6.7159   6.7253   6.7468
     6.7570   6.8414   6.9049   6.9258   6.9669   6.9802   7.0038   7.0505
     7.1159   7.1386   7.1688   7.2046   7.2062   7.2316   7.2897   7.2920
     7.2951   7.3218   7.3459   7.3529   7.4156   7.4341   7.4478   7.4847
     7.4918   7.5279   7.5314   7.5633   7.5963   7.6207   7.6457   7.6598
     7.6902   7.7507   7.8170   7.8179   7.8515   7.9239   7.9341   7.9369
     7.9807   8.0301   8.0526   8.0822   8.1557   8.1887   8.2079   8.2836
     8.3428   8.4403   8.5150   8.5187   8.6116   8.6430   8.6824   8.7305
     8.7324   8.7537   8.7798   8.7944   8.8311   8.8357   8.8702   8.9535
     8.9619   9.2077   9.7162  10.2485  10.9839  11.3746  11.4580  11.6348
    11.7114  11.8670  12.1891  12.5848  12.6674  13.0492  13.5342  13.5351
    13.7373  13.9467  14.1997  14.2414  14.5296  14.6440  14.6527  14.7344
    15.1480  15.2543  15.5596  15.6553  15.6645  15.9230  16.1663  16.1896
    16.3932  16.6209  16.9593  17.2236

          k = 0.1250-0.2887 0.0000 ( 23467 PWs)   bands (ev):

     2.2045   2.3462   2.5648   2.8585   3.2024   3.5826   3.9516   4.2450
     4.3931   4.3955   4.4491   4.4746   4.5204   4.5525   4.6475   4.6576
     4.6605   4.6635   4.7846   4.8644   4.9280   4.9550   4.9882   5.0665
     5.1025   5.1171   5.2102   5.2454   5.3420   5.4118   5.4605   5.5888
     5.6623   5.6637   5.7628   5.7859   5.7945   5.8864   5.9379   5.9677
     5.9924   6.0230   6.0318   6.0396   6.0628   6.0718   6.1062   6.1478
     6.1572   6.2008   6.2312   6.2900   6.3254   6.3830   6.4371   6.4693
     6.5142   6.5212   6.5815   6.6008   6.6035   6.6283   6.6414   6.6498
     6.6683   6.7065   6.7077   6.7431   6.7655   6.7902   6.7923   6.8085
     6.8430   6.8512   6.8531   6.8832   6.8986   6.9159   6.9419   6.9732
     6.9987   7.0113   7.0257   7.0499   7.0579   7.1326   7.1623   7.1904
     7.2005   7.2273   7.2703   7.3040   7.3641   7.4049   7.4141   7.4800
     7.5143   7.5580   7.5837   7.5981   7.6884   7.7030   7.7467   7.7869
     7.7948   7.8274   7.8465   7.8708   7.9409   7.9575   7.9758   8.0584
     8.0876   8.1224   8.1471   8.1809   8.2124   8.2332   8.2527   8.2778
     8.3480   8.3598   8.4565   8.5119   8.5407   8.6609   8.6673   8.6989
     8.7549   8.7745   8.7876   8.7908   8.8346   8.8408   8.8929   8.9731
     9.0284   9.0344   9.1877   9.6244  10.2970  10.7583  10.8126  10.9343
    10.9784  11.0906  11.3309  11.6637  11.9012  12.0988  12.3446  12.6253
    13.2194  13.5787  13.7135  13.8505  13.9286  14.1867  14.1984  14.4428
    14.6760  14.9563  15.2051  15.2761  15.5896  15.6200  15.8722  16.0968
    16.4445  16.8256  16.9251  16.9652

          k = 0.1250-0.1443 0.0000 ( 23537 PWs)   bands (ev):

     1.7738   1.9169   2.1476   2.4497   2.8069   3.1968   3.5730   3.8750
     4.0533   4.0712   4.1208   4.1489   4.1906   4.3084   4.3114   4.3452
     4.3528   4.4316   4.5447   4.5642   4.6480   4.6754   4.7010   4.7443
     4.7970   4.8454   4.9021   4.9900   5.1314   5.1626   5.2459   5.4903
     5.6285   5.7877   5.7981   5.9652   5.9727   6.0486   6.0927   6.1248
     6.1511   6.1692   6.2010   6.2113   6.2394   6.2801   6.2812   6.3086
     6.3547   6.3624   6.3728   6.4072   6.4389   6.4619   6.4810   6.4930
     6.5024   6.5038   6.5193   6.5226   6.5431   6.5634   6.5868   6.6038
     6.6218   6.6320   6.6460   6.6699   6.6819   6.6990   6.7159   6.7360
     6.7407   6.7623   6.7845   6.8153   6.8544   6.8954   6.8971   6.9357
     7.0160   7.0199   7.1450   7.1463   7.1969   7.2561   7.3214   7.4483
     7.4757   7.5073   7.5379   7.5551   7.5553   7.5932   7.6119   7.6610
     7.7170   7.7181   7.7445   7.7842   7.8250   7.8623   7.8824   7.8899
     7.9314   8.0081   8.0426   8.0741   8.1501   8.1569   8.2199   8.2371
     8.3031   8.3182   8.3600   8.3946   8.4048   8.4593   8.4622   8.5253
     8.5389   8.5418   8.5681   8.5882   8.6342   8.6643   8.6980   8.7023
     8.7153   8.7454   8.7524   8.7662   8.8005   8.8342   8.8460   8.8984
     8.9783   9.0418   9.0511   9.0734   9.6445   9.9918  10.1417  10.2717
    10.3128  10.4350  10.5627  10.7907  11.1657  11.1783  11.3989  11.7142
    12.3462  13.0120  13.4773  13.5577  13.6628  13.7294  14.0139  14.0312
    14.3221  14.6298  14.9382  14.9802  15.2517  15.3402  15.6788  15.9251
    16.4252  16.5495  16.6382  16.9686

          k = 0.2500 0.0000 0.0000 ( 23536 PWs)   bands (ev):

     1.9599   2.0993   2.3277   2.6246   2.9783   3.3653   3.7411   3.9009
     4.0146   4.0413   4.1741   4.2143   4.2705   4.3042   4.3555   4.3630
     4.4116   4.4628   4.4659   4.4797   4.5134   4.6120   4.7007   4.7475
     4.7720   4.8691   4.9329   5.0355   5.1100   5.1355   5.3051   5.5427
     5.7228   5.7365   5.8182   5.8687   5.9274   6.0268   6.0298   6.0614
     6.1151   6.1325   6.1582   6.1668   6.1881   6.2277   6.2873   6.2925
     6.3116   6.3535   6.3827   6.4147   6.4498   6.4789   6.5045   6.5123
     6.5360   6.5504   6.5648   6.5825   6.5945   6.6138   6.6240   6.6373
     6.6499   6.6719   6.7064   6.7086   6.7205   6.7433   6.7584   6.7632
     6.8035   6.8088   6.8267   6.8406   6.8798   6.8914   6.9127   6.9187
     6.9911   7.0323   7.1063   7.1116   7.1443   7.2327   7.2524   7.2892
     7.3642   7.3899   7.4420   7.4542   7.4848   7.5156   7.5698   7.5708
     7.6521   7.6627   7.6939   7.7257   7.7435   7.8316   7.8455   7.8634
     7.9485   7.9722   7.9784   8.0329   8.0612   8.1224   8.2212   8.2326
     8.2406   8.2830   8.2987   8.3348   8.3708   8.3972   8.4089   8.4211
     8.4599   8.4767   8.4969   8.5308   8.5385   8.5503   8.5702   8.5968
     8.6122   8.6147   8.6456   8.6463   8.6850   8.7064   8.7877   8.7959
     8.7972   8.8177   8.8424   8.8820   8.9206   8.9283   8.9359   8.9521
     9.1136   9.3913   9.7021   9.9678  10.4024  10.6698  11.1463  11.5119
    11.8437  11.9045  12.6690  13.4028  14.0836  14.1422  15.0703  15.1163
    15.3337  15.3889  15.5114  15.6108  15.9173  16.3557  16.6549  16.7709
    16.8151  17.1111  17.4041  17.7948

          k = 0.2500 0.1443 0.0000 ( 23484 PWs)   bands (ev):

     2.1076   2.2429   2.4695   2.7613   3.1120   3.4965   3.8727   4.0347
     4.1471   4.1729   4.3032   4.3414   4.3863   4.4332   4.4571   4.4943
     4.5216   4.5840   4.5870   4.6039   4.6433   4.7265   4.7878   4.8251
     4.8776   4.9538   5.0425   5.1021   5.2322   5.2436   5.3492   5.5440
     5.6286   5.7128   5.7987   5.8113   5.8946   5.9208   5.9719   5.9971
     6.0482   6.0602   6.0785   6.0913   6.1501   6.1684   6.2153   6.2383
     6.2662   6.3443   6.3559   6.3837   6.4047   6.4098   6.4480   6.4623
     6.5161   6.5374   6.5745   6.5767   6.6019   6.6095   6.6213   6.6301
     6.6512   6.6727   6.6917   6.7027   6.7297   6.7539   6.7646   6.7957
     6.8042   6.8290   6.8311   6.8448   6.8842   6.9016   6.9314   6.9397
     6.9741   7.0112   7.0467   7.1065   7.1074   7.1955   7.2189   7.2351
     7.2701   7.3044   7.3132   7.3373   7.3937   7.4456   7.4581   7.4742
     7.5188   7.5672   7.6241   7.6742   7.7170   7.7514   7.7723   7.8101
     7.8566   7.8643   7.9022   7.9328   7.9329   8.0001   8.0104   8.0413
     8.1377   8.1666   8.1958   8.2004   8.2202   8.2349   8.2688   8.3056
     8.3141   8.4030   8.4621   8.4709   8.5259   8.5400   8.5457   8.5876
     8.6168   8.6711   8.7167   8.7208   8.7442   8.7598   8.8023   8.8619
     8.9107   8.9882   9.1139   9.1400   9.2335   9.3255   9.3754   9.4573
     9.6050   9.6705  10.1052  10.1883  10.7029  10.9272  11.3877  11.7510
    12.1101  12.1682  12.8587  13.5707  14.1292  14.3076  15.1502  15.2933
    15.3829  15.4950  15.5716  15.7171  16.0080  16.4424  16.7450  16.8685
    16.9070  17.1970  17.4622  17.8262

          k = 0.2500 0.2887 0.0000 ( 23496 PWs)   bands (ev):

     2.5236   2.6480   2.8633   3.1360   3.4675   3.8313   4.1918   4.3924
     4.4741   4.4929   4.6166   4.6215   4.6583   4.6589   4.7214   4.7624
     4.7984   4.8352   4.8809   4.8846   4.9291   4.9875   5.0604   5.0935
     5.1125   5.2028   5.2660   5.3062   5.3808   5.4014   5.4480   5.5677
     5.6183   5.6281   5.7134   5.7246   5.7700   5.8063   5.8827   5.9194
     5.9276   5.9292   5.9587   5.9630   6.0115   6.0631   6.0908   6.1065
     6.1232   6.1308   6.1795   6.2117   6.2482   6.3013   6.3685   6.3711
     6.4262   6.4545   6.4887   6.5048   6.5450   6.5659   6.5704   6.6193
     6.6320   6.6670   6.6796   6.6823   6.7022   6.7360   6.7775   6.7884
     6.8283   6.8402   6.8584   6.8818   6.9000   6.9413   6.9598   6.9653
     6.9866   7.0162   7.0289   7.0495   7.1105   7.1300   7.1614   7.1645
     7.1716   7.2123   7.2498   7.2928   7.3001   7.3416   7.3613   7.3641
     7.4384   7.4477   7.4805   7.5386   7.5446   7.5848   7.6293   7.6827
     7.7249   7.7430   7.7472   7.8160   7.8301   7.8444   7.8952   7.9035
     7.9449   7.9642   8.0088   8.0771   8.1001   8.1592   8.1732   8.2365
     8.2540   8.3876   8.3895   8.4767   8.5947   8.6109   8.6573   8.7002
     8.7672   8.7685   8.7848   8.7955   8.8323   8.8664   8.9567   8.9942
     9.0124   9.1062   9.4654   9.8037   9.8532   9.9144  10.0146  10.0218
    10.1843  10.4667  10.6688  10.8775  11.4000  11.4476  12.0092  12.2993
    12.6593  12.9712  13.3662  14.0152  14.3420  14.7109  15.4100  15.5281
    15.6739  15.8302  15.8576  16.0041  16.2546  16.6451  17.0050  17.0612
    17.2031  17.2832  17.5639  17.6275

          k = 0.2500 0.4330 0.0000 ( 23431 PWs)   bands (ev):

     3.1291   3.2261   3.4136   3.6326   3.9022   4.1870   4.4636   4.6621
     4.7597   4.7807   4.7871   4.8073   4.8263   4.8810   4.8983   4.9534
     4.9928   5.0244   5.0344   5.1110   5.1130   5.1380   5.1531   5.2142
     5.2519   5.2552   5.3103   5.4221   5.4646   5.4932   5.5296   5.5645
     5.5843   5.6319   5.6852   5.7097   5.7500   5.8033   5.8048   5.8301
     5.8585   5.8861   5.9086   5.9332   5.9601   5.9872   6.0063   6.0493
     6.0725   6.1098   6.1224   6.1423   6.1773   6.1963   6.2495   6.2957
     6.3535   6.3749   6.4301   6.4318   6.5261   6.5469   6.5725   6.5743
     6.6235   6.6312   6.6627   6.6778   6.6984   6.7199   6.7277   6.7674
     6.8096   6.8789   6.9137   6.9347   6.9822   6.9863   6.9904   7.0306
     7.0348   7.1359   7.1737   7.1845   7.1879   7.2141   7.2659   7.2727
     7.3136   7.3413   7.3599   7.4020   7.4173   7.4422   7.4777   7.5046
     7.5335   7.5649   7.5996   7.6010   7.6292   7.6390   7.6645   7.6995
     7.7024   7.7186   7.7958   7.8195   7.8256   7.8687   7.8910   7.9461
     7.9697   8.0381   8.0388   8.0662   8.1147   8.1761   8.2322   8.2657
     8.3695   8.4083   8.4348   8.5823   8.6230   8.6668   8.7610   8.8067
     8.8259   8.8297   8.8416   8.8541   8.8554   8.8760   8.9821   9.0272
     9.1458   9.3382   9.9097  10.4121  10.4564  10.5465  10.5566  10.7168
    10.9526  11.2472  11.2885  11.7149  12.0459  12.2181  12.7901  12.8902
    13.3700  14.0188  14.0256  14.5490  14.8478  15.0998  15.6922  15.8377
    15.8910  15.9087  15.9608  16.1797  16.2779  16.4143  16.5101  16.6637
    16.8938  17.0327  17.4035  17.4322

          k = 0.2500 0.5774 0.0000 ( 23466 PWs)   bands (ev):

     3.7378   3.7930   3.9639   4.0895   4.2504   4.3913   4.5306   4.6199
     4.6515   4.6959   4.7212   4.7569   4.7669   4.8324   4.8761   4.9018
     4.9072   5.0002   5.0037   5.0505   5.0512   5.1219   5.1351   5.1813
     5.1926   5.2211   5.2308   5.2573   5.2901   5.3407   5.3623   5.3965
     5.4443   5.4882   5.5254   5.6279   5.6679   5.6743   5.7573   5.8174
     5.8234   5.8556   5.8935   5.9059   5.9602   5.9652   5.9994   6.0863
     6.1264   6.1774   6.2399   6.2411   6.2963   6.4062   6.4081   6.4599
     6.4747   6.5091   6.5304   6.5780   6.5940   6.6208   6.6345   6.6394
     6.6546   6.7150   6.7609   6.7914   6.7966   6.8398   6.8506   6.9249
     6.9332   6.9830   6.9915   7.0188   7.0827   7.1092   7.1787   7.1849
     7.2847   7.2869   7.3336   7.3595   7.3859   7.4865   7.4969   7.5163
     7.5262   7.5463   7.5633   7.6666   7.6713   7.7522   7.7859   7.8081
     7.8716   7.8774   7.9240   7.9383   7.9411   7.9713   8.0032   8.0637
     8.0693   8.0772   8.0928   8.1342   8.1343   8.1382   8.1953   8.2094
     8.2747   8.3129   8.3486   8.3574   8.4101   8.4367   8.4564   8.4954
     8.5042   8.5454   8.5831   8.6071   8.6828   8.7069   8.7473   8.7522
     8.7545   8.8262   8.8284   8.8545   8.8580   8.9463   8.9881   9.1051
     9.2380   9.8319  10.4917  11.0692  11.1412  11.1975  11.2837  11.4894
    11.7664  11.9332  12.1358  12.5793  12.7246  13.0806  13.4920  13.5757
    13.7739  13.8511  14.0771  14.2860  14.4329  14.7623  15.0252  15.0827
    15.1519  15.4539  15.6274  15.7478  15.9060  16.1818  16.4082  16.5573
    16.6546  17.0474  17.1924  17.4376

          k = 0.2500 0.7217 0.0000 ( 23545 PWs)   bands (ev):

     4.0835   4.1378   4.3273   4.3792   4.3941   4.4981   4.5086   4.5197
     4.5496   4.5842   4.6067   4.6509   4.6633   4.7388   4.7620   4.7681
     4.8243   4.8636   4.8744   4.8744   4.9237   4.9354   4.9456   5.0163
     5.0526   5.0836   5.0959   5.1321   5.1515   5.2293   5.2455   5.2500
     5.3065   5.3487   5.4099   5.4888   5.5476   5.5970   5.7018   5.7084
     5.7735   5.8455   5.8609   5.9383   5.9899   6.0147   6.0279   6.1275
     6.1376   6.2504   6.2776   6.3352   6.3619   6.3905   6.4029   6.4616
     6.5439   6.5504   6.5665   6.6010   6.6342   6.6671   6.6981   6.7235
     6.7670   6.8098   6.8192   6.8560   6.9322   6.9685   7.0378   7.0823
     7.1171   7.1242   7.2056   7.2165   7.2717   7.3110   7.3111   7.3674
     7.4240   7.4319   7.5623   7.5975   7.6514   7.6749   7.7299   7.8244
     7.8346   7.9029   7.9171   7.9259   7.9520   7.9729   8.0077   8.0923
     8.1350   8.1777   8.2022   8.2134   8.2225   8.2340   8.2783   8.3136
     8.3249   8.3339   8.4327   8.4371   8.4806   8.5396   8.5495   8.5624
     8.5848   8.5888   8.5999   8.6178   8.6625   8.6920   8.7101   8.7130
     8.7562   8.7749   8.7984   8.8234   8.8737   8.9130   8.9364   8.9467
     8.9481   9.0340   9.1378   9.2259   9.3275   9.3618   9.4543   9.6684
    10.1099  10.7134  11.4014  11.9267  11.9835  12.0083  12.0650  12.1407
    12.1461  12.2550  12.4014  12.5536  12.7843  12.8792  12.9648  13.2138
    13.3334  13.4242  13.6360  13.8644  13.9783  14.2884  14.2925  14.6821
    14.8859  15.3107  15.3401  15.3701  15.5600  15.7449  15.7662  15.9799
    16.0294  16.2044  16.4485  16.5881

          k = 0.2500-0.8660 0.0000 ( 23532 PWs)   bands (ev):

     4.1969   4.2625   4.3209   4.3303   4.4035   4.4624   4.4759   4.5057
     4.5450   4.5517   4.6303   4.6561   4.7130   4.7165   4.7387   4.7466
     4.7975   4.8008   4.8110   4.8130   4.8949   4.9069   4.9070   4.9245
     4.9516   4.9553   5.0447   5.0506   5.0866   5.0873   5.2246   5.2377
     5.3013   5.3118   5.3333   5.3355   5.5173   5.5177   5.6721   5.6836
     5.8072   5.8483   5.9299   5.9658   6.0537   6.0557   6.0996   6.1260
     6.1599   6.1640   6.2306   6.2439   6.4117   6.4200   6.4545   6.4549
     6.5226   6.5506   6.5726   6.5798   6.6517   6.6575   6.7134   6.7374
     6.7840   6.8125   6.8884   6.9188   6.9813   6.9969   7.0944   7.1242
     7.1743   7.1892   7.2945   7.3054   7.3754   7.3855   7.4397   7.4664
     7.5086   7.5288   7.6688   7.7012   7.7025   7.7128   7.8766   7.9104
     7.9240   7.9824   8.0641   8.0648   8.0832   8.0957   8.1002   8.1366
     8.2304   8.2528   8.2981   8.3419   8.3599   8.3703   8.3909   8.3989
     8.4041   8.4164   8.4352   8.4474   8.4808   8.4816   8.5305   8.5431
     8.6348   8.6555   8.7106   8.7302   8.7555   8.7621   8.7881   8.8142
     8.8384   8.8837   8.9133   8.9251   8.9636   9.0050   9.0371   9.0474
     9.0541   9.0678  10.3926  10.4188  10.4784  10.4919  10.6124  10.6210
    10.7254  10.7567  10.9180  10.9352  11.1956  11.2278  11.5996  11.6334
    12.1175  12.1441  12.7152  12.7621  13.3445  13.3537  13.5222  13.5540
    13.6470  13.6475  13.7513  13.8168  13.9557  14.0835  14.1623  14.1881
    14.3774  14.5679  14.7347  14.8143  15.0012  15.1460  15.4343  15.4782
    15.7563  15.7916  15.9809  15.9926

          k = 0.2500-0.7217 0.0000 ( 23545 PWs)   bands (ev):

     3.9951   4.1425   4.2739   4.4370   4.4530   4.4587   4.5043   4.5208
     4.5300   4.6077   4.6222   4.6327   4.6898   4.7162   4.7333   4.7621
     4.8293   4.8623   4.8742   4.8853   4.9265   4.9405   4.9463   5.0118
     5.0283   5.0975   5.1048   5.1249   5.1577   5.2326   5.2462   5.2499
     5.3236   5.3317   5.4089   5.4786   5.5372   5.5981   5.6933   5.7239
     5.7934   5.8394   5.8491   5.9467   5.9970   6.0221   6.0348   6.1438
     6.1686   6.2713   6.2914   6.3092   6.3652   6.4060   6.4395   6.5021
     6.5346   6.5347   6.5811   6.6053   6.6109   6.6743   6.7077   6.7128
     6.7881   6.8000   6.8518   6.8656   6.9518   6.9840   7.0215   7.0269
     7.1092   7.1156   7.1707   7.2329   7.2566   7.2817   7.3346   7.3990
     7.4370   7.4784   7.5464   7.5868   7.6510   7.6627   7.7376   7.7950
     7.8476   7.9004   7.9012   7.9497   7.9510   7.9646   8.0366   8.0645
     8.1071   8.1714   8.1772   8.2102   8.2253   8.2667   8.2756   8.3055
     8.3266   8.3574   8.4403   8.4733   8.4951   8.5289   8.5479   8.5564
     8.5783   8.5913   8.6053   8.6472   8.6701   8.6754   8.6838   8.7389
     8.7682   8.7776   8.8213   8.8306   8.8774   8.9119   8.9227   8.9346
     8.9443   8.9559   9.1327   9.2353   9.3293   9.3878   9.4610   9.6854
    10.1187  10.7002  11.3911  11.9405  11.9932  12.0286  12.0645  12.0801
    12.1507  12.2237  12.3301  12.5002  12.6636  12.8437  12.9132  13.0868
    13.3630  13.5048  13.5264  13.8019  14.0524  14.2941  14.4969  14.7400
    15.0774  15.2906  15.3829  15.3893  15.5601  15.5865  15.7313  15.9512
    16.1335  16.1740  16.3967  16.6488

          k = 0.2500-0.5774 0.0000 ( 23466 PWs)   bands (ev):

     3.6525   3.7998   3.9224   4.1209   4.2733   4.4178   4.5451   4.5772
     4.6365   4.6473   4.7240   4.7318   4.7580   4.8481   4.8657   4.8736
     4.9086   4.9997   5.0157   5.0446   5.0611   5.1256   5.1404   5.1849
     5.2028   5.2041   5.2345   5.2666   5.2934   5.3533   5.3766   5.4022
     5.4432   5.4844   5.5364   5.5987   5.6580   5.6845   5.7640   5.8222
     5.8324   5.8464   5.9317   5.9334   5.9504   5.9887   6.0297   6.0788
     6.1393   6.1834   6.2560   6.2666   6.3024   6.3867   6.4144   6.4487
     6.5002   6.5092   6.5480   6.5822   6.6167   6.6297   6.6325   6.6485
     6.6779   6.7071   6.7473   6.7639   6.8284   6.8614   6.8651   6.9235
     6.9373   6.9542   6.9935   7.0154   7.0957   7.1196   7.1425   7.2149
     7.2342   7.2931   7.3393   7.3395   7.4710   7.4786   7.5157   7.5240
     7.5422   7.5433   7.6103   7.6263   7.6613   7.7281   7.7967   7.8325
     7.8389   7.8843   7.9144   7.9313   7.9621   8.0060   8.0078   8.0641
     8.0705   8.0794   8.0799   8.1177   8.1194   8.1435   8.1939   8.2161
     8.2607   8.3163   8.3363   8.3593   8.4157   8.4388   8.4611   8.4922
     8.5089   8.5437   8.5814   8.6470   8.6939   8.7071   8.7483   8.7537
     8.8007   8.8317   8.8533   8.8692   8.8749   8.8913   8.9940   9.0097
     9.2225   9.7904  10.4566  11.0654  11.0981  11.1341  11.2793  11.4752
    11.7598  11.8924  12.1257  12.5769  12.6145  13.0955  13.4983  13.6298
    13.7294  13.8688  14.0273  14.3268  14.4309  14.7097  14.9724  15.0250
    15.1068  15.4852  15.6660  15.6929  15.8886  16.2388  16.4220  16.4995
    16.7057  17.2333  17.2429  17.5096

          k = 0.2500-0.4330 0.0000 ( 23431 PWs)   bands (ev):

     3.0890   3.2291   3.3940   3.6431   3.9044   4.1970   4.4660   4.6332
     4.6465   4.7303   4.7434   4.8199   4.8303   4.8666   4.8964   4.9233
     4.9663   5.0216   5.0709   5.1067   5.1372   5.1576   5.2061   5.2403
     5.2519   5.2569   5.3180   5.4660   5.4795   5.4827   5.5239   5.5612
     5.5895   5.6338   5.6678   5.7123   5.7368   5.7938   5.8197   5.8612
     5.8962   5.9184   5.9278   5.9342   5.9896   5.9947   6.0209   6.0297
     6.0481   6.1102   6.1348   6.1602   6.1797   6.2315   6.2340   6.2776
     6.3699   6.3856   6.4325   6.4387   6.5084   6.5484   6.5775   6.5960
     6.6214   6.6214   6.6699   6.6807   6.7060   6.7185   6.7303   6.7608
     6.8312   6.8936   6.9031   6.9745   6.9872   6.9899   7.0281   7.0339
     7.0808   7.1246   7.1672   7.1843   7.1952   7.2470   7.2501   7.2900
     7.2963   7.3412   7.3537   7.3874   7.4059   7.4234   7.4798   7.4905
     7.5599   7.5706   7.5987   7.6147   7.6336   7.6595   7.6615   7.6918
     7.7068   7.7513   7.8091   7.8275   7.8617   7.8675   7.8910   7.9242
     7.9736   8.0246   8.0339   8.0611   8.0996   8.1623   8.1936   8.2430
     8.3854   8.4181   8.4359   8.5616   8.6436   8.7250   8.7686   8.8057
     8.8109   8.8269   8.8599   8.8713   8.8836   8.8981   8.9237   9.0359
     9.0446   9.2851   9.8661  10.4122  10.4375  10.4500  10.5519  10.7061
    10.9487  11.2037  11.2886  11.7284  11.9309  12.2496  12.8232  12.8929
    13.4383  13.9356  14.0215  14.6083  14.8908  14.9100  15.6047  15.7666
    15.8552  15.8952  15.9647  16.1573  16.2699  16.4491  16.4670  16.6281
    16.9932  17.1439  17.4411  17.4946

          k = 0.2500-0.2887 0.0000 ( 23496 PWs)   bands (ev):

     2.5078   2.6488   2.8545   3.1387   3.4660   3.8316   4.1868   4.3636
     4.4647   4.4918   4.5833   4.6109   4.6365   4.6507   4.6979   4.7245
     4.7961   4.8338   4.8807   4.8840   4.9359   4.9890   5.0438   5.0887
     5.1290   5.2161   5.2282   5.3167   5.3753   5.4708   5.5310   5.5357
     5.6170   5.6293   5.7181   5.7555   5.8005   5.8071   5.8835   5.9080
     5.9245   5.9293   5.9633   5.9964   6.0100   6.0554   6.0996   6.1118
     6.1242   6.1468   6.1812   6.2421   6.2908   6.3204   6.3628   6.3873
     6.4186   6.4366   6.4746   6.4997   6.5229   6.5658   6.5820   6.6247
     6.6303   6.6604   6.6903   6.7098   6.7137   6.7363   6.7748   6.7802
     6.8311   6.8347   6.8652   6.8808   6.9143   6.9339   6.9678   6.9863
     6.9913   6.9980   7.0233   7.0676   7.0915   7.1314   7.1474   7.1823
     7.1841   7.2353   7.2616   7.2981   7.3180   7.3405   7.3705   7.3726
     7.4517   7.4572   7.5100   7.5585   7.5704   7.6066   7.6391   7.6810
     7.6909   7.7511   7.7688   7.7726   7.8115   7.8421   7.8868   7.9105
     7.9530   7.9652   7.9830   8.0405   8.1006   8.1725   8.1737   8.2021
     8.2647   8.3887   8.3958   8.4671   8.6235   8.6236   8.6850   8.6874
     8.7662   8.7691   8.7998   8.8195   8.8347   8.8744   8.9179   8.9708
     9.0008   9.0081   9.4272   9.8134   9.8519   9.9094   9.9193  10.0048
    10.1783  10.4695  10.6285  10.8944  11.3396  11.4309  12.0437  12.2955
    12.7043  12.9175  13.3764  14.0463  14.3804  14.6460  15.3982  15.4869
    15.6783  15.8444  15.8487  16.0109  16.2062  16.5981  17.0222  17.0390
    17.2179  17.2678  17.5484  17.6189

          k = 0.2500-0.1443 0.0000 ( 23484 PWs)   bands (ev):

     2.1020   2.2430   2.4662   2.7618   3.1110   3.4954   3.8692   4.0297
     4.1462   4.1679   4.3005   4.3334   4.3850   4.4028   4.4551   4.4921
     4.5221   4.5839   4.5869   4.6059   4.6417   4.7280   4.7767   4.8298
     4.8738   4.9623   5.0133   5.1044   5.2326   5.2403   5.3410   5.5492
     5.6567   5.7294   5.7974   5.8234   5.8943   5.9172   5.9865   6.0099
     6.0405   6.0635   6.0963   6.1262   6.1359   6.1766   6.2179   6.2701
     6.2871   6.3153   6.3252   6.3761   6.3853   6.4411   6.4467   6.4947
     6.5008   6.5245   6.5814   6.5831   6.5928   6.6162   6.6168   6.6341
     6.6419   6.6931   6.7012   6.7146   6.7345   6.7579   6.7704   6.7970
     6.8060   6.8243   6.8442   6.8604   6.8829   6.9066   6.9332   6.9655
     6.9761   7.0327   7.0366   7.0923   7.1192   7.1932   7.2057   7.2319
     7.2420   7.2608   7.3049   7.3162   7.4257   7.4703   7.4727   7.4814
     7.5749   7.5879   7.6445   7.6604   7.7142   7.7413   7.7653   7.8109
     7.8593   7.8749   7.9020   7.9267   7.9487   7.9680   8.0264   8.0648
     8.1041   8.1431   8.1854   8.2083   8.2297   8.2500   8.2580   8.2943
     8.3158   8.4221   8.4511   8.4645   8.5152   8.5334   8.5863   8.6064
     8.6243   8.6690   8.7137   8.7213   8.7370   8.7612   8.8001   8.8047
     8.9147   8.9224   9.1205   9.1256   9.2411   9.3309   9.3641   9.4512
     9.5335   9.6748  10.1234  10.1601  10.7283  10.8517  11.4145  11.7476
    12.1351  12.1419  12.8691  13.5843  14.1508  14.2848  15.1482  15.2930
    15.3677  15.5025  15.5716  15.7212  15.9826  16.4275  16.7669  16.8716
    16.8953  17.1911  17.4675  17.8126

          k = 0.3750 0.0000 0.0000 ( 23492 PWs)   bands (ev):

     2.4826   2.6139   2.8269   3.1047   3.4361   3.6612   3.7650   3.8009
     3.9138   4.0839   4.1589   4.2410   4.3725   4.4402   4.4992   4.5809
     4.6194   4.6358   4.6888   4.7276   4.8504   4.8537   4.8559   4.9282
     4.9812   5.0180   5.1202   5.1872   5.2332   5.3245   5.4829   5.5199
     5.6140   5.6668   5.7400   5.7933   5.8132   5.8790   5.8875   5.9191
     5.9400   5.9771   6.0302   6.0719   6.0788   6.1244   6.1421   6.1721
     6.2595   6.2596   6.3353   6.4128   6.4172   6.4567   6.4945   6.5172
     6.5177   6.5626   6.5647   6.5910   6.5958   6.6211   6.6443   6.6479
     6.6651   6.6928   6.7006   6.7029   6.7479   6.7807   6.8138   6.8235
     6.8482   6.8686   6.8907   6.9190   6.9310   6.9381   6.9504   6.9843
     7.0027   7.0122   7.0291   7.0730   7.1270   7.1533   7.1660   7.1816
     7.2074   7.2096   7.2969   7.3153   7.3413   7.3521   7.3993   7.4551
     7.4941   7.5100   7.5308   7.5354   7.6173   7.6213   7.6513   7.6931
     7.6982   7.7330   7.7768   7.7963   7.8744   7.9187   7.9368   7.9605
     7.9726   7.9827   8.0145   8.0352   8.0399   8.0577   8.0728   8.0733
     8.1060   8.1394   8.1754   8.1973   8.2359   8.2625   8.2746   8.3211
     8.3301   8.3391   8.3782   8.4413   8.4567   8.5358   8.5687   8.5906
     8.6385   8.6461   8.6902   8.8063   8.8162   8.8566   8.8699   8.9520
     9.1738   9.4130   9.7786   9.9539  10.4386  10.6106  11.1316  11.3633
    11.8757  12.2551  12.6397  12.8830  13.4659  14.3412  14.9661  15.3798
    15.6214  15.8155  16.4911  16.9868  17.1931  17.2638  17.4324  17.6117
    17.7892  17.9672  18.2636  18.7146

          k = 0.3750 0.1443 0.0000 ( 23495 PWs)   bands (ev):

     2.6254   2.7505   2.9610   3.2312   3.5581   3.8016   3.9047   3.9195
     4.0430   4.2065   4.2816   4.3532   4.4818   4.5743   4.6139   4.7170
     4.7407   4.7582   4.8053   4.8487   4.9560   4.9631   4.9660   5.0094
     5.0545   5.1159   5.2125   5.2784   5.3523   5.4119   5.5061   5.5065
     5.5914   5.6458   5.6627   5.7768   5.7775   5.8102   5.8493   5.8546
     5.8759   5.9150   5.9417   6.0071   6.0112   6.0386   6.0765   6.0888
     6.1253   6.1922   6.2185   6.2574   6.2918   6.3264   6.3526   6.4192
     6.4331   6.4482   6.4683   6.5051   6.5322   6.5520   6.5634   6.5873
     6.6062   6.6434   6.6792   6.6898   6.6985   6.7016   6.7147   6.7417
     6.7809   6.7984   6.8302   6.8505   6.8847   6.9296   6.9521   7.0017
     7.0242   7.0441   7.0796   7.0902   7.1468   7.1584   7.1959   7.2145
     7.2455   7.2769   7.3005   7.3010   7.3344   7.3722   7.3850   7.4068
     7.4229   7.4541   7.4798   7.4863   7.5306   7.5835   7.6319   7.6879
     7.7081   7.7326   7.7551   7.7684   7.7814   7.8493   7.9013   7.9129
     7.9572   7.9745   8.0317   8.0645   8.1011   8.1070   8.1444   8.1655
     8.2323   8.2660   8.2996   8.3173   8.3962   8.4186   8.4385   8.4826
     8.4987   8.5092   8.5112   8.5476   8.6197   8.6389   8.6585   8.6989
     8.7046   8.7211   8.7528   8.7635   8.7957   8.8271   8.9463   9.1220
     9.3928   9.5667   9.9524  10.1144  10.5868  10.7687  11.2666  11.5408
    12.0147  12.4162  12.7694  13.1487  13.5987  14.4206  15.1823  15.4809
    15.7861  15.9168  16.6194  17.0990  17.2718  17.3514  17.4678  17.6432
    17.8957  18.0426  18.3000  18.7654

          k = 0.3750 0.2887 0.0000 ( 23497 PWs)   bands (ev):

     3.0143   3.1230   3.3176   3.5590   3.8564   4.1763   4.1843   4.2692
     4.3501   4.4619   4.5217   4.5608   4.6795   4.8030   4.8208   4.9324
     4.9659   4.9764   5.1021   5.1050   5.1888   5.1909   5.1963   5.2510
     5.2637   5.3292   5.3293   5.3752   5.4359   5.4917   5.5108   5.5855
     5.5911   5.6241   5.6257   5.6920   5.7135   5.7382   5.7480   5.7687
     5.7732   5.8247   5.8556   5.8688   5.9072   5.9108   5.9627   5.9704
     5.9836   5.9839   6.0579   6.0766   6.1136   6.1840   6.1954   6.2262
     6.2854   6.3160   6.3176   6.3666   6.4042   6.4103   6.4316   6.4492
     6.4689   6.5271   6.5366   6.5732   6.6003   6.6139   6.6399   6.6981
     6.7147   6.7346   6.7385   6.7420   6.8160   6.8655   6.8822   6.9511
     6.9658   6.9940   7.0399   7.1378   7.1898   7.2451   7.2464   7.2606
     7.2961   7.3273   7.3392   7.3710   7.3818   7.4114   7.4356   7.4546
     7.4923   7.5269   7.5377   7.6003   7.6034   7.6292   7.6519   7.6595
     7.6883   7.7234   7.7360   7.7672   7.8787   7.9200   7.9500   7.9604
     7.9768   8.0740   8.1093   8.1190   8.1508   8.1511   8.1975   8.2302
     8.2815   8.3332   8.4148   8.4868   8.5061   8.5606   8.5865   8.6181
     8.6369   8.6776   8.6802   8.6908   8.7018   8.7825   8.8343   8.9128
     8.9369   9.0575   9.1037   9.1103   9.1713   9.2762   9.3596   9.4936
     9.8615   9.8967  10.4173  10.4589  11.0203  11.1417  11.6719  11.9348
    12.4159  12.7906  13.1421  13.8207  13.9442  14.7240  15.7581  15.7860
[...]
     8.7130   8.7243   8.7549   8.7639   8.7968   8.8373   8.9399   9.1068
     9.4036   9.5506   9.9702  10.0922  10.6039  10.7470  11.2883  11.5208
    12.0164  12.4011  12.7860  13.1378  13.5653  14.4093  15.1896  15.4805
    15.7678  15.9385  16.6211  17.1126  17.2797  17.3488  17.4495  17.6487
    17.8851  18.0402  18.3072  18.7587

          k =-0.5000 0.0000-0.0000 ( 23442 PWs)   bands (ev):

     3.1169   3.1169   3.2292   3.2292   3.4067   3.4067   3.6389   3.6389
     3.9058   3.9058   4.1941   4.1941   4.4660   4.4660   4.6565   4.6565
     4.7602   4.7602   4.8783   4.8783   5.0145   5.0145   5.1376   5.1376
     5.1716   5.1716   5.2128   5.2128   5.3165   5.3165   5.4495   5.4495
     5.5889   5.5889   5.7146   5.7146   5.8216   5.8216   5.8977   5.8977
     5.9272   5.9272   5.9948   5.9948   6.0495   6.0495   6.1484   6.1484
     6.2183   6.2183   6.2606   6.2606   6.4007   6.4007   6.5210   6.5210
     6.5868   6.5868   6.6016   6.6016   6.6214   6.6214   6.6463   6.6463
     6.6874   6.6874   6.6979   6.6979   6.7010   6.7010   6.7500   6.7501
     6.8184   6.8184   6.8214   6.8214   6.8997   6.8997   6.9651   6.9652
     6.9702   6.9702   7.1235   7.1235   7.1878   7.1879   7.1916   7.1916
     7.2177   7.2177   7.2665   7.2665   7.3325   7.3325   7.4139   7.4139
     7.4486   7.4486   7.4947   7.4947   7.5457   7.5457   7.5610   7.5610
     7.6100   7.6100   7.6236   7.6236   7.6642   7.6642   7.7021   7.7021
     7.8043   7.8043   7.8224   7.8225   7.8984   7.8984   7.9773   7.9774
     8.0493   8.0493   8.0582   8.0582   8.1140   8.1140   8.1708   8.1708
     8.2500   8.2501   8.3901   8.3902   8.3923   8.3923   8.5634   8.5635
     8.7197   8.7197   8.8199   8.8199   8.8268   8.8268   8.8742   8.8742
     9.3239   9.3239   9.8906   9.8906  10.5175  10.5176  11.2167  11.2167
    12.0023  12.0023  12.8706  12.8706  13.9820  13.9820  14.8580  14.8581
    15.8749  15.8751  16.4536  16.4540  17.4202  17.4205  17.8175  17.8178
    19.1566  19.1567  19.3093  19.3094

          k =-0.5000 0.1443-0.0000 ( 23476 PWs)   bands (ev):

     3.2557   3.2557   3.3636   3.3636   3.5345   3.5345   3.7589   3.7589
     4.0194   4.0194   4.3059   4.3059   4.5878   4.5878   4.8009   4.8009
     4.9014   4.9014   5.0115   5.0115   5.1396   5.1396   5.2193   5.2193
     5.2844   5.2844   5.2976   5.2976   5.3802   5.3802   5.4947   5.4947
     5.6089   5.6089   5.6854   5.6854   5.7471   5.7471   5.7672   5.7672
     5.8481   5.8482   5.8670   5.8670   5.9469   5.9469   6.0103   6.0103
     6.0603   6.0603   6.0827   6.0827   6.2446   6.2447   6.3967   6.3967
     6.4656   6.4656   6.5019   6.5019   6.5405   6.5405   6.5923   6.5923
     6.6183   6.6183   6.6433   6.6433   6.6531   6.6531   6.6729   6.6729
     6.7149   6.7150   6.7326   6.7327   6.7621   6.7621   6.8666   6.8666
     6.9779   6.9779   7.0669   7.0669   7.1717   7.1717   7.3028   7.3028
     7.3567   7.3567   7.3809   7.3810   7.3882   7.3882   7.4134   7.4134
     7.4589   7.4589   7.5031   7.5031   7.5829   7.5829   7.6398   7.6399
     7.7074   7.7074   7.7723   7.7723   7.7886   7.7886   7.8367   7.8367
     7.8680   7.8680   7.9398   7.9398   8.0833   8.0833   8.1001   8.1001
     8.1741   8.1741   8.2017   8.2017   8.2425   8.2425   8.3001   8.3001
     8.3052   8.3053   8.3524   8.3525   8.4375   8.4375   8.5839   8.5839
     8.6477   8.6477   8.7190   8.7190   8.7638   8.7638   9.0141   9.0141
     9.4781   9.4781  10.0222  10.0222  10.6427  10.6428  11.3446  11.3447
    12.1317  12.1317  12.9884  12.9884  14.2088  14.2088  14.9908  14.9909
    15.9967  15.9969  16.5513  16.5516  17.5666  17.5669  17.8757  17.8761
    19.2183  19.2184  19.3936  19.3937

          k =-0.5000 0.2887-0.0000 ( 23540 PWs)   bands (ev):

     3.6232   3.6232   3.7133   3.7133   3.8561   3.8561   4.0447   4.0447
     4.2668   4.2668   4.5176   4.5176   4.7828   4.7828   5.0453   5.0453
     5.2424   5.2424   5.2932   5.2932   5.3299   5.3299   5.3753   5.3753
     5.4059   5.4059   5.4284   5.4284   5.4554   5.4554   5.5281   5.5281
     5.5330   5.5330   5.5532   5.5532   5.6018   5.6019   5.6504   5.6504
     5.7218   5.7218   5.7786   5.7787   5.8224   5.8224   5.8333   5.8333
     6.0033   6.0033   6.0568   6.0569   6.0765   6.0765   6.1562   6.1563
     6.2217   6.2217   6.2560   6.2560   6.3456   6.3456   6.4163   6.4163
     6.4692   6.4692   6.5072   6.5072   6.5384   6.5384   6.5655   6.5655
     6.5961   6.5961   6.6016   6.6016   6.9845   6.9845   6.9950   6.9950
     7.0049   7.0049   7.0552   7.0552   7.1626   7.1626   7.1931   7.1931
     7.2667   7.2667   7.3459   7.3459   7.4454   7.4454   7.5280   7.5280
     7.5736   7.5736   7.6456   7.6457   7.6889   7.6889   7.7869   7.7869
     7.7929   7.7930   7.9458   7.9459   8.0259   8.0259   8.0536   8.0536
     8.1926   8.1927   8.1967   8.1967   8.2478   8.2479   8.3734   8.3734
     8.4098   8.4098   8.4341   8.4341   8.4544   8.4544   8.4939   8.4939
     8.5341   8.5341   8.5688   8.5688   8.6011   8.6012   8.6319   8.6319
     8.6871   8.6871   8.7211   8.7211   8.8465   8.8465   9.2816   9.2816
     9.7803   9.7803  10.3426  10.3426  10.9773  10.9773  11.6887  11.6887
    12.4709  12.4709  13.2877  13.2877  14.7932  14.7932  15.3829  15.3829
    16.3404  16.3405  16.8652  16.8653  17.9353  17.9354  18.0607  18.0607
    19.3020  19.3021  19.3426  19.3426

          k =-0.5000 0.4330-0.0000 ( 23522 PWs)   bands (ev):

     3.9827   3.9827   4.0665   4.0665   4.1908   4.1908   4.3313   4.3313
     4.4583   4.4583   4.5841   4.5841   4.7278   4.7278   4.8711   4.8712
     4.9741   4.9741   5.0439   5.0439   5.1002   5.1002   5.1461   5.1461
     5.2158   5.2158   5.3026   5.3026   5.3532   5.3533   5.4610   5.4611
     5.5102   5.5102   5.5943   5.5943   5.6485   5.6485   5.7495   5.7495
     5.8600   5.8600   5.9344   5.9344   5.9991   5.9992   6.0567   6.0568
     6.1223   6.1224   6.1881   6.1881   6.2382   6.2383   6.2799   6.2800
     6.3408   6.3409   6.4220   6.4220   6.4397   6.4397   6.4979   6.4979
     6.5383   6.5383   6.6343   6.6343   6.7157   6.7157   6.7612   6.7612
     6.8042   6.8042   6.8347   6.8348   6.8991   6.8991   6.9193   6.9193
     7.0199   7.0200   7.1099   7.1099   7.2287   7.2288   7.3924   7.3924
     7.5034   7.5034   7.5286   7.5286   7.5573   7.5573   7.5943   7.5944
     7.6208   7.6208   7.6930   7.6930   7.8140   7.8140   7.8552   7.8552
     8.0174   8.0174   8.1028   8.1029   8.2187   8.2187   8.2780   8.2781
     8.3672   8.3672   8.4654   8.4654   8.5118   8.5119   8.5377   8.5378
     8.5710   8.5710   8.6376   8.6376   8.6799   8.6799   8.7831   8.7831
     8.7886   8.7886   8.8320   8.8320   8.8597   8.8597   8.8830   8.8830
     8.9284   8.9284   9.0078   9.0079   9.2007   9.2007   9.6359   9.6359
    10.1830  10.1830  10.7988  10.7989  11.4714  11.4714  12.1928  12.1928
    12.9544  12.9545  13.7117  13.7117  15.4529  15.4529  15.9547  15.9547
    16.7741  16.7743  17.4248  17.4250  17.4724  17.4724  17.6974  17.6975
    17.9713  17.9714  18.1259  18.1262

          k =-0.5000 0.5774-0.0000 ( 23534 PWs)   bands (ev):

     4.0440   4.0440   4.1467   4.1467   4.3047   4.3048   4.4599   4.4599
     4.4931   4.4931   4.5213   4.5213   4.6015   4.6015   4.6413   4.6413
     4.7300   4.7300   4.7530   4.7530   4.8247   4.8247   4.8708   4.8708
     4.9442   4.9442   5.0293   5.0293   5.0985   5.0985   5.2349   5.2350
     5.2501   5.2502   5.3462   5.3462   5.5553   5.5554   5.7395   5.7395
     5.8781   5.8781   6.0485   6.0485   6.2058   6.2058   6.2756   6.2756
     6.3287   6.3287   6.3596   6.3596   6.4307   6.4307   6.4998   6.4998
     6.5459   6.5459   6.5810   6.5810   6.5943   6.5944   6.7121   6.7121
     6.7387   6.7387   6.8333   6.8334   6.9572   6.9572   7.0155   7.0155
     7.1080   7.1081   7.1857   7.1857   7.2615   7.2616   7.3104   7.3104
     7.4263   7.4263   7.5650   7.5650   7.6481   7.6481   7.7766   7.7767
     7.8284   7.8284   7.9036   7.9037   7.9341   7.9341   8.0297   8.0297
     8.1556   8.1556   8.2071   8.2071   8.2152   8.2152   8.2230   8.2230
     8.2792   8.2792   8.2856   8.2856   8.4442   8.4443   8.4883   8.4884
     8.5205   8.5205   8.5868   8.5868   8.6041   8.6042   8.6747   8.6747
     8.7400   8.7400   8.7864   8.7864   8.8214   8.8214   8.9104   8.9104
     8.9563   8.9563   9.1173   9.1173   9.2366   9.2366   9.3300   9.3300
     9.3706   9.3706   9.4548   9.4548   9.6752   9.6752  10.1170  10.1171
    10.7168  10.7168  11.4000  11.4000  12.1250  12.1251  12.8588  12.8588
    13.5810  13.5811  14.2787  14.2787  15.2939  15.2939  15.3700  15.3700
    15.5765  15.5765  15.7130  15.7130  15.9959  15.9959  16.4360  16.4360
    16.9021  16.9021  17.1987  17.1987

          k =-0.5000 0.7217-0.0000 ( 23516 PWs)   bands (ev):

     3.9909   3.9909   4.0980   4.0981   4.2632   4.2633   4.2795   4.2796
     4.3556   4.3557   4.4569   4.4569   4.4716   4.4716   4.5592   4.5592
     4.5865   4.5865   4.6347   4.6347   4.6441   4.6441   4.6928   4.6928
     4.7642   4.7642   4.8091   4.8091   4.9413   4.9413   5.0488   5.0488
     5.0770   5.0770   5.2078   5.2078   5.4783   5.4783   5.7439   5.7440
     5.9272   5.9272   6.0789   6.0790   6.1837   6.1837   6.2661   6.2661
     6.3123   6.3124   6.3732   6.3732   6.3877   6.3877   6.4726   6.4727
     6.5324   6.5324   6.6150   6.6150   6.7422   6.7422   6.8012   6.8012
     6.9153   6.9153   7.0131   7.0131   7.0805   7.0805   7.2920   7.2920
     7.3380   7.3381   7.4269   7.4269   7.5886   7.5887   7.7579   7.7579
     7.8308   7.8309   7.8895   7.8896   8.1313   8.1313   8.1470   8.1471
     8.2497   8.2497   8.4000   8.4000   8.4654   8.4655   8.5558   8.5558
     8.5635   8.5635   8.6008   8.6008   8.6568   8.6568   8.6828   8.6829
     8.6993   8.6994   8.7227   8.7228   8.7261   8.7261   8.7419   8.7420
     8.7664   8.7664   8.7805   8.7805   8.8034   8.8034   8.8474   8.8474
     8.8757   8.8757   8.9275   8.9276   9.0002   9.0002   9.0689   9.0690
     9.0776   9.0776   9.5798   9.5798   9.8239   9.8240  10.0592  10.0592
    10.2246  10.2246  10.3152  10.3152  10.4713  10.4713  10.8345  10.8345
    11.3925  11.3925  12.0561  12.0561  12.7520  12.7520  13.3456  13.3456
    13.4755  13.4755  13.5645  13.5645  13.6869  13.6869  13.9484  13.9484
    14.2530  14.2530  14.5508  14.5508  14.8669  14.8669  15.2488  15.2488
    15.6060  15.6060  15.9024  15.9024

          k =-0.5000-0.8660-0.0000 ( 23552 PWs)   bands (ev):

     3.9620   3.9621   4.0697   4.0698   4.2105   4.2105   4.2356   4.2357
     4.2908   4.2909   4.4081   4.4081   4.4338   4.4339   4.4931   4.4931
     4.5393   4.5394   4.5705   4.5705   4.6070   4.6071   4.6614   4.6614
     4.7028   4.7029   4.7059   4.7059   4.8835   4.8835   4.9889   4.9890
     5.0106   5.0106   5.1621   5.1622   5.4464   5.4465   5.7367   5.7367
     5.9483   5.9483   6.0640   6.0640   6.1652   6.1652   6.2509   6.2509
     6.3226   6.3227   6.3286   6.3286   6.3388   6.3388   6.4294   6.4294
     6.5761   6.5761   6.7419   6.7419   6.7710   6.7711   6.7826   6.7826
     7.0020   7.0021   7.0638   7.0638   7.1381   7.1381   7.2685   7.2686
     7.4907   7.4908   7.5547   7.5548   7.5764   7.5764   7.8458   7.8459
     7.9548   7.9548   8.0467   8.0468   8.1259   8.1259   8.3813   8.3814
     8.3927   8.3928   8.4895   8.4895   8.5815   8.5816   8.7010   8.7011
     8.7055   8.7055   8.7452   8.7453   8.7991   8.7992   8.8078   8.8079
     8.8230   8.8231   8.8412   8.8413   8.8466   8.8466   8.8660   8.8661
     8.8876   8.8877   8.9118   8.9119   8.9465   8.9466   8.9833   8.9834
     9.0267   9.0268   9.0300   9.0301   9.0679   9.0680   9.2244   9.2244
     9.2246   9.2247  10.2069  10.2069  10.5640  10.5641  10.9353  10.9353
    11.2455  11.2455  11.4741  11.4741  11.6294  11.6294  11.7330  11.7331
    11.8035  11.8035  11.8552  11.8552  11.8929  11.8929  11.9194  11.9194
    12.1252  12.1252  12.1254  12.1254  13.5638  13.5638  13.7387  13.7388
    14.0055  14.0056  14.2899  14.2900  14.5543  14.5543  14.8916  14.8916
    15.3583  15.3583  15.9007  15.9008

     the Fermi energy is    10.7389 ev

!    total energy              =  -20153.51491258 Ry

     total all-electron energy =   -988623.513280 Ry
     estimated scf accuracy    <          9.0E-09 Ry
     smearing contrib. (-TS)   =      -0.00037185 Ry
     internal energy E=F+TS    =  -20153.51454073 Ry

     The total energy is F=E-TS. E is the sum of the following terms:
     one-electron contribution =   -8803.91779406 Ry
     hartree contribution      =    4727.49553423 Ry
     xc contribution           =    -833.59490989 Ry
     ewald contribution        =    2761.83525010 Ry
     one-center paw contrib.   =  -18005.33262111 Ry

     convergence has been achieved in  20 iterations

     negative rho (up, down):  1.969E-03 0.000E+00

     Forces acting on atoms (cartesian axes, Ry/au):

     atom    1 type  1   force =    -0.00004271   -0.00000006   -0.00255670
     atom    2 type  1   force =     0.00005021    0.00000007    0.00250240
     atom    3 type  1   force =     0.00004548    0.00000006    0.00002812
     atom    4 type  1   force =    -0.00000138   -0.00000006    0.00005815
     atom    5 type  1   force =    -0.00004560    0.00000001   -0.00010437
     atom    6 type  1   force =     0.00000569    0.00000011    0.00407959
     atom    7 type  1   force =    -0.00008602   -0.00000027    0.00108724
     atom    8 type  1   force =     0.00007488   -0.00000008    0.00010508
     atom    9 type  1   force =     0.00000786   -0.00000012   -0.00023520
     atom   10 type  1   force =     0.00008752    0.00000014   -0.00106651
     atom   11 type  1   force =    -0.00000942   -0.00000014   -0.00406370
     atom   12 type  1   force =    -0.00001026   -0.00000004    0.00015365
     atom   13 type  1   force =    -0.00007464   -0.00000006    0.00000110
     atom   14 type  1   force =     0.00001307    0.00000024    0.00406802
     atom   15 type  1   force =    -0.00008399    0.00000003    0.00108039
     atom   16 type  1   force =     0.00007587    0.00000000    0.00010238
     atom   17 type  1   force =     0.00000872   -0.00000001   -0.00023385
     atom   18 type  1   force =     0.00008300   -0.00000000   -0.00107646
     atom   19 type  1   force =    -0.00001371   -0.00000005   -0.00405101
     atom   20 type  1   force =    -0.00000597   -0.00000000    0.00016130
     atom   21 type  1   force =    -0.00007432    0.00000003    0.00001219
     atom   22 type  1   force =    -0.00004392    0.00000011   -0.00254776
     atom   23 type  1   force =     0.00004015    0.00000003    0.00250998
     atom   24 type  1   force =     0.00004714    0.00000010    0.00002848
     atom   25 type  1   force =     0.00000054   -0.00000002    0.00005448
     atom   26 type  1   force =    -0.00004819    0.00000001   -0.00009699

     Total force =     0.009827     Total SCF correction =     0.000589
     Message from routine bfgs:
     history already reset at previous step: exiting
     Energy error            =      2.6E-06 Ry
     Gradient error          =      4.1E-03 Ry/Bohr

     bfgs converged in   6 scf cycles and   4 bfgs steps
     (criteria: energy <  1.0E-04 Ry, force <  1.0E-03 Ry/Bohr)

     End of BFGS Geometry Optimization

     Final energy             =  -20153.5149125791 Ry

     File ./pwscf.bfgs deleted, as requested
Begin final coordinates

ATOMIC_POSITIONS (angstrom)
Au            0.0000000000        0.0000000000       -0.0019177839    0   0   1
Au            5.0991277561        0.0000000000       28.8468621751    0   0   1
Au            5.0991339819        0.0000000000       21.6338514526    0   0   1
Au            5.0991389889        0.0000000000       14.4224975163    0   0   1
Au            5.0991452147        0.0000000000        7.2113750313    0   0   1
Au            1.6997150733        0.0000000000        2.4065566163    0   0   1
Au            1.6996977676        0.0000000000       24.0384385543    0   0   1
Au            1.6997039934        0.0000000000       16.8261638036    0   0   1
Au            1.6997090005        0.0000000000        9.6149458007    0   0   1
Au            3.3994301414        0.0000000000        4.8068711444    0   0   1
Au            3.3994129888        0.0000000000       26.4386243877    0   0   1
Au            3.3994189086        0.0000000000       19.2303598731    0   0   1
Au            3.3994248284        0.0000000000       12.0188952732    0   0   1
Au            4.2492909414        1.4719970299        2.4065522288    0   0   1
Au            4.2492725751        1.4719970299       24.0384352545    0   0   1
Au            4.2492788009        1.4719970299       16.8261652750    0   0   1
Au            4.2492850215        1.4719970299        9.6149468019    0   0   1
Au            0.8498539674        1.4719970299        4.8068657853    0   0   1
Au            0.8498368147        1.4719970299       26.4386324923    0   0   1
Au            0.8498428875        1.4719970299       19.2303655954    0   0   1
Au            0.8498488838        1.4719970299       12.0189022537    0   0   1
Au            2.5495761740        1.4719970299       -0.0019110580    0   0   1
Au            2.5495526478        1.4719970299       28.8468653468    0   0   1
Au            2.5495578078        1.4719970299       21.6338501292    0   0   1
Au            2.5495637276        1.4719970299       14.4224914329    0   0   1
Au            2.5495699534        1.4719970299        7.2113800937    0   0   1
End final coordinates



     Writing all to output data dir ./pwscf.save/
 
     init_run     :     22.58s CPU     23.49s WALL (       1 calls)
     electrons    :   6481.59s CPU   6546.12s WALL (       3 calls)
     update_pot   :      1.02s CPU      1.03s WALL (       2 calls)
     forces       :     24.44s CPU     24.74s WALL (       3 calls)

     Called by init_run:
     wfcinit      :     21.93s CPU     22.67s WALL (       1 calls)
     potinit      :      0.36s CPU      0.47s WALL (       1 calls)
     hinit0       :      0.19s CPU      0.24s WALL (       1 calls)

     Called by electrons:
     c_bands      :   5944.60s CPU   6000.22s WALL (      89 calls)
     sum_band     :    510.56s CPU    517.23s WALL (      89 calls)
     v_of_rho     :      1.93s CPU      2.65s WALL (      91 calls)
     newd         :      4.75s CPU      5.96s WALL (      91 calls)
     PAW_pot      :     20.69s CPU     20.83s WALL (      93 calls)
     mix_rho      :      0.37s CPU      0.43s WALL (      89 calls)

     Called by c_bands:
     init_us_2    :     23.45s CPU     23.71s WALL (    9200 calls)
     init_us_2:cp :     23.39s CPU     23.69s WALL (    9200 calls)
     cegterg      :   5743.35s CPU   5795.40s WALL (    4541 calls)

     Called by *egterg:
     cdiaghg      :    587.99s CPU    595.62s WALL (   27516 calls)
     h_psi        :   3118.26s CPU   3146.45s WALL (   27806 calls)
     s_psi        :    470.04s CPU    472.33s WALL (   27806 calls)
     g_psi        :      9.11s CPU      9.20s WALL (   23215 calls)

     Called by h_psi:
     h_psi:calbec :    482.69s CPU    485.02s WALL (   27806 calls)
     vloc_psi     :   2113.00s CPU   2133.12s WALL (   27806 calls)
     add_vuspsi   :    510.40s CPU    512.72s WALL (   27806 calls)

     General routines
     calbec       :    655.67s CPU    658.85s WALL (   32956 calls)
     fft          :      2.07s CPU      2.97s WALL (    1037 calls)
     ffts         :      0.10s CPU      0.12s WALL (      89 calls)
     fftw         :   2322.43s CPU   2342.30s WALL ( 5381252 calls)
     davcio       :      0.02s CPU      7.93s WALL (      50 calls)
 
     Parallel routines
 
     PWSCF        :      1h49m CPU      1h50m WALL

 
   This run was terminated on:  19:39:43  14Feb2024            

=------------------------------------------------------------------------------=
   JOB DONE.
=------------------------------------------------------------------------------=
