MPI startup(): Warning: I_MPI_PMI_LIBRARY will be ignored since the hydra process manager was found
MPI startup(): Warning: I_MPI_PMI_LIBRARY will be ignored since the hydra process manager was found
MPI startup(): Warning: I_MPI_PMI_LIBRARY will be ignored since the hydra process manager was found
MPI startup(): Warning: I_MPI_PMI_LIBRARY will be ignored since the hydra process manager was found
MPI startup(): Warning: I_MPI_PMI_LIBRARY will be ignored since the hydra process manager was found
MPI startup(): Warning: I_MPI_PMI_LIBRARY will be ignored since the hydra process manager was found
MPI startup(): Warning: I_MPI_PMI_LIBRARY will be ignored since the hydra process manager was found
MPI startup(): Warning: I_MPI_PMI_LIBRARY will be ignored since the hydra process manager was found
MPI startup(): Warning: I_MPI_PMI_LIBRARY will be ignored since the hydra process manager was found
MPI startup(): Warning: I_MPI_PMI_LIBRARY will be ignored since the hydra process manager was found

     Program PWSCF v.7.0 starts on 15Feb2024 at 20:24:43 

     This program is part of the open-source Quantum ESPRESSO suite
     for quantum simulation of materials; please cite
         "P. Giannozzi et al., J. Phys.:Condens. Matter 21 395502 (2009);
         "P. Giannozzi et al., J. Phys.:Condens. Matter 29 465901 (2017);
         "P. Giannozzi et al., J. Chem. Phys. 152 154105 (2020);
          URL http://www.quantum-espresso.org", 
     in publications or presentations arising from this work. More details at
     http://www.quantum-espresso.org/quote

     Parallel version (MPI), running on    10 processors

     MPI processes distributed on     1 nodes
     R & G space division:  proc/nbgrp/npool/nimage =      10
     115040 MiB available memory on the printing compute node when the environment starts
 
     Reading input from GSF111_0.1.in
Warning: card &CELL ignored
Warning: card / ignored

     Current dimensions of program PWSCF are:
     Max number of different atomic species (ntypx) = 10
     Max number of k-points (npk) =  40000
     Max angular momentum in pseudopotentials (lmaxx) =  4

     File ./pwscf.bfgs deleted, as requested
     file Au.pbe-n-kjpaw_psl.1.0.0.UPF: wavefunction(s)  6S 5D renormalized
     Found identity + ( -0.5000  0.5000  0.0000) symmetry
     This is a supercell, fractional translations are disabled

     Subspace diagonalization in iterative solution of the eigenvalue problem:
     one sub-group per band group will be used
     scalapack distributed-memory algorithm (size of sub-group:  3*  3 procs)

 
     Parallelization info
     --------------------
     sticks:   dense  smooth     PW     G-vecs:    dense   smooth      PW
     Min          85      85     25                18799    18799    3045
     Max          87      87     26                18816    18816    3065
     Sum         859     859    251               188065   188065   30575
 
     Using Slab Decomposition
 


     bravais-lattice index     =            0
     lattice parameter (alat)  =       9.6360  a.u.
     unit-cell volume          =    3935.2145 (a.u.)^3
     number of atoms/cell      =           26
     number of atomic types    =            1
     number of electrons       =       286.00
     number of Kohn-Sham states=          172
     kinetic-energy cutoff     =      50.0000  Ry
     charge density cutoff     =     200.0000  Ry
     scf convergence threshold =      1.0E-06
     mixing beta               =       0.7000
     number of iterations used =            8  plain     mixing
     Exchange-correlation= SLA  PW   PBX  PBC
                           (   1   4   3   4   0   0   0)

     celldm(1)=   9.635999  celldm(2)=   0.000000  celldm(3)=   0.000000
     celldm(4)=   0.000000  celldm(5)=   0.000000  celldm(6)=   0.000000

     crystal axes: (cart. coord. in units of alat)
               a(1) = (   1.000000   0.000000   0.000000 )  
               a(2) = (   0.000000   0.577350   0.000000 )  
               a(3) = (  -0.000005   0.000000   7.617966 )  

     reciprocal axes: (cart. coord. in units 2 pi/alat)
               b(1) = (  1.000000  0.000000  0.000001 )  
               b(2) = (  0.000000  1.732052  0.000000 )  
               b(3) = (  0.000000  0.000000  0.131269 )  


     PseudoPot. # 1 for Au read from file:
     ./Au.pbe-n-kjpaw_psl.1.0.0.UPF
     MD5 check sum: 4db85c736373c707a97ce4c36c2a9d23
     Pseudo is Projector augmented-wave + core cor, Zval = 11.0
     Generated using &quot;atomic&quot; code by A. Dal Corso  v.6.3
     Shape of augmentation charge: PSQ
     Using radial grid of 1279 points,  6 beta functions with: 
                l(1) =   0
                l(2) =   0
                l(3) =   1
                l(4) =   1
                l(5) =   2
                l(6) =   2
     Q(r) pseudized with 0 coefficients 


     atomic species   valence    mass     pseudopotential
        Au            11.00   196.96657     Au( 1.00)

     No symmetry found



   Cartesian axes

     site n.     atom                  positions (alat units)
         1           Au  tau(   1) = (   0.0000000   0.0000000   0.0000000  )
         2           Au  tau(   2) = (   0.9999954   0.0577351   5.6568550  )
         3           Au  tau(   3) = (   0.9999966   0.0577351   4.2426411  )
         4           Au  tau(   4) = (   0.9999976   0.0000000   2.8284275  )
         5           Au  tau(   5) = (   0.9999988   0.0000000   1.4142138  )
         6           Au  tau(   6) = (   0.3333329   0.0000000   0.4714045  )
         7           Au  tau(   7) = (   0.3333296   0.0577351   4.7140455  )
         8           Au  tau(   8) = (   0.3333308   0.0577351   3.2998319  )
         9           Au  tau(   9) = (   0.3333318   0.0000000   1.8856185  )
        10           Au  tau(  10) = (   0.6666659   0.0000000   0.9428093  )
        11           Au  tau(  11) = (   0.6666625   0.0577351   5.1854506  )
        12           Au  tau(  12) = (   0.6666637   0.0577351   3.7712367  )
        13           Au  tau(  13) = (   0.6666649   0.0000000   2.3570234  )
        14           Au  tau(  14) = (   0.8333330   0.2886749   0.4714045  )
        15           Au  tau(  15) = (   0.8333294   0.3464100   4.7140455  )
        16           Au  tau(  16) = (   0.8333306   0.3464100   3.2998319  )
        17           Au  tau(  17) = (   0.8333318   0.2886749   1.8856185  )
        18           Au  tau(  18) = (   0.1666658   0.2886749   0.9428093  )
        19           Au  tau(  19) = (   0.1666624   0.3464100   5.1854506  )
        20           Au  tau(  20) = (   0.1666636   0.3464100   3.7712367  )
        21           Au  tau(  21) = (   0.1666648   0.2886749   2.3570234  )
        22           Au  tau(  22) = (   0.5000001   0.2886749   0.0000000  )
        23           Au  tau(  23) = (   0.4999955   0.3464100   5.6568550  )
        24           Au  tau(  24) = (   0.4999965   0.3464100   4.2426411  )
        25           Au  tau(  25) = (   0.4999977   0.2886749   2.8284275  )
        26           Au  tau(  26) = (   0.4999989   0.2886749   1.4142138  )

     number of k points=    50  Gaussian smearing, width (Ry)=  0.0200
                       cart. coord. in units 2pi/alat
        k(    1) = (   0.0000000   0.0000000   0.0000000), wk =   0.0208333
        k(    2) = (   0.0000000   0.1443376   0.0000000), wk =   0.0416667
        k(    3) = (   0.0000000   0.2886753   0.0000000), wk =   0.0416667
        k(    4) = (   0.0000000   0.4330129   0.0000000), wk =   0.0416667
        k(    5) = (   0.0000000   0.5773506   0.0000000), wk =   0.0416667
        k(    6) = (   0.0000000   0.7216882   0.0000000), wk =   0.0416667
        k(    7) = (   0.0000000  -0.8660259   0.0000000), wk =   0.0208333
        k(    8) = (   0.1250000   0.0000000   0.0000001), wk =   0.0416667
        k(    9) = (   0.1250000   0.1443376   0.0000001), wk =   0.0416667
        k(   10) = (   0.1250000   0.2886753   0.0000001), wk =   0.0416667
        k(   11) = (   0.1250000   0.4330129   0.0000001), wk =   0.0416667
        k(   12) = (   0.1250000   0.5773506   0.0000001), wk =   0.0416667
        k(   13) = (   0.1250000   0.7216882   0.0000001), wk =   0.0416667
        k(   14) = (   0.1250000  -0.8660259   0.0000001), wk =   0.0416667
        k(   15) = (   0.2500000   0.0000000   0.0000002), wk =   0.0416667
        k(   16) = (   0.2500000   0.1443376   0.0000002), wk =   0.0416667
        k(   17) = (   0.2500000   0.2886753   0.0000002), wk =   0.0416667
        k(   18) = (   0.2500000   0.4330129   0.0000002), wk =   0.0416667
        k(   19) = (   0.2500000   0.5773506   0.0000002), wk =   0.0416667
        k(   20) = (   0.2500000   0.7216882   0.0000002), wk =   0.0416667
        k(   21) = (   0.2500000  -0.8660259   0.0000002), wk =   0.0416667
        k(   22) = (   0.3750000   0.0000000   0.0000002), wk =   0.0416667
        k(   23) = (   0.3750000   0.1443376   0.0000002), wk =   0.0416667
        k(   24) = (   0.3750000   0.2886753   0.0000002), wk =   0.0416667
        k(   25) = (   0.3750000   0.4330129   0.0000002), wk =   0.0416667
        k(   26) = (   0.3750000   0.5773506   0.0000002), wk =   0.0416667
        k(   27) = (   0.3750000   0.7216882   0.0000002), wk =   0.0416667
        k(   28) = (   0.3750000  -0.8660259   0.0000002), wk =   0.0416667
        k(   29) = (  -0.5000000   0.0000000  -0.0000003), wk =   0.0208333
        k(   30) = (  -0.5000000   0.1443376  -0.0000003), wk =   0.0416667
        k(   31) = (  -0.5000000   0.2886753  -0.0000003), wk =   0.0416667
        k(   32) = (  -0.5000000   0.4330129  -0.0000003), wk =   0.0416667
        k(   33) = (  -0.5000000   0.5773506  -0.0000003), wk =   0.0416667
        k(   34) = (  -0.5000000   0.7216882  -0.0000003), wk =   0.0416667
        k(   35) = (  -0.5000000  -0.8660259  -0.0000003), wk =   0.0208333
        k(   36) = (  -0.1250000   0.1443376  -0.0000001), wk =   0.0416667
        k(   37) = (  -0.1250000   0.2886753  -0.0000001), wk =   0.0416667
        k(   38) = (  -0.1250000   0.4330129  -0.0000001), wk =   0.0416667
        k(   39) = (  -0.1250000   0.5773506  -0.0000001), wk =   0.0416667
        k(   40) = (  -0.1250000   0.7216882  -0.0000001), wk =   0.0416667
        k(   41) = (  -0.2500000   0.1443376  -0.0000002), wk =   0.0416667
        k(   42) = (  -0.2500000   0.2886753  -0.0000002), wk =   0.0416667
        k(   43) = (  -0.2500000   0.4330129  -0.0000002), wk =   0.0416667
        k(   44) = (  -0.2500000   0.5773506  -0.0000002), wk =   0.0416667
        k(   45) = (  -0.2500000   0.7216882  -0.0000002), wk =   0.0416667
        k(   46) = (  -0.3750000   0.1443376  -0.0000002), wk =   0.0416667
        k(   47) = (  -0.3750000   0.2886753  -0.0000002), wk =   0.0416667
        k(   48) = (  -0.3750000   0.4330129  -0.0000002), wk =   0.0416667
        k(   49) = (  -0.3750000   0.5773506  -0.0000002), wk =   0.0416667
        k(   50) = (  -0.3750000   0.7216882  -0.0000002), wk =   0.0416667

     Dense  grid:   188065 G-vectors     FFT dimensions: (  45,  25, 360)

     Estimated max dynamical RAM per process >     418.32 MB

     Estimated total dynamical RAM >       4.09 GB

     Initial potential from superposition of free atoms

     starting charge     285.9971, renormalised to     286.0000

     negative rho (up, down):  2.404E-03 0.000E+00
     Starting wfcs are  234 randomized atomic wfcs
     Checking if some PAW data can be deallocated... 

     total cpu time spent up to now is       24.0 secs

     Self-consistent Calculation

     iteration #  1     ecut=    50.00 Ry     beta= 0.70
     Davidson diagonalization with overlap
     ethr =  1.00E-02,  avg # of iterations =  4.9

     Threshold (ethr) on eigenvalues was too large:
     Diagonalizing with lowered threshold

     Davidson diagonalization with overlap
     ethr =  4.16E-04,  avg # of iterations =  4.6

     negative rho (up, down):  1.631E-03 0.000E+00

     total cpu time spent up to now is      166.9 secs

     total energy              =  -20152.79245656 Ry
     estimated scf accuracy    <       1.50510944 Ry

     iteration #  2     ecut=    50.00 Ry     beta= 0.70
     Davidson diagonalization with overlap
     c_bands:  4 eigenvalues not converged
     c_bands:  2 eigenvalues not converged
     c_bands:  4 eigenvalues not converged
     c_bands:  1 eigenvalues not converged
     c_bands:  1 eigenvalues not converged
     ethr =  5.26E-04,  avg # of iterations = 16.7

     negative rho (up, down):  1.632E-03 0.000E+00

     total cpu time spent up to now is      320.0 secs

     total energy              =  -20130.01616861 Ry
     estimated scf accuracy    <    3235.75290472 Ry

     iteration #  3     ecut=    50.00 Ry     beta= 0.70
     Davidson diagonalization with overlap
     ethr =  5.26E-04,  avg # of iterations = 11.4

     negative rho (up, down):  1.845E-03 0.000E+00

     total cpu time spent up to now is      435.3 secs

     total energy              =  -20152.51830770 Ry
     estimated scf accuracy    <       3.81086088 Ry

     iteration #  4     ecut=    50.00 Ry     beta= 0.70
     Davidson diagonalization with overlap
     ethr =  5.26E-04,  avg # of iterations = 11.1

     negative rho (up, down):  1.887E-03 0.000E+00

     total cpu time spent up to now is      527.4 secs

     total energy              =  -20149.19756435 Ry
     estimated scf accuracy    <     172.55592415 Ry

     iteration #  5     ecut=    50.00 Ry     beta= 0.70
     Davidson diagonalization with overlap
     ethr =  5.26E-04,  avg # of iterations = 10.9

     negative rho (up, down):  1.878E-03 0.000E+00

     total cpu time spent up to now is      630.2 secs

     total energy              =  -20145.57715655 Ry
     estimated scf accuracy    <    1250.56596989 Ry

     iteration #  6     ecut=    50.00 Ry     beta= 0.70
     Davidson diagonalization with overlap
     ethr =  5.26E-04,  avg # of iterations = 10.3

     negative rho (up, down):  1.852E-03 0.000E+00

     total cpu time spent up to now is      710.3 secs

     total energy              =  -20153.40713638 Ry
     estimated scf accuracy    <       1.47193743 Ry

     iteration #  7     ecut=    50.00 Ry     beta= 0.70
     Davidson diagonalization with overlap
     ethr =  5.15E-04,  avg # of iterations =  2.0

     negative rho (up, down):  1.874E-03 0.000E+00

     total cpu time spent up to now is      762.7 secs

     total energy              =  -20153.47859748 Ry
     estimated scf accuracy    <       0.97832621 Ry

     iteration #  8     ecut=    50.00 Ry     beta= 0.70
     Davidson diagonalization with overlap
     ethr =  3.42E-04,  avg # of iterations =  1.5

     negative rho (up, down):  1.907E-03 0.000E+00

     total cpu time spent up to now is      812.8 secs

     total energy              =  -20153.49700426 Ry
     estimated scf accuracy    <       0.62867943 Ry

     iteration #  9     ecut=    50.00 Ry     beta= 0.70
     Davidson diagonalization with overlap
     ethr =  2.20E-04,  avg # of iterations =  1.8

     negative rho (up, down):  1.997E-03 0.000E+00

     total cpu time spent up to now is      864.4 secs

     total energy              =  -20153.50487965 Ry
     estimated scf accuracy    <       0.48891809 Ry

     iteration # 10     ecut=    50.00 Ry     beta= 0.70
     Davidson diagonalization with overlap
     ethr =  1.71E-04,  avg # of iterations =  1.3

     negative rho (up, down):  2.141E-03 0.000E+00

     total cpu time spent up to now is      912.3 secs

     total energy              =  -20153.51849223 Ry
     estimated scf accuracy    <       0.06258683 Ry

     iteration # 11     ecut=    50.00 Ry     beta= 0.70
     Davidson diagonalization with overlap
     c_bands:  1 eigenvalues not converged
     c_bands:  1 eigenvalues not converged
     c_bands:  1 eigenvalues not converged
     c_bands:  1 eigenvalues not converged
     c_bands:  2 eigenvalues not converged
     ethr =  2.19E-05,  avg # of iterations = 10.8

     negative rho (up, down):  2.211E-03 0.000E+00

     total cpu time spent up to now is      980.5 secs

     total energy              =  -20153.52066429 Ry
     estimated scf accuracy    <       0.01408670 Ry

     iteration # 12     ecut=    50.00 Ry     beta= 0.70
     Davidson diagonalization with overlap
     c_bands:  1 eigenvalues not converged
     c_bands:  1 eigenvalues not converged
     c_bands:  1 eigenvalues not converged
     ethr =  4.93E-06,  avg # of iterations = 11.3

     negative rho (up, down):  2.180E-03 0.000E+00

     total cpu time spent up to now is     1057.8 secs

     total energy              =  -20153.51660975 Ry
     estimated scf accuracy    <       0.27181388 Ry

     iteration # 13     ecut=    50.00 Ry     beta= 0.70
     Davidson diagonalization with overlap
     c_bands:  1 eigenvalues not converged
     ethr =  4.93E-06,  avg # of iterations =  9.2

     negative rho (up, down):  2.237E-03 0.000E+00

     total cpu time spent up to now is     1123.3 secs

     total energy              =  -20153.52209992 Ry
     estimated scf accuracy    <       0.02855531 Ry

     iteration # 14     ecut=    50.00 Ry     beta= 0.70
     Davidson diagonalization with overlap
     ethr =  4.93E-06,  avg # of iterations =  2.9

     negative rho (up, down):  2.214E-03 0.000E+00

     total cpu time spent up to now is     1174.3 secs

     total energy              =  -20153.52243450 Ry
     estimated scf accuracy    <       0.02101190 Ry

     iteration # 15     ecut=    50.00 Ry     beta= 0.70
     Davidson diagonalization with overlap
     c_bands:  1 eigenvalues not converged
     ethr =  4.93E-06,  avg # of iterations = 11.9

     negative rho (up, down):  2.218E-03 0.000E+00

     total cpu time spent up to now is     1243.1 secs

     total energy              =  -20153.51590059 Ry
     estimated scf accuracy    <       0.75662441 Ry

     iteration # 16     ecut=    50.00 Ry     beta= 0.70
     Davidson diagonalization with overlap
     c_bands:  1 eigenvalues not converged
     c_bands:  1 eigenvalues not converged
     ethr =  4.93E-06,  avg # of iterations = 12.1

     negative rho (up, down):  2.224E-03 0.000E+00

     total cpu time spent up to now is     1310.6 secs

     total energy              =  -20153.52334017 Ry
     estimated scf accuracy    <       0.00163235 Ry

     iteration # 17     ecut=    50.00 Ry     beta= 0.70
     Davidson diagonalization with overlap
     ethr =  5.71E-07,  avg # of iterations =  2.1

     negative rho (up, down):  2.227E-03 0.000E+00

     total cpu time spent up to now is     1361.5 secs

     total energy              =  -20153.52343812 Ry
     estimated scf accuracy    <       0.00004702 Ry

     iteration # 18     ecut=    50.00 Ry     beta= 0.70
     Davidson diagonalization with overlap
     ethr =  1.64E-08,  avg # of iterations =  6.3

     negative rho (up, down):  2.227E-03 0.000E+00

     total cpu time spent up to now is     1482.8 secs

     total energy              =  -20153.52347663 Ry
     estimated scf accuracy    <       0.00007938 Ry

     iteration # 19     ecut=    50.00 Ry     beta= 0.70
     Davidson diagonalization with overlap
     ethr =  1.64E-08,  avg # of iterations =  1.5

     negative rho (up, down):  2.230E-03 0.000E+00

     total cpu time spent up to now is     1533.5 secs

     total energy              =  -20153.52345703 Ry
     estimated scf accuracy    <       0.00037350 Ry

     iteration # 20     ecut=    50.00 Ry     beta= 0.70
     Davidson diagonalization with overlap
     ethr =  1.64E-08,  avg # of iterations =  2.0

     negative rho (up, down):  2.231E-03 0.000E+00

     total cpu time spent up to now is     1594.6 secs

     total energy              =  -20153.52345546 Ry
     estimated scf accuracy    <       0.00015163 Ry

     iteration # 21     ecut=    50.00 Ry     beta= 0.70
     Davidson diagonalization with overlap
     ethr =  1.64E-08,  avg # of iterations =  2.0

     negative rho (up, down):  2.232E-03 0.000E+00

     total cpu time spent up to now is     1649.9 secs

     total energy              =  -20153.52346689 Ry
     estimated scf accuracy    <       0.00013392 Ry

     iteration # 22     ecut=    50.00 Ry     beta= 0.70
     Davidson diagonalization with overlap
     ethr =  1.64E-08,  avg # of iterations =  1.8

     negative rho (up, down):  2.232E-03 0.000E+00

     total cpu time spent up to now is     1700.7 secs

     total energy              =  -20153.52346978 Ry
     estimated scf accuracy    <       0.00002284 Ry

     iteration # 23     ecut=    50.00 Ry     beta= 0.70
     Davidson diagonalization with overlap
     ethr =  7.99E-09,  avg # of iterations =  2.0

     negative rho (up, down):  2.232E-03 0.000E+00

     total cpu time spent up to now is     1755.6 secs

     total energy              =  -20153.52343437 Ry
     estimated scf accuracy    <       0.00289505 Ry

     iteration # 24     ecut=    50.00 Ry     beta= 0.70
     Davidson diagonalization with overlap
     ethr =  7.99E-09,  avg # of iterations =  2.0

     negative rho (up, down):  2.232E-03 0.000E+00

     total cpu time spent up to now is     1811.0 secs

     total energy              =  -20153.52347253 Ry
     estimated scf accuracy    <       0.00004483 Ry

     iteration # 25     ecut=    50.00 Ry     beta= 0.70
     Davidson diagonalization with overlap
     ethr =  7.99E-09,  avg # of iterations =  1.1

     negative rho (up, down):  2.233E-03 0.000E+00

     total cpu time spent up to now is     1857.3 secs

     total energy              =  -20153.52347446 Ry
     estimated scf accuracy    <       0.00001487 Ry

     iteration # 26     ecut=    50.00 Ry     beta= 0.70
     Davidson diagonalization with overlap
     ethr =  5.20E-09,  avg # of iterations =  1.0

     negative rho (up, down):  2.233E-03 0.000E+00

     total cpu time spent up to now is     1901.5 secs

     total energy              =  -20153.52347223 Ry
     estimated scf accuracy    <       0.00031959 Ry

     iteration # 27     ecut=    50.00 Ry     beta= 0.70
     Davidson diagonalization with overlap
     ethr =  5.20E-09,  avg # of iterations =  1.0

     negative rho (up, down):  2.233E-03 0.000E+00

     total cpu time spent up to now is     1949.2 secs

     total energy              =  -20153.52347529 Ry
     estimated scf accuracy    <       0.00000121 Ry

     iteration # 28     ecut=    50.00 Ry     beta= 0.70
     Davidson diagonalization with overlap
     ethr =  4.24E-10,  avg # of iterations =  1.9

     negative rho (up, down):  2.233E-03 0.000E+00

     total cpu time spent up to now is     2000.9 secs

     End of self-consistent calculation

          k = 0.0000 0.0000 0.0000 ( 23605 PWs)   bands (ev):

     1.5075   1.6516   1.8838   2.1896   2.5518   2.9432   3.3197   3.6228
     3.8128   3.8961   3.9229   3.9569   4.0669   4.0726   4.0729   4.2075
     4.2309   4.2877   4.4059   4.4280   4.5009   4.5333   4.5672   4.6023
     4.6616   4.6981   4.7082   4.8771   4.9810   5.0022   5.1577   5.4391
     5.7252   5.9157   5.9950   6.0493   6.1517   6.1546   6.1885   6.2355
     6.2511   6.2763   6.3080   6.3178   6.3179   6.3245   6.3470   6.3519
     6.3544   6.3628   6.3928   6.3938   6.4029   6.4058   6.4151   6.4195
     6.4318   6.4632   6.4708   6.4813   6.4888   6.5179   6.5320   6.5383
     6.5531   6.5575   6.5795   6.5849   6.5992   6.6066   6.6422   6.7313
     6.7421   6.7421   6.8173   6.8711   6.8716   6.8716   6.8721   7.0179
     7.0682   7.1367   7.1683   7.2722   7.4763   7.5062   7.5619   7.5765
     7.6384   7.6819   7.6885   7.6926   7.7039   7.7135   7.7369   7.7647
     7.7953   7.8040   7.8530   7.8643   7.8874   7.9514   8.0002   8.0065
     8.0401   8.1171   8.1662   8.1798   8.3128   8.3663   8.3799   8.3881
     8.4805   8.5170   8.5242   8.5624   8.5676   8.6166   8.6947   8.6985
     8.7038   8.7319   8.7588   8.7598   8.7735   8.7972   8.8040   8.8200
     8.8207   8.8364   8.8390   8.8605   8.8814   8.9052   8.9382   8.9641
     9.0166   9.0264   9.0826   9.2211   9.2214   9.4046  10.2042  10.5086
    10.5614  10.6299  10.9321  11.2430  11.4692  11.6249  11.7283  11.7984
    11.8513  11.8877  11.9184  12.1223  12.1226  13.5551  13.7342  13.9398
    13.9990  14.2905  14.5541  14.8663  14.8882  15.0673  15.3524  15.8993
    16.1967  16.3774  16.4617  16.4708

          k = 0.0000 0.1443 0.0000 ( 23551 PWs)   bands (ev):

     1.6600   1.8031   2.0333   2.3371   2.6975   3.0882   3.4650   3.7670
     3.9517   4.0274   4.0492   4.0806   4.1898   4.2083   4.2085   4.3027
     4.3525   4.3900   4.5180   4.5535   4.5867   4.6437   4.6613   4.7381
     4.7725   4.7994   4.8484   4.9369   5.1006   5.1269   5.2145   5.4713
     5.7263   5.8663   5.9550   5.9586   6.0501   6.0944   6.1277   6.1478
     6.1491   6.2059   6.2391   6.2477   6.2734   6.2841   6.3348   6.3518
     6.3632   6.3872   6.4006   6.4152   6.4244   6.4282   6.4481   6.4673
     6.4721   6.4739   6.4907   6.5052   6.5460   6.5474   6.5487   6.5684
     6.5832   6.5964   6.6193   6.6301   6.6357   6.6477   6.6725   6.6840
     6.6877   6.7035   6.7996   6.8038   6.8403   6.8551   6.9483   6.9561
     6.9686   6.9698   7.1510   7.2344   7.3391   7.3444   7.4338   7.4432
     7.5065   7.5740   7.5791   7.5953   7.6272   7.6830   7.7291   7.7340
     7.7608   7.7700   7.7746   7.8030   7.8396   7.9150   7.9179   7.9416
     8.0480   8.0676   8.0782   8.1010   8.1312   8.2043   8.2597   8.2735
     8.3660   8.3895   8.4349   8.4741   8.4756   8.5065   8.5205   8.5789
     8.6089   8.6289   8.6346   8.6760   8.7025   8.7119   8.7342   8.7383
     8.7512   8.7674   8.7763   8.8005   8.8421   8.8697   8.8870   8.9333
     8.9334   9.0200   9.0549   9.0840   9.3934  10.0447  10.8498  10.9166
    11.0684  11.1082  11.3122  11.5206  11.6779  11.7992  11.9009  11.9996
    12.1098  12.2363  12.3757  12.5062  12.5340  13.5594  13.7742  13.9708
    14.0754  14.3841  14.6591  14.9285  15.0229  15.1766  15.5133  16.0610
    16.1037  16.4661  16.5381  16.5645

          k = 0.0000 0.2887 0.0000 ( 23495 PWs)   bands (ev):

     2.1025   2.2408   2.4628   2.7572   3.1080   3.4921   3.8667   4.1651
     4.3328   4.3874   4.3963   4.4177   4.5159   4.5201   4.5818   4.5822
     4.6118   4.6659   4.7598   4.8650   4.8770   4.9245   4.9457   5.0247
     5.0863   5.1314   5.1479   5.2401   5.3236   5.4084   5.4783   5.6048
     5.7166   5.7523   5.7579   5.8105   5.8485   5.9001   5.9172   5.9536
     5.9952   6.0112   6.0425   6.0429   6.0637   6.0889   6.1402   6.1579
     6.1703   6.2088   6.2626   6.2806   6.3754   6.4030   6.4427   6.4811
     6.5317   6.5321   6.5645   6.6025   6.6141   6.6243   6.6499   6.6596
     6.6733   6.6837   6.6890   6.6937   6.7152   6.7342   6.7605   6.7784
     6.8113   6.8116   6.8281   6.8583   6.8619   6.9068   6.9240   6.9577
     6.9712   6.9772   7.0447   7.0932   7.1178   7.1963   7.2098   7.2233
     7.2951   7.3133   7.3407   7.3748   7.3840   7.4136   7.4569   7.4679
     7.5202   7.5536   7.6076   7.6750   7.7099   7.7720   7.7796   7.7982
     7.8587   7.9044   7.9305   7.9505   7.9543   7.9626   8.0416   8.0637
     8.1332   8.1766   8.2179   8.2463   8.3068   8.3224   8.3435   8.4461
     8.5030   8.5129   8.5223   8.5532   8.5757   8.6062   8.6151   8.6614
     8.6874   8.7103   8.7168   8.7265   8.7836   8.7927   8.8703   8.9288
     8.9433   8.9837   9.1292   9.5717  10.1688  10.8903  11.7425  11.9615
    11.9764  11.9946  12.0433  12.1200  12.1537  12.2231  12.3554  12.5205
    12.7181  12.9386  13.1603  13.3806  13.6118  13.6461  14.0111  14.1156
    14.3932  14.7081  14.9762  15.1474  15.4267  15.5069  15.6731  16.0442
    16.1731  16.6761  16.7475  16.7583

          k = 0.0000 0.4330 0.0000 ( 23423 PWs)   bands (ev):

     2.7860   2.9113   3.1098   3.3750   3.6913   4.0440   4.3999   4.6945
     4.7680   4.8422   4.8564   4.8617   4.8716   4.8751   4.9252   4.9873
     5.0052   5.0734   5.0745   5.1084   5.1818   5.2468   5.3288   5.3652
     5.3717   5.4039   5.4392   5.5040   5.5364   5.5594   5.5650   5.6026
     5.6610   5.6880   5.6934   5.7556   5.7715   5.7859   5.7867   5.7959
     5.8077   5.8218   5.8267   5.8343   5.8778   5.9086   5.9166   5.9331
     5.9679   6.0601   6.0639   6.0851   6.0873   6.1981   6.2830   6.3072
     6.3139   6.3415   6.4437   6.4797   6.5302   6.5530   6.5566   6.6254
     6.6379   6.6534   6.6867   6.7077   6.7132   6.7432   6.7512   6.7560
     6.7608   6.7640   6.8199   6.8873   6.8896   6.9688   6.9998   7.0728
     7.1059   7.1258   7.1603   7.1852   7.1862   7.2634   7.2746   7.3219
     7.3485   7.3811   7.3867   7.4018   7.4048   7.4130   7.4282   7.4480
     7.4976   7.5014   7.5227   7.5483   7.5656   7.6195   7.6271   7.6944
     7.7517   7.8200   7.8251   7.8424   7.8931   7.9071   7.9851   7.9996
     8.0005   8.0525   8.0840   8.1519   8.1623   8.2894   8.3767   8.3900
     8.4127   8.4446   8.5096   8.5170   8.5337   8.5576   8.6110   8.6318
     8.6577   8.6581   8.6765   8.7206   8.7608   8.7888   8.8095   8.8392
     8.8569   9.2176   9.6815  10.2323  10.9093  11.6816  12.5114  12.5210
    12.5744  12.6455  12.6545  12.8527  12.8888  13.1264  13.2124  13.4237
    13.5205  13.5452  13.8742  13.9960  14.2918  14.3472  14.5034  14.5411
    14.8570  15.2732  15.3347  15.5388  15.6021  15.6495  16.0090  16.0669
    16.0963  16.5089  16.6796  17.0601

          k = 0.0000 0.5774 0.0000 ( 23470 PWs)   bands (ev):

     3.6171   3.7106   3.8510   4.0407   4.2619   4.5119   4.7765   4.9738
     5.0343   5.0384   5.0614   5.1110   5.1130   5.1143   5.2088   5.2364
     5.2368   5.2574   5.2879   5.3220   5.3629   5.3658   5.3704   5.3989
     5.4210   5.4365   5.4519   5.5209   5.5255   5.5343   5.5511   5.5523
     5.5658   5.5942   5.6427   5.6567   5.6726   5.6777   5.7114   5.7222
     5.7446   5.7716   5.7747   5.7967   5.7991   5.8137   5.8327   5.9636
     5.9638   5.9941   6.0500   6.0714   6.1470   6.2082   6.2535   6.2965
     6.3307   6.3354   6.3559   6.3975   6.4025   6.4055   6.4227   6.4588
     6.4710   6.4858   6.5146   6.5368   6.5404   6.5738   6.5871   6.5894
     6.5904   6.6022   6.9640   6.9816   6.9944   7.0520   7.0524   7.0553
     7.0570   7.0573   7.1625   7.1922   7.2569   7.3433   7.4410   7.4496
     7.5015   7.5214   7.5236   7.5383   7.5454   7.5471   7.5636   7.5756
     7.5799   7.5962   7.6430   7.6534   7.6870   7.7852   7.7998   7.8226
     7.8230   7.9419   8.0230   8.0541   8.1857   8.1984   8.2462   8.3698
     8.3883   8.4062   8.4280   8.4341   8.4489   8.4551   8.4711   8.4922
     8.5250   8.5340   8.5579   8.5613   8.5787   8.5970   8.6269   8.6440
     8.6473   8.6684   8.6819   8.6890   8.7064   8.7127   8.7385   8.8455
     9.2767   9.7737  10.3394  10.9691  11.6887  12.4636  13.0507  13.1254
    13.1727  13.2759  13.2823  13.2877  13.2920  13.4696  13.5230  13.5799
    13.7417  13.7823  13.8610  13.9767  14.7883  14.9176  14.9232  15.0261
    15.3234  15.3333  15.3839  15.5413  15.8704  15.8783  16.1523  16.3369
    16.4403  16.5053  16.8575  16.9022

          k = 0.0000 0.7217 0.0000 ( 23446 PWs)   bands (ev):

     4.4222   4.4616   4.4870   4.5428   4.6159   4.7189   4.8404   4.8471
     4.9009   4.9615   4.9629   4.9927   5.0607   5.0889   5.1445   5.1867
     5.1926   5.2121   5.2445   5.2524   5.2792   5.2817   5.3586   5.3608
     5.4200   5.4423   5.4931   5.5305   5.5624   5.5783   5.6074   5.6118
     5.6132   5.6300   5.6432   5.6649   5.7119   5.7162   5.7343   5.7511
     5.7666   5.7777   5.7882   5.8034   5.8088   5.8204   5.8722   5.9221
     6.0251   6.0523   6.1153   6.1439   6.1659   6.1959   6.2185   6.2348
     6.2562   6.3051   6.3090   6.3288   6.3469   6.3602   6.3696   6.3980
     6.4208   6.4241   6.4905   6.4916   6.5831   6.6177   6.6922   6.7135
     6.7142   6.7438   6.9738   6.9749   7.0133   7.0136   7.1018   7.1394
     7.1762   7.1766   7.1773   7.2232   7.3240   7.3535   7.3713   7.4042
     7.4070   7.4359   7.4755   7.5049   7.5299   7.6042   7.6200   7.6338
     7.6551   7.6705   7.7059   7.7196   7.7930   7.8207   7.8538   7.8604
     7.9197   8.0550   8.1026   8.1227   8.2444   8.3004   8.3856   8.5254
     8.5700   8.6286   8.6640   8.6756   8.6762   8.6852   8.7116   8.7270
     8.7300   8.7534   8.7620   8.7689   8.7933   8.8050   8.8818   8.8906
     8.9248   8.9304   9.3316   9.3433   9.3554   9.4232   9.5551   9.8044
    10.2145  10.7381  11.3386  11.6985  11.8023  11.9910  12.0008  12.2655
    12.6105  12.7011  13.0187  13.4291  13.4552  13.7950  13.9492  14.0087
    14.1357  14.1482  14.3101  14.4428  14.6554  14.7306  15.0244  15.1102
    15.5426  15.6062  16.0319  16.1310  16.1712  16.3059  16.4576  16.6074
    16.7110  16.8036  17.0810  17.1164

          k = 0.0000-0.8660 0.0000 ( 23420 PWs)   bands (ev):

     4.7127   4.7127   4.7687   4.7688   4.8228   4.8228   4.8262   4.8263
     4.9123   4.9123   4.9391   4.9391   5.0274   5.0275   5.0316   5.0316
     5.1109   5.1109   5.1817   5.1817   5.2485   5.2486   5.2490   5.2490
     5.4573   5.4573   5.4726   5.4726   5.5270   5.5270   5.5586   5.5586
     5.6257   5.6258   5.6698   5.6698   5.7663   5.7663   5.7716   5.7716
     5.8688   5.8688   5.9008   5.9008   5.9171   5.9171   5.9826   5.9826
     6.0057   6.0057   6.0530   6.0530   6.1100   6.1101   6.1484   6.1484
     6.1960   6.1960   6.2540   6.2540   6.3732   6.3732   6.4134   6.4134
     6.5395   6.5395   6.5725   6.5725   6.6423   6.6423   6.7081   6.7081
     6.9844   6.9844   6.9864   6.9864   7.0310   7.0310   7.0332   7.0332
     7.2177   7.2177   7.2528   7.2529   7.3002   7.3003   7.3385   7.3386
     7.3827   7.3827   7.4734   7.4735   7.5934   7.5934   7.6328   7.6328
     7.6964   7.6965   7.7308   7.7308   7.7981   7.7981   7.8596   7.8596
     7.9310   7.9311   8.0233   8.0233   8.1997   8.1997   8.4301   8.4302
     8.6408   8.6408   8.7903   8.7904   8.8196   8.8197   8.8334   8.8335
     8.8655   8.8655   8.8826   8.8826   8.9340   8.9340   9.0237   9.0237
     9.0645   9.0645  10.4127  10.4127  10.4510  10.4510  10.5499  10.5500
    10.7041  10.7041  10.9467  10.9467  11.2852  11.2852  11.7213  11.7213
    12.2360  12.2360  12.8090  12.8090  13.4091  13.4092  14.0209  14.0209
    14.5823  14.5823  15.0224  15.0224  15.7202  15.7203  15.7327  15.7327
    15.8935  15.8935  15.9434  15.9434  16.1669  16.1669  16.2484  16.2484
    16.5002  16.5003  16.5971  16.5971

          k = 0.1250 0.0000 0.0000 ( 23563 PWs)   bands (ev):

     1.6222   1.7655   1.9963   2.3006   2.6615   3.0524   3.4292   3.7316
     3.9177   3.9536   3.9952   4.0185   4.0634   4.1747   4.1750   4.2270
     4.2506   4.3252   4.4190   4.4393   4.5414   4.5524   4.6019   4.6158
     4.6559   4.7490   4.7714   4.9200   5.0093   5.0370   5.1920   5.4651
     5.7365   5.9097   6.0023   6.0321   6.0693   6.1482   6.1736   6.1747
     6.2182   6.2329   6.2615   6.2703   6.3000   6.3354   6.3416   6.3433
     6.3586   6.3724   6.3981   6.4162   6.4169   6.4226   6.4371   6.4511
     6.4546   6.4714   6.4736   6.4881   6.5333   6.5449   6.5481   6.5588
     6.5896   6.5976   6.6144   6.6206   6.6263   6.6587   6.6614   6.6766
     6.7228   6.7683   6.8223   6.8270   6.8504   6.9323   6.9343   6.9349
     6.9996   7.0387   7.1070   7.2785   7.3717   7.4131   7.4349   7.4980
     7.5602   7.5608   7.5886   7.5991   7.6406   7.7031   7.7262   7.7586
     7.7960   7.8167   7.8298   7.8523   7.8690   7.9061   7.9369   7.9486
     8.0212   8.0984   8.1116   8.1854   8.2025   8.2357   8.3211   8.3521
     8.3676   8.4047   8.4798   8.5248   8.5327   8.5818   8.5968   8.6561
     8.6581   8.6846   8.6933   8.6964   8.7195   8.7288   8.7475   8.7645
     8.7777   8.7848   8.8063   8.8306   8.8493   8.8533   8.8654   8.9129
     8.9503   9.0042   9.1234   9.1242   9.2837   9.3417   9.6640   9.9365
     9.9439  10.1327  10.2140  10.3336  10.6906  10.8251  10.9997  11.2708
    11.9552  12.6618  13.2753  13.4531  13.5321  13.6656  13.9214  13.9623
    14.2210  14.5228  14.8372  14.9124  15.1493  15.2141  15.5776  15.8927
    16.3680  16.4434  16.5388  16.9239

          k = 0.1250 0.1443 0.0000 ( 23537 PWs)   bands (ev):

     1.7737   1.9148   2.1439   2.4452   2.8040   3.1937   3.5707   3.8720
     4.0535   4.0804   4.1218   4.1452   4.1883   4.3061   4.3064   4.3462
     4.3517   4.4291   4.5420   4.5561   4.6312   4.6763   4.6905   4.7449
     4.7918   4.8184   4.9082   4.9776   5.1284   5.1634   5.2424   5.4888
     5.7224   5.8724   5.8828   5.9851   5.9980   6.0381   6.0975   6.1055
     6.1322   6.1896   6.1929   6.2246   6.2396   6.2702   6.2726   6.2952
     6.3219   6.3533   6.3987   6.4330   6.4393   6.4650   6.4725   6.4819
     6.4909   6.5066   6.5131   6.5165   6.5455   6.5677   6.5820   6.6031
     6.6142   6.6184   6.6407   6.6564   6.6807   6.6810   6.6957   6.7102
     6.7428   6.7443   6.7573   6.7751   6.8209   6.8762   6.8879   6.9213
     7.0149   7.0160   7.1338   7.1748   7.1872   7.2311   7.3667   7.4148
     7.4596   7.5153   7.5345   7.5461   7.5507   7.5694   7.6007   7.6679
     7.7113   7.7302   7.7598   7.8141   7.8407   7.8521   7.8589   7.8836
     7.9303   7.9834   8.0346   8.0495   8.1338   8.1446   8.2160   8.2268
     8.2671   8.3248   8.3593   8.3595   8.3873   8.4705   8.4891   8.5261
     8.5362   8.5420   8.5740   8.5833   8.6133   8.6289   8.6602   8.6967
     8.7092   8.7468   8.7503   8.7640   8.7830   8.7901   8.8340   8.8948
     8.9926   9.0331   9.0990   9.1434   9.6516   9.9749  10.1385  10.3044
    10.3487  10.4399  10.5682  10.7909  11.1636  11.1709  11.4133  11.7006
    12.3308  12.9974  13.4688  13.5550  13.6541  13.7370  13.9955  14.0141
    14.3297  14.6306  14.9418  14.9789  15.2578  15.3388  15.7018  15.9363
    16.4141  16.5299  16.6420  16.9709

          k = 0.1250 0.2887 0.0000 ( 23467 PWs)   bands (ev):

     2.2098   2.3439   2.5645   2.8534   3.2003   3.5797   3.9509   4.2445
     4.4057   4.4239   4.4520   4.4938   4.5189   4.5599   4.6461   4.6582
     4.6589   4.6661   4.7839   4.8609   4.9200   4.9472   4.9725   5.0749
     5.0869   5.1167   5.1989   5.2490   5.3413   5.4200   5.4818   5.5925
     5.6142   5.6981   5.7696   5.8218   5.8508   5.8655   5.8876   5.9637
     5.9783   6.0155   6.0379   6.0466   6.0636   6.0770   6.0806   6.1003
     6.1389   6.1987   6.2255   6.2850   6.3321   6.3831   6.4723   6.4988
     6.5261   6.5458   6.5798   6.5978   6.6053   6.6177   6.6410   6.6622
     6.6732   6.6931   6.7281   6.7477   6.7580   6.7637   6.7896   6.7920
     6.8332   6.8411   6.8569   6.8723   6.8799   6.9025   6.9082   6.9697
     6.9832   7.0207   7.0212   7.0349   7.0481   7.0981   7.1802   7.1820
     7.2097   7.2240   7.2500   7.2868   7.3524   7.3573   7.4038   7.4826
     7.4951   7.5172   7.5740   7.6178   7.6727   7.6805   7.7522   7.7804
     7.7834   7.7908   7.8471   7.8683   7.9352   7.9584   7.9818   8.0608
     8.0986   8.1185   8.1442   8.2068   8.2259   8.2301   8.2629   8.2710
     8.3280   8.3735   8.4242   8.4936   8.5426   8.6492   8.6553   8.6893
     8.7552   8.7567   8.7796   8.7821   8.8162   8.8273   8.8873   8.9669
     9.0144   9.0955   9.1865   9.6988  10.3069  10.7407  10.8153  10.9282
    11.0604  11.0945  11.3310  11.6617  11.8959  12.0895  12.3750  12.6071
    13.2008  13.5931  13.7154  13.8286  13.9484  14.1565  14.1907  14.4407
    14.6897  14.9721  15.2083  15.2775  15.5897  15.6211  15.9374  16.1124
    16.4167  16.8003  16.9243  16.9638

          k = 0.1250 0.4330 0.0000 ( 23435 PWs)   bands (ev):

     2.8748   2.9907   3.1872   3.4391   3.7441   4.0776   4.4093   4.6642
     4.7849   4.7900   4.8475   4.8574   4.8646   4.8891   4.9687   4.9808
     5.0033   5.0871   5.0912   5.1010   5.1371   5.2088   5.2524   5.3395
     5.3459   5.3739   5.3821   5.4290   5.4755   5.5178   5.5988   5.6078
     5.6484   5.7050   5.7240   5.7464   5.7486   5.7669   5.7893   5.8063
     5.8295   5.8393   5.8598   5.8775   5.9242   5.9322   5.9514   5.9804
     6.0167   6.0347   6.0689   6.0927   6.2118   6.2596   6.2793   6.3493
     6.3917   6.4267   6.4702   6.4945   6.5228   6.5255   6.5635   6.5895
     6.6198   6.6356   6.6554   6.6598   6.6800   6.7030   6.7207   6.7409
     6.7612   6.7751   6.8722   6.8880   6.9562   6.9658   6.9935   7.0444
     7.1327   7.1607   7.1720   7.1982   7.1989   7.2328   7.2440   7.2894
     7.3052   7.3247   7.3416   7.3434   7.3898   7.4107   7.4402   7.4778
     7.4907   7.5333   7.5360   7.5495   7.5981   7.6160   7.6295   7.6383
     7.6596   7.7217   7.8039   7.8045   7.8519   7.9186   7.9291   7.9333
     7.9661   8.0476   8.0921   8.0974   8.1605   8.1872   8.1993   8.2876
     8.3641   8.4419   8.4871   8.5039   8.6196   8.6343   8.6781   8.7252
     8.7282   8.7460   8.7578   8.7718   8.7966   8.8290   8.8757   8.9370
     9.0192   9.2259   9.7268  10.3189  10.9944  11.3651  11.4590  11.6259
    11.7854  11.8680  12.1841  12.5803  12.6525  13.0362  13.5146  13.5798
    13.7782  13.9390  14.2004  14.2907  14.5291  14.6071  14.6620  14.8201
    15.1615  15.3266  15.4899  15.6600  15.6711  15.8637  16.1164  16.1576
    16.3432  16.6639  16.8153  17.2521

          k = 0.1250 0.5774 0.0000 ( 23447 PWs)   bands (ev):

     3.6505   3.7277   3.8781   4.0457   4.2496   4.4619   4.6787   4.8592
     4.8615   4.9200   4.9530   4.9673   4.9842   5.0399   5.0698   5.0761
     5.1122   5.1166   5.2077   5.2089   5.2224   5.2345   5.3092   5.3273
     5.3893   5.4331   5.4385   5.4504   5.4524   5.4884   5.5383   5.5395
     5.5925   5.6046   5.6688   5.6875   5.7009   5.7367   5.7551   5.7628
     5.7712   5.7833   5.7986   5.8533   5.8932   5.9341   5.9402   5.9573
     6.0028   6.0710   6.0938   6.1236   6.1496   6.1515   6.2639   6.2707
     6.3078   6.4010   6.4344   6.4595   6.5015   6.5223   6.5301   6.5629
     6.5838   6.5940   6.6075   6.6118   6.6423   6.6766   6.7007   6.7324
     6.7541   6.7685   6.8651   6.8857   6.9528   6.9693   6.9771   7.0866
     7.1947   7.2511   7.2552   7.2755   7.3014   7.3526   7.3856   7.4192
     7.4358   7.4642   7.5017   7.5176   7.5396   7.5504   7.6010   7.6255
     7.6322   7.6485   7.7167   7.7168   7.7677   7.7736   7.9000   7.9094
     7.9205   7.9634   8.0733   8.0896   8.1610   8.2094   8.2375   8.2446
     8.3355   8.3452   8.3956   8.4300   8.4549   8.4559   8.4754   8.5084
     8.5222   8.5562   8.5603   8.5978   8.6233   8.6330   8.6429   8.6637
     8.6930   8.7244   8.7441   8.7597   8.7640   8.8185   8.8215   8.8982
     9.2569   9.7778  10.3693  11.0294  11.7448  12.0657  12.1917  12.4032
    12.5318  12.6946  13.0446  13.2790  13.3315  13.4189  13.4532  13.6659
    13.9132  14.0343  14.1770  14.2845  14.3995  14.5901  14.8670  15.0786
    15.1962  15.4404  15.4456  15.6779  15.8247  15.9302  16.2393  16.2999
    16.3906  16.7434  16.9037  16.9627

          k = 0.1250 0.7217 0.0000 ( 23455 PWs)   bands (ev):

     4.2577   4.3174   4.4645   4.5494   4.6003   4.6626   4.7272   4.7387
     4.7405   4.8015   4.8210   4.8598   4.9180   4.9551   4.9720   5.0244
     5.0649   5.0941   5.0978   5.1195   5.1953   5.2083   5.2448   5.2625
     5.2636   5.2975   5.3095   5.3434   5.4202   5.4215   5.4538   5.4613
     5.5082   5.5834   5.6000   5.6263   5.6641   5.7210   5.7264   5.7656
     5.7922   5.8254   5.8364   5.8639   5.8967   5.9165   5.9537   6.0119
     6.0348   6.0742   6.0915   6.1611   6.2419   6.2560   6.2610   6.2933
     6.3360   6.3462   6.3707   6.4341   6.4836   6.4892   6.5231   6.6117
     6.6391   6.6588   6.7500   6.7752   6.7773   6.7916   6.8271   6.8386
     6.9095   6.9167   6.9537   7.0214   7.0224   7.0371   7.0858   7.1004
     7.1892   7.1911   7.2568   7.2663   7.3666   7.4106   7.4860   7.4981
     7.5329   7.5385   7.5875   7.6363   7.6500   7.6555   7.7090   7.7334
     7.7478   7.7968   7.8543   7.8775   7.9210   7.9311   8.0403   8.0499
     8.0572   8.1720   8.2302   8.2414   8.3333   8.3386   8.4433   8.5545
     8.5678   8.5684   8.5891   8.6511   8.6598   8.6623   8.6978   8.7385
     8.7458   8.7736   8.7737   8.8014   8.8061   8.8504   8.8891   8.8930
     8.9248   8.9373   9.2598   9.3196   9.3534   9.4002   9.5222   9.7633
    10.1807  10.7250  11.3484  11.7807  11.8733  12.0300  12.0609  12.3066
    12.6368  12.7407  13.0241  13.0709  13.2118  13.4309  13.4798  13.5070
    13.7294  14.0078  14.0723  14.1681  14.4645  14.5771  14.8273  15.1445
    15.2385  15.5452  15.7240  15.9069  15.9996  16.2670  16.3236  16.4914
    16.5423  16.6468  16.8202  16.9771

          k = 0.1250-0.8660 0.0000 ( 23492 PWs)   bands (ev):

     4.5048   4.5444   4.6031   4.6095   4.6240   4.6687   4.7247   4.7323
     4.7431   4.7586   4.8458   4.8721   4.9195   4.9229   5.0055   5.0055
     5.0605   5.0718   5.1126   5.1189   5.1305   5.1325   5.1550   5.1587
     5.2269   5.2345   5.2904   5.2939   5.3386   5.3394   5.3740   5.3788
     5.4760   5.4762   5.5740   5.5905   5.6407   5.6430   5.7345   5.7377
     5.8268   5.8389   5.9182   5.9265   5.9397   5.9643   6.0067   6.0227
     6.0510   6.0546   6.0803   6.0867   6.1631   6.1767   6.2474   6.2504
     6.4206   6.4214   6.4361   6.4508   6.5967   6.6025   6.6322   6.6394
     6.7092   6.7262   6.7541   6.7579   6.8447   6.8459   6.8823   6.8914
     6.9121   6.9208   6.9637   6.9851   7.0675   7.0737   7.1256   7.1685
     7.2280   7.2568   7.3199   7.3446   7.4344   7.4486   7.4876   7.4907
     7.5339   7.5526   7.6142   7.6335   7.7166   7.7185   7.7866   7.8217
     7.8608   7.8648   7.9049   7.9283   7.9875   7.9946   8.0090   8.0207
     8.0855   8.1041   8.1396   8.1546   8.2435   8.2454   8.4389   8.4419
     8.6364   8.6435   8.7329   8.7441   8.7864   8.7870   8.8050   8.8272
     8.8611   8.8674   8.8954   8.9243   8.9364   8.9452   9.0245   9.0247
     9.0607   9.0688  10.4087  10.4109  10.4556  10.4576  10.5541  10.5543
    10.6975  10.7025  10.9294  10.9329  11.2572  11.2648  11.6918  11.6999
    12.2175  12.2223  12.8119  12.8135  13.4134  13.4450  13.9869  14.0028
    14.4374  14.4492  14.6396  14.6418  14.7910  14.8272  15.0031  15.0312
    15.2453  15.2548  15.4563  15.4756  15.8013  15.8166  15.8975  15.9401
    16.2346  16.2362  16.5784  16.5957

          k = 0.2500 0.0000 0.0000 ( 23536 PWs)   bands (ev):

     1.9574   2.0972   2.3225   2.6202   2.9748   3.3615   3.7369   3.9045
     4.0119   4.0359   4.1711   4.2088   4.2694   4.2875   4.3522   4.3588
     4.4082   4.4603   4.4607   4.4743   4.5053   4.6073   4.6831   4.7380
     4.7635   4.8688   4.9122   5.0285   5.1067   5.1330   5.2991   5.5417
     5.7814   5.8090   5.9105   5.9165   5.9225   6.0392   6.0547   6.0826
     6.1104   6.1480   6.1564   6.1799   6.2043   6.2232   6.2858   6.2926
     6.3379   6.3792   6.3942   6.4097   6.4486   6.4730   6.4985   6.5135
     6.5255   6.5557   6.5597   6.5803   6.5856   6.6030   6.6236   6.6332
     6.6467   6.6706   6.6977   6.6987   6.7114   6.7233   6.7278   6.7512
     6.7838   6.8061   6.8179   6.8385   6.8492   6.8593   6.8933   6.9141
     6.9794   7.0315   7.0926   7.1027   7.1075   7.2388   7.2634   7.2917
     7.3172   7.3846   7.4131   7.4593   7.4911   7.5260   7.5523   7.5748
     7.6487   7.6516   7.6880   7.7145   7.7413   7.8093   7.8247   7.8597
     7.9279   7.9803   7.9813   8.0254   8.0412   8.1216   8.1978   8.2134
     8.2258   8.2970   8.3060   8.3471   8.3622   8.3931   8.4017   8.4176
     8.4529   8.4706   8.5008   8.5318   8.5318   8.5525   8.5699   8.5776
     8.6074   8.6183   8.6321   8.6696   8.6731   8.7194   8.7799   8.7917
     8.8059   8.8350   8.8421   8.8820   8.9178   8.9223   8.9392   8.9436
     9.1067   9.3879   9.6961   9.9605  10.3980  10.6711  11.1425  11.5066
    11.8427  11.9029  12.6619  13.4006  14.0581  14.1263  15.0686  15.1110
    15.3262  15.3972  15.5108  15.6019  15.9131  16.3530  16.6463  16.7754
    16.8132  17.1129  17.4051  17.7925

          k = 0.2500 0.1443 0.0000 ( 23484 PWs)   bands (ev):

     2.1045   2.2408   2.4640   2.7570   3.1084   3.4925   3.8681   4.0397
     4.1443   4.1672   4.3011   4.3368   4.3880   4.4062   4.4565   4.4888
     4.5186   4.5814   4.5818   4.5988   4.6370   4.7246   4.7650   4.8211
     4.8683   4.9435   5.0312   5.0903   5.2285   5.2419   5.3422   5.5452
     5.7322   5.7461   5.8031   5.8700   5.9000   5.9158   6.0142   6.0408
     6.0484   6.0524   6.0880   6.1248   6.1370   6.1643   6.2098   6.2294
     6.2750   6.3414   6.3660   6.3692   6.4042   6.4390   6.4591   6.4718
     6.5147   6.5412   6.5656   6.5846   6.6011   6.6067   6.6112   6.6294
     6.6496   6.6683   6.6934   6.6969   6.7155   6.7465   6.7592   6.7652
     6.7857   6.8183   6.8261   6.8324   6.8667   6.9029   6.9305   6.9497
     6.9684   6.9825   7.0208   7.0923   7.1037   7.1958   7.2066   7.2127
     7.2621   7.3007   7.3178   7.3361   7.3968   7.4278   7.4477   7.4683
     7.5110   7.5548   7.6148   7.6554   7.7131   7.7637   7.7845   7.8147
     7.8344   7.8463   7.8995   7.9271   7.9365   7.9814   8.0148   8.0282
     8.1364   8.1615   8.1954   8.2005   8.2125   8.2222   8.2773   8.2862
     8.3044   8.4273   8.4505   8.4735   8.5186   8.5251   8.5629   8.5842
     8.6038   8.6684   8.7111   8.7209   8.7372   8.7675   8.7929   8.8419
     8.9051   8.9749   9.1109   9.1329   9.2308   9.3241   9.3695   9.4520
     9.5975   9.6686  10.1072  10.1763  10.7065  10.9183  11.3909  11.7436
    12.1146  12.1635  12.8542  13.5728  14.1085  14.2881  15.1482  15.2907
    15.3727  15.5044  15.5714  15.7092  16.0006  16.4373  16.7402  16.8739
    16.9029  17.1976  17.4649  17.8207

          k = 0.2500 0.2887 0.0000 ( 23496 PWs)   bands (ev):

     2.5204   2.6461   2.8581   3.1321   3.4642   3.8279   4.1874   4.4041
     4.4690   4.4899   4.6098   4.6245   4.6524   4.6571   4.7209   4.7336
     4.7934   4.8357   4.8778   4.8800   4.9259   4.9852   5.0438   5.0930
     5.1040   5.2025   5.2472   5.3082   5.3815   5.4480   5.4677   5.5797
     5.6089   5.6207   5.7203   5.7376   5.7799   5.8297   5.8890   5.9088
     5.9178   5.9289   5.9552   6.0105   6.0115   6.0556   6.0913   6.1032
     6.1215   6.1227   6.1706   6.2144   6.2403   6.3334   6.3621   6.3673
     6.4266   6.4661   6.4990   6.5155   6.5625   6.5676   6.5732   6.6280
     6.6398   6.6571   6.6750   6.6895   6.6959   6.7440   6.7715   6.8032
     6.8288   6.8298   6.8498   6.8743   6.9018   6.9280   6.9471   6.9548
     6.9857   7.0012   7.0175   7.0391   7.1041   7.1325   7.1415   7.1538
     7.1755   7.2150   7.2405   7.2682   7.2848   7.3426   7.3562   7.3611
     7.4296   7.4383   7.4768   7.5412   7.5418   7.5766   7.6232   7.6780
     7.7157   7.7458   7.7462   7.7988   7.8350   7.8351   7.8869   7.9084
     7.9368   7.9704   8.0053   8.0659   8.0903   8.1559   8.1701   8.2174
     8.2456   8.3794   8.3824   8.4684   8.6126   8.6149   8.6453   8.6981
     8.7638   8.7694   8.7847   8.7932   8.8358   8.8646   8.9363   8.9892
     9.0042   9.0682   9.4558   9.7998   9.8500   9.9079  10.0063  10.0153
    10.1798  10.4658  10.6534  10.8818  11.4083  11.4366  12.0170  12.2870
    12.6706  12.9635  13.3627  14.0240  14.3288  14.6852  15.4069  15.5153
    15.6749  15.8413  15.8594  16.0021  16.2487  16.6343  17.0034  17.0454
    17.2100  17.2804  17.5427  17.6063

          k = 0.2500 0.4330 0.0000 ( 23431 PWs)   bands (ev):

     3.1245   3.2248   3.4089   3.6303   3.9007   4.1853   4.4599   4.6550
     4.7622   4.7686   4.7796   4.8152   4.8243   4.8771   4.9229   4.9473
     4.9897   5.0303   5.0308   5.1144   5.1235   5.1522   5.1633   5.1968
     5.2490   5.2495   5.3103   5.4300   5.4599   5.4766   5.5264   5.5642
     5.5833   5.6250   5.6788   5.7095   5.7585   5.7881   5.8184   5.8588
     5.8700   5.8878   5.9142   5.9250   5.9621   5.9879   6.0034   6.0462
     6.0611   6.1089   6.1346   6.1462   6.1893   6.2003   6.2414   6.2787
     6.3710   6.3883   6.4108   6.4826   6.5294   6.5527   6.5687   6.5804
     6.6265   6.6479   6.6482   6.6706   6.6918   6.6990   6.7068   6.7548
     6.8010   6.8514   6.9027   6.9384   6.9672   6.9840   6.9862   7.0309
     7.0324   7.1244   7.1842   7.1863   7.2036   7.2416   7.2555   7.2623
     7.3093   7.3302   7.3419   7.3791   7.4090   7.4556   7.4657   7.4912
     7.5296   7.5581   7.5992   7.6094   7.6229   7.6272   7.6613   7.6955
     7.7041   7.7299   7.7918   7.7933   7.8131   7.8587   7.8913   7.9312
     7.9718   8.0247   8.0432   8.0607   8.1130   8.1723   8.2107   8.2570
     8.3779   8.3929   8.4279   8.5695   8.6352   8.6882   8.7806   8.8053
     8.8212   8.8236   8.8357   8.8516   8.8546   8.8712   8.9617   9.0221
     9.1033   9.3321   9.8999  10.4053  10.4518  10.5418  10.5474  10.7084
    10.9489  11.2304  11.2876  11.7198  12.0332  12.2293  12.8006  12.8725
    13.3893  14.0055  14.0196  14.5607  14.8452  15.0718  15.7026  15.8095
    15.8838  15.9033  15.9336  16.1727  16.2553  16.4314  16.5280  16.5974
    16.9312  17.0060  17.4040  17.4385

          k = 0.2500 0.5774 0.0000 ( 23466 PWs)   bands (ev):

     3.7240   3.7951   3.9577   4.0990   4.2568   4.3903   4.5248   4.6343
     4.6425   4.6914   4.7164   4.7569   4.7573   4.8347   4.8823   4.9011
     4.9072   4.9981   5.0010   5.0455   5.0528   5.1230   5.1261   5.1821
     5.1989   5.2213   5.2249   5.2543   5.2818   5.3393   5.3667   5.4079
     5.4308   5.4852   5.5291   5.6295   5.6724   5.6809   5.7614   5.8177
     5.8525   5.8600   5.8952   5.9473   5.9543   5.9620   6.0019   6.0860
     6.1166   6.1886   6.2510   6.2669   6.3111   6.3950   6.4247   6.4566
     6.4793   6.4949   6.5301   6.5675   6.5891   6.6185   6.6378   6.6412
     6.6528   6.7185   6.7658   6.7675   6.7890   6.8161   6.8517   6.9102
     6.9228   6.9707   6.9954   7.0083   7.0854   7.0959   7.1628   7.1696
     7.2770   7.2783   7.3286   7.3410   7.3944   7.4834   7.4844   7.5145
     7.5242   7.5464   7.5514   7.6431   7.6616   7.7383   7.7842   7.8177
     7.8849   7.8862   7.9134   7.9337   7.9531   7.9638   7.9936   8.0592
     8.0651   8.0789   8.0814   8.1174   8.1213   8.1307   8.1953   8.2008
     8.2646   8.3039   8.3448   8.3560   8.4121   8.4431   8.4595   8.4869
     8.4957   8.5413   8.5764   8.6297   8.6949   8.6980   8.7408   8.7476
     8.7532   8.8230   8.8244   8.8569   8.8625   8.9262   8.9831   9.0608
     9.2323   9.8302  10.4854  11.0607  11.1364  11.1944  11.2736  11.4801
    11.7614  11.9178  12.1319  12.5812  12.7094  13.0949  13.4733  13.5973
    13.7411  13.8572  14.0750  14.3011  14.4119  14.7610  15.0177  15.0556
    15.1516  15.4581  15.6359  15.7300  15.8719  16.1730  16.4071  16.5410
    16.6529  17.0914  17.2514  17.4154

          k = 0.2500 0.7217 0.0000 ( 23545 PWs)   bands (ev):

     4.0651   4.1421   4.3199   4.4084   4.4184   4.4905   4.5138   4.5183
     4.5376   4.5861   4.6107   4.6427   4.6608   4.7289   4.7526   4.7680
     4.8212   4.8625   4.8660   4.8685   4.9234   4.9334   4.9447   5.0151
     5.0401   5.0823   5.0905   5.1325   5.1491   5.2271   5.2425   5.2431
     5.3163   5.3439   5.4081   5.4831   5.5511   5.6036   5.7264   5.7286
     5.7644   5.8621   5.8733   5.9431   5.9977   6.0167   6.0432   6.1486
     6.1789   6.2458   6.2684   6.3423   6.3490   6.3965   6.4061   6.4730
     6.5389   6.5461   6.5600   6.5957   6.6509   6.6679   6.6958   6.7251
     6.7514   6.8096   6.8166   6.8415   6.9458   6.9634   7.0178   7.0655
     7.1088   7.1143   7.1942   7.2163   7.2733   7.2875   7.2971   7.3715
     7.4060   7.4172   7.5545   7.5691   7.6441   7.6793   7.7512   7.7971
     7.8247   7.8995   7.9053   7.9256   7.9527   7.9581   8.0149   8.0723
     8.1440   8.1762   8.2048   8.2155   8.2253   8.2378   8.2733   8.2958
     8.3224   8.3410   8.4349   8.4713   8.4807   8.5308   8.5320   8.5572
     8.5803   8.5836   8.5968   8.6071   8.6627   8.6801   8.6894   8.7053
     8.7383   8.7768   8.7871   8.8226   8.8796   8.9057   8.9281   8.9464
     8.9517   8.9789   9.1183   9.2298   9.3291   9.3600   9.4487   9.6651
    10.1095  10.7150  11.4004  11.9397  11.9781  11.9983  12.0524  12.1287
    12.1394  12.2355  12.3741  12.5336  12.7500  12.8678  12.9508  13.1999
    13.3850  13.5214  13.6132  13.7218  13.9928  14.2788  14.3346  14.6936
    14.9277  15.3000  15.3583  15.3828  15.5640  15.7210  15.7304  15.9929
    16.0125  16.1849  16.4461  16.6298

          k = 0.2500-0.8660 0.0000 ( 23532 PWs)   bands (ev):

     4.2117   4.2494   4.3319   4.3323   4.4234   4.4623   4.4789   4.5036
     4.5370   4.5383   4.6473   4.6635   4.6996   4.7009   4.7343   4.7389
     4.7993   4.7997   4.8109   4.8115   4.8947   4.9042   4.9078   4.9149
     4.9499   4.9534   5.0436   5.0483   5.0724   5.0726   5.2305   5.2341
     5.3046   5.3105   5.3287   5.3296   5.5209   5.5227   5.6897   5.6909
     5.8280   5.8513   5.9576   5.9768   6.0523   6.0576   6.1178   6.1299
     6.1628   6.1679   6.2255   6.2344   6.4235   6.4258   6.4610   6.4658
     6.5348   6.5487   6.5724   6.5853   6.6464   6.6669   6.7076   6.7147
     6.7726   6.7932   6.8821   6.9029   7.0069   7.0164   7.0772   7.0903
     7.1637   7.1742   7.3036   7.3142   7.3614   7.3711   7.4322   7.4481
     7.5018   7.5173   7.6599   7.6846   7.6949   7.6968   7.8952   7.9151
     7.9186   7.9459   8.0618   8.0628   8.0903   8.1011   8.1015   8.1140
     8.2600   8.2622   8.3110   8.3403   8.3529   8.3617   8.3918   8.3938
     8.3998   8.4106   8.4299   8.4398   8.4693   8.4747   8.5266   8.5337
     8.6509   8.6628   8.6963   8.7094   8.7523   8.7565   8.7875   8.8071
     8.8286   8.8384   8.9016   8.9151   8.9700   8.9707   9.0304   9.0321
     9.0599   9.0731  10.3851  10.3928  10.4803  10.4859  10.6039  10.6089
    10.7282  10.7428  10.9179  10.9257  11.1979  11.2162  11.6039  11.6242
    12.1237  12.1414  12.7236  12.7539  13.3613  13.3791  13.5216  13.5414
    13.6438  13.6447  13.7797  13.8350  13.9204  14.0022  14.1351  14.1659
    14.4205  14.5243  14.7545  14.7953  15.0357  15.1195  15.4596  15.4952
    15.7896  15.8063  15.9642  15.9719

          k = 0.3750 0.0000 0.0000 ( 23492 PWs)   bands (ev):

     2.4808   2.6117   2.8221   3.1004   3.4324   3.6628   3.7627   3.7970
     3.9101   4.0797   4.1544   4.2369   4.3694   4.4332   4.4953   4.5690
     4.6072   4.6257   4.6850   4.7184   4.8471   4.8492   4.8537   4.9037
     4.9794   5.0175   5.1047   5.1871   5.2258   5.3217   5.4800   5.5128
     5.6194   5.6700   5.7671   5.8174   5.8658   5.8966   5.9185   5.9407
     5.9655   5.9739   6.0368   6.0720   6.1015   6.1222   6.1405   6.2024
     6.2917   6.3361   6.3697   6.4098   6.4201   6.4753   6.4903   6.5139
     6.5201   6.5599   6.5609   6.5893   6.5898   6.6147   6.6347   6.6460
     6.6620   6.6901   6.6936   6.6989   6.7497   6.7707   6.8124   6.8137
     6.8248   6.8442   6.8881   6.9090   6.9151   6.9313   6.9472   6.9665
     6.9980   7.0014   7.0148   7.0596   7.1109   7.1230   7.1374   7.1830
     7.1995   7.2061   7.2442   7.3097   7.3145   7.3428   7.3884   7.4260
     7.4882   7.4927   7.5265   7.5374   7.6166   7.6186   7.6481   7.6627
     7.6661   7.7517   7.7737   7.7862   7.8786   7.8936   7.9497   7.9625
     7.9704   7.9855   8.0098   8.0312   8.0351   8.0510   8.0674   8.0675
     8.0817   8.1267   8.1794   8.1957   8.2276   8.2349   8.2680   8.3221
     8.3518   8.3584   8.3884   8.4368   8.4631   8.5276   8.5522   8.5866
     8.6287   8.6793   8.7208   8.7997   8.8270   8.8494   8.8851   8.9380
     9.1622   9.4048   9.7720   9.9531  10.4339  10.6030  11.1311  11.3649
    11.8671  12.2443  12.6391  12.8820  13.4450  14.3195  14.9626  15.3786
    15.6121  15.8216  16.4897  16.9814  17.1951  17.2640  17.4258  17.6116
    17.7861  17.9647  18.2639  18.7129

          k = 0.3750 0.1443 0.0000 ( 23495 PWs)   bands (ev):

     2.6227   2.7485   2.9559   3.2272   3.5545   3.8058   3.9022   3.9159
     4.0406   4.2017   4.2770   4.3485   4.4784   4.5674   4.6119   4.7086
     4.7325   4.7468   4.7907   4.8415   4.9541   4.9598   4.9611   4.9833
     5.0526   5.1125   5.1979   5.2751   5.3454   5.4122   5.5047   5.5204
     5.6364   5.6510   5.6694   5.7773   5.7868   5.8111   5.8506   5.8797
     5.9003   5.9240   5.9327   6.0013   6.0300   6.0318   6.0766   6.1182
     6.1374   6.2164   6.2573   6.2629   6.3040   6.3441   6.3760   6.4191
     6.4333   6.4382   6.4945   6.4996   6.5497   6.5530   6.5550   6.5889
     6.6138   6.6383   6.6758   6.6879   6.6911   6.6974   6.7156   6.7318
     6.7820   6.7970   6.8275   6.8379   6.8574   6.9131   6.9418   6.9873
     7.0219   7.0265   7.0700   7.0777   7.1444   7.1522   7.1764   7.2112
     7.2247   7.2799   7.2935   7.3139   7.3211   7.3591   7.3790   7.3962
     7.4229   7.4346   7.4708   7.4799   7.5041   7.5704   7.6071   7.6639
     7.7115   7.7278   7.7385   7.7674   7.7809   7.8287   7.9034   7.9137
     7.9470   7.9621   8.0399   8.0572   8.0706   8.0890   8.1596   8.1845
     8.2220   8.2540   8.2952   8.3091   8.3944   8.4070   8.4222   8.4695
     8.4943   8.5099   8.5433   8.5497   8.6192   8.6433   8.6628   8.6914
     8.7075   8.7120   8.7567   8.7587   8.7911   8.8377   8.9337   9.1145
     9.3918   9.5583   9.9566  10.1071  10.5911  10.7558  11.2742  11.5339
    12.0101  12.4033  12.7745  13.1438  13.5752  14.4054  15.1835  15.4793
    15.7747  15.9247  16.6195  17.0985  17.2754  17.3482  17.4560  17.6441
    17.8872  18.0394  18.3007  18.7608

          k = 0.3750 0.2887 0.0000 ( 23497 PWs)   bands (ev):

     3.0111   3.1213   3.3129   3.5559   3.8539   4.1821   4.1936   4.2663
     4.3517   4.4550   4.5185   4.5534   4.6724   4.7975   4.8159   4.9234
     4.9696   4.9764   5.0710   5.1046   5.1855   5.1913   5.1925   5.2296
     5.2651   5.3326   5.3706   5.3732   5.4236   5.4976   5.5136   5.5849
     5.6085   5.6262   5.6300   5.6868   5.7153   5.7318   5.7403   5.7569
     5.7783   5.8159   5.8494   5.8654   5.9016   5.9046   5.9620   5.9699
     5.9725   5.9877   6.0600   6.0890   6.1306   6.2115   6.2127   6.2645
     6.2843   6.3186   6.3310   6.3576   6.3962   6.4197   6.4327   6.4521
     6.4607   6.5334   6.5432   6.5793   6.6065   6.6189   6.6479   6.6996
     6.7102   6.7191   6.7375   6.7410   6.7889   6.8701   6.8942   6.9437
     6.9575   6.9955   7.0314   7.1159   7.1843   7.2337   7.2496   7.2759
     7.3024   7.3239   7.3337   7.3684   7.3717   7.4013   7.4274   7.4344
     7.4878   7.5158   7.5244   7.5934   7.5965   7.6249   7.6469   7.6527
     7.6900   7.6992   7.7138   7.7635   7.8592   7.9007   7.9454   7.9589
     7.9720   8.0944   8.0993   8.1248   8.1364   8.1449   8.1896   8.2249
     8.2694   8.3248   8.4025   8.5052   8.5273   8.5506   8.5761   8.6124
     8.6259   8.6730   8.6838   8.6893   8.7018   8.7610   8.8287   8.8967
     8.9296   9.0548   9.1017   9.1070   9.1629   9.2701   9.3534   9.4906
     9.8526   9.9013  10.4282  10.4503  11.0308  11.1252  11.6875  11.9226
    12.4141  12.7743  13.1534  13.8111  13.9185  14.7184  15.7694  15.7822
    16.2067  16.2596  16.9532  17.3873  17.4763  17.5190  17.5877  17.7808
    18.0680  18.1317  18.3492  18.6424

          k = 0.3750 0.4330 0.0000 ( 23475 PWs)   bands (ev):

     3.5162   3.5955   3.7591   3.9340   4.1490   4.3645   4.4446   4.5276
     4.5752   4.6112   4.6893   4.7108   4.7337   4.7472   4.8429   4.8480
     4.9522   4.9643   5.0362   5.0739   5.1155   5.1507   5.1714   5.2164
     5.2274   5.2434   5.3030   5.3198   5.3328   5.3550   5.4117   5.4681
     5.5163   5.5848   5.5974   5.6253   5.7049   5.7187   5.7367   5.8317
     5.8524   5.8698   5.9019   5.9666   5.9726   5.9836   6.0813   6.0960
     6.1033   6.1069   6.1729   6.1969   6.2159   6.2357   6.2523   6.2978
     6.2995   6.3276   6.3418   6.3788   6.4015   6.4741   6.5028   6.5361
     6.6015   6.6133   6.6255   6.6380   6.6806   6.7019   6.7585   6.7687
     6.8185   6.8769   6.8781   6.8836   6.9246   6.9667   6.9674   6.9737
     7.0037   7.0329   7.1090   7.1306   7.1876   7.2660   7.2738   7.3732
     7.3829   7.4170   7.4524   7.5040   7.5195   7.5621   7.5743   7.5835
     7.6404   7.6607   7.6686   7.6919   7.7041   7.7634   7.7864   7.8309
     7.9012   7.9174   7.9238   7.9586   7.9771   8.0048   8.0389   8.0905
     8.1410   8.1794   8.2028   8.2379   8.2993   8.3425   8.3532   8.3892
     8.4116   8.4221   8.4929   8.5868   8.6224   8.6824   8.6921   8.7611
     8.7736   8.7772   8.7846   8.8007   8.8261   8.8864   8.9462   9.0189
     9.1162   9.5640   9.5910   9.6218   9.6464   9.7071   9.8616  10.1317
    10.2457  10.5393  10.9172  11.0562  11.6228  11.6543  12.2953  12.4222
    13.0067  13.2157  13.7006  14.4141  14.6649  15.2928  16.2549  16.2663
    16.5435  16.6118  16.7242  16.8650  17.0628  17.0876  17.3965  17.5170
    17.7029  17.7234  17.9519  18.0761

          k = 0.3750 0.5774 0.0000 ( 23521 PWs)   bands (ev):

     3.8579   3.9312   4.1055   4.2415   4.3017   4.3428   4.3954   4.4147
     4.4635   4.5533   4.5591   4.5713   4.6341   4.6752   4.7473   4.7666
     4.7777   4.8076   4.8650   4.8694   4.8923   4.9357   4.9439   4.9624
     5.0184   5.0290   5.0480   5.1095   5.1495   5.1739   5.1868   5.2234
     5.3155   5.3822   5.3857   5.4315   5.5493   5.6042   5.6795   5.8155
     5.8263   5.9319   5.9584   6.0185   6.0968   6.1102   6.1427   6.1724
     6.2331   6.3129   6.3378   6.3649   6.4037   6.4571   6.4805   6.5207
     6.5378   6.5386   6.5646   6.5682   6.6115   6.6510   6.7193   6.7277
     6.7524   6.7662   6.8006   6.8209   6.8816   6.8825   6.9795   7.0122
     7.0129   7.0851   7.0962   7.1152   7.1432   7.2415   7.2623   7.3044
     7.3739   7.3883   7.4738   7.5325   7.5806   7.6576   7.6586   7.7328
     7.7476   7.7511   7.8199   7.8271   7.9199   7.9453   7.9887   8.0089
     8.0490   8.0721   8.0801   8.1161   8.1509   8.1982   8.2045   8.2054
     8.2389   8.2506   8.2514   8.2680   8.3050   8.3191   8.3307   8.3319
     8.3435   8.3607   8.4254   8.4288   8.4734   8.5028   8.5391   8.5758
     8.5897   8.6182   8.6335   8.6874   8.6974   8.7478   8.7639   8.7846
     8.8370   8.8438   8.8691   8.9002   8.9006   8.9659   9.0172   9.0893
     9.4140  10.0657  10.0799  10.1392  10.2235  10.3464  10.5304  10.7857
    10.8296  11.2499  11.5323  11.7794  12.2669  12.4004  13.0435  13.0509
    13.7048  13.7708  14.2253  14.4925  14.6440  14.8775  14.9585  15.2881
    15.2893  15.4948  15.7862  15.8695  16.2379  16.3720  16.4923  16.7147
    16.7528  16.9663  17.1608  17.2561

          k = 0.3750 0.7217 0.0000 ( 23544 PWs)   bands (ev):

     3.9736   4.0562   4.1330   4.2382   4.2544   4.2863   4.3730   4.3757
     4.4036   4.4104   4.4530   4.4649   4.5572   4.5806   4.5913   4.6009
     4.6215   4.6417   4.6759   4.7028   4.7039   4.7277   4.7957   4.8054
     4.8213   4.8539   4.8677   4.9431   4.9712   4.9831   5.0574   5.0858
     5.1592   5.2038   5.2376   5.2618   5.4909   5.4976   5.7259   5.7436
     5.8683   5.9195   5.9788   6.0560   6.0743   6.1450   6.1781   6.2199
     6.2634   6.3422   6.3559   6.3747   6.4167   6.4533   6.4743   6.4747
     6.4943   6.5112   6.6026   6.6477   6.6521   6.7169   6.7405   6.8038
     6.8303   6.8495   6.9097   7.0063   7.0502   7.1407   7.1586   7.2156
     7.2464   7.2884   7.3728   7.4343   7.5092   7.5583   7.5771   7.6364
     7.7394   7.7783   7.8246   7.8493   7.8864   7.9949   8.0249   8.0788
     8.1526   8.2004   8.2411   8.3079   8.3177   8.3705   8.3803   8.4166
     8.4648   8.4706   8.4820   8.5291   8.5448   8.5465   8.5597   8.5737
     8.5938   8.6120   8.6165   8.6192   8.6451   8.6575   8.6577   8.6972
     8.6999   8.7092   8.7114   8.7292   8.7315   8.7453   8.7658   8.7888
     8.7964   8.8412   8.8643   8.8930   8.9090   8.9518   8.9919   8.9926
     9.0200   9.0320   9.0899   9.1761   9.4007   9.4973   9.5464   9.7021
    10.1743  10.7239  10.8473  10.8885  11.0436  11.2174  11.3798  11.5885
    11.6141  11.9226  12.2719  12.3776  12.5766  12.7358  12.9221  13.0281
    13.1280  13.2082  13.4589  13.8320  13.8398  14.1108  14.2926  14.3484
    14.4805  14.4836  14.6667  14.7444  14.8954  15.1396  15.2359  15.6079
    15.6227  16.0306  16.0730  16.2370

          k = 0.3750-0.8660 0.0000 ( 23556 PWs)   bands (ev):

     4.0092   4.0480   4.1346   4.1350   4.2584   4.2824   4.2882   4.3138
     4.3580   4.3596   4.4624   4.4734   4.5039   4.5072   4.5470   4.5516
     4.6059   4.6104   4.6206   4.6220   4.6793   4.6926   4.7240   4.7274
     4.7425   4.7487   4.8080   4.8155   4.9206   4.9242   5.0567   5.0585
     5.0833   5.0839   5.1938   5.1940   5.4597   5.4603   5.7170   5.7302
     5.8998   5.9072   6.0005   6.0422   6.1279   6.1325   6.1936   6.2005
     6.2593   6.2765   6.3410   6.3693   6.4047   6.4079   6.4623   6.4731
     6.5426   6.5430   6.6323   6.6334   6.6887   6.6951   6.7810   6.7879
     6.9128   6.9262   6.9879   7.0179   7.1083   7.1132   7.2596   7.2811
     7.3760   7.3775   7.4326   7.4368   7.5949   7.6106   7.7634   7.7867
     7.8302   7.8362   7.9014   7.9151   8.1437   8.1495   8.1875   8.1925
     8.2164   8.2252   8.4275   8.4333   8.4499   8.4805   8.5461   8.5524
     8.5636   8.5747   8.6095   8.6155   8.6516   8.6604   8.6737   8.6813
     8.6988   8.7034   8.7378   8.7424   8.7559   8.7585   8.7669   8.7797
     8.7872   8.8003   8.8170   8.8230   8.8525   8.8551   8.8690   8.8785
     8.9066   8.9213   8.9487   8.9623   9.0149   9.0259   9.0848   9.0889
     9.0937   9.1005  10.2865  10.3309  10.5238  10.5325  10.7625  10.7898
    10.9499  10.9757  11.0992  11.1137  11.2465  11.2823  11.5011  11.5426
    11.8633  11.8964  12.2275  12.2937  12.5136  12.5370  12.6489  12.7297
    12.7912  12.7965  12.8286  12.9298  13.4315  13.6370  13.7736  13.7991
    14.0149  14.1631  14.3788  14.4202  14.6333  14.7410  15.0090  15.0899
    15.4542  15.5973  15.8711  15.9582

          k =-0.5000 0.0000-0.0000 ( 23442 PWs)   bands (ev):

     3.1137   3.1137   3.2262   3.2262   3.4036   3.4036   3.6338   3.6338
     3.9017   3.9018   4.1882   4.1882   4.4609   4.4609   4.6543   4.6543
     4.7590   4.7590   4.8758   4.8758   5.0074   5.0074   5.1314   5.1315
     5.1648   5.1649   5.2144   5.2144   5.3108   5.3108   5.4470   5.4471
     5.5813   5.5813   5.7084   5.7084   5.8149   5.8150   5.8808   5.8808
     5.9211   5.9211   5.9862   5.9862   6.0423   6.0423   6.1356   6.1356
     6.1988   6.1988   6.2466   6.2466   6.3798   6.3798   6.4563   6.4563
     6.5314   6.5314   6.5858   6.5858   6.6266   6.6267   6.6696   6.6696
     6.6817   6.6818   6.6911   6.6911   6.7073   6.7074   6.7404   6.7404
     6.8057   6.8057   6.8685   6.8685   6.8996   6.8997   6.9493   6.9493
     6.9888   6.9888   7.1461   7.1461   7.1850   7.1850   7.1885   7.1886
     7.2316   7.2317   7.2697   7.2697   7.3404   7.3404   7.4088   7.4088
     7.4394   7.4394   7.4943   7.4943   7.5420   7.5420   7.5573   7.5573
     7.6069   7.6069   7.6215   7.6215   7.6638   7.6638   7.7010   7.7010
     7.7945   7.7945   7.8247   7.8247   7.8931   7.8931   7.9713   7.9713
     8.0334   8.0334   8.0672   8.0672   8.1058   8.1059   8.1639   8.1639
     8.2422   8.2422   8.3710   8.3710   8.3996   8.3996   8.5638   8.5638
     8.6891   8.6891   8.8167   8.8167   8.8243   8.8243   8.8622   8.8622
     9.3248   9.3249   9.8895   9.8895  10.5150  10.5151  11.2165  11.2166
    11.9987  11.9988  12.8744  12.8744  13.9801  13.9801  14.8612  14.8613
    15.8727  15.8729  16.4448  16.4463  17.4149  17.4157  17.8136  17.8141
    19.1499  19.1501  19.3079  19.3084

          k =-0.5000 0.1443-0.0000 ( 23476 PWs)   bands (ev):

     3.2494   3.2548   3.3604   3.3610   3.5301   3.5323   3.7530   3.7550
     4.0149   4.0157   4.2991   4.3006   4.5818   4.5825   4.7942   4.8019
     4.8998   4.9009   5.0084   5.0094   5.1324   5.1330   5.2130   5.2199
     5.2768   5.2791   5.2905   5.3001   5.3710   5.3752   5.4878   5.4942
     5.5941   5.6058   5.6709   5.6859   5.7392   5.7407   5.7538   5.7639
     5.8401   5.8457   5.8586   5.8619   5.9394   5.9411   5.9910   6.0037
     6.0405   6.0640   6.0734   6.0761   6.2255   6.2406   6.3602   6.3916
     6.4491   6.4624   6.4658   6.4846   6.5138   6.5210   6.5459   6.5782
     6.5927   6.6074   6.6223   6.6376   6.6594   6.6611   6.6738   6.6810
     6.7005   6.7125   6.7232   6.7307   6.7645   6.7722   6.8908   6.8962
     6.9751   6.9810   7.0745   7.0789   7.1678   7.1764   7.2964   7.2982
     7.3557   7.3577   7.3740   7.3793   7.3910   7.3912   7.4101   7.4235
     7.4456   7.4833   7.4989   7.5093   7.5729   7.5817   7.6373   7.6526
     7.6994   7.7032   7.7658   7.7684   7.7816   7.7906   7.8337   7.8475
     7.8629   7.8710   7.9317   7.9437   8.0757   8.0764   8.0935   8.0950
     8.1529   8.1670   8.1924   8.2079   8.2290   8.2402   8.2921   8.2955
     8.3008   8.3030   8.3478   8.3523   8.4337   8.4409   8.5543   8.5684
     8.6323   8.6622   8.7139   8.7155   8.7456   8.7521   9.0045   9.0194
     9.4623   9.4876  10.0068  10.0321  10.6243  10.6541  11.3365  11.3523
    12.1159  12.1392  12.9897  12.9949  14.1994  14.2133  14.9862  15.0003
    15.9933  15.9959  16.5389  16.5478  17.5521  17.5699  17.8693  17.8759
    19.2074  19.2161  19.3829  19.4025

          k =-0.5000 0.2887-0.0000 ( 23540 PWs)   bands (ev):

     3.6085   3.6278   3.7093   3.7118   3.8487   3.8559   4.0363   4.0443
     4.2597   4.2649   4.5066   4.5170   4.7715   4.7817   5.0368   5.0394
     5.2300   5.2438   5.2766   5.3009   5.3196   5.3366   5.3665   5.3727
     5.3996   5.4005   5.4199   5.4295   5.4520   5.4565   5.5122   5.5143
     5.5271   5.5280   5.5429   5.5633   5.5917   5.6030   5.6451   5.6476
     5.7115   5.7198   5.7672   5.7783   5.8118   5.8174   5.8258   5.8351
     5.9848   6.0016   6.0445   6.0539   6.0709   6.0727   6.1409   6.1506
     6.2013   6.2206   6.2420   6.2518   6.3248   6.3420   6.3946   6.4142
     6.4432   6.4466   6.4959   6.5095   6.5319   6.5327   6.5536   6.5823
     6.5892   6.5898   6.5917   6.6325   6.9610   6.9627   6.9718   6.9854
     7.0003   7.0123   7.0480   7.0515   7.1406   7.1764   7.1914   7.2052
     7.2562   7.2678   7.3311   7.3561   7.4208   7.4688   7.5221   7.5330
     7.5753   7.5783   7.6411   7.6430   7.6822   7.6970   7.7756   7.7788
     7.8007   7.8162   7.9373   7.9482   8.0189   8.0238   8.0504   8.0537
     8.1649   8.1901   8.1996   8.2129   8.2399   8.2522   8.3673   8.3679
     8.4002   8.4105   8.4265   8.4277   8.4448   8.4573   8.4900   8.4922
     8.5171   8.5289   8.5421   8.5770   8.5974   8.5978   8.6240   8.6336
     8.6816   8.6828   8.7033   8.7249   8.8417   8.8464   9.2674   9.2865
     9.7587   9.7910  10.3204  10.3567  10.9463  10.9974  11.6752  11.7009
    12.4438  12.4887  13.2847  13.2982  14.7730  14.8076  15.3711  15.3953
    16.3304  16.3459  16.8425  16.8700  17.8999  17.9530  18.0544  18.0635
    19.2747  19.2928  19.3309  19.3844

          k =-0.5000 0.4330-0.0000 ( 23522 PWs)   bands (ev):

     3.9531   4.0026   4.0605   4.0650   4.1754   4.1993   4.3105   4.3350
     4.4404   4.4636   4.5686   4.5926   4.7160   4.7336   4.8613   4.8695
     4.9628   4.9782   5.0331   5.0455   5.0901   5.1034   5.1375   5.1445
     5.2067   5.2124   5.2915   5.3012   5.3399   5.3497   5.4535   5.4543
     5.5022   5.5070   5.5867   5.5885   5.6194   5.6604   5.7381   5.7490
     5.8503   5.8509   5.9233   5.9363   5.9968   5.9974   6.0459   6.0499
     6.1100   6.1277   6.1694   6.1753   6.2246   6.2335   6.2785   6.2828
     6.3275   6.3302   6.3797   6.4019   6.4480   6.4532   6.4818   6.5005
     6.5362   6.5535   6.6176   6.6433   6.7088   6.7139   6.7381   6.7653
     6.7817   6.8053   6.8390   6.8410   6.8807   6.9036   6.9199   6.9230
     7.0123   7.0209   7.1065   7.1132   7.2209   7.2296   7.3879   7.3880
     7.4735   7.4775   7.5180   7.5223   7.5545   7.5546   7.5783   7.6023
     7.6101   7.6168   7.6925   7.7031   7.8165   7.8198   7.8497   7.8544
     8.0152   8.0186   8.0949   8.1119   8.2137   8.2200   8.2726   8.2741
     8.3617   8.3693   8.4587   8.4627   8.5046   8.5099   8.5326   8.5359
     8.5675   8.5690   8.6310   8.6330   8.6519   8.6916   8.7758   8.7771
     8.7844   8.7884   8.8146   8.8436   8.8554   8.8600   8.8751   8.8795
     8.9238   8.9258   9.0036   9.0040   9.1958   9.1987   9.6234   9.6398
    10.1617  10.1936  10.7773  10.8127  11.4333  11.4956  12.1767  12.2062
    12.9192  12.9816  13.7038  13.7244  15.4232  15.4829  15.9351  15.9662
    16.7593  16.7877  17.3321  17.4084  17.4832  17.5453  17.6767  17.7067
    17.9477  17.9820  18.1235  18.1259

          k =-0.5000 0.5774-0.0000 ( 23534 PWs)   bands (ev):

     4.0157   4.0640   4.1418   4.1433   4.2840   4.3190   4.4173   4.4649
     4.4902   4.4948   4.5180   4.5185   4.5865   4.6105   4.6293   4.6425
     4.7219   4.7296   4.7481   4.7577   4.8213   4.8227   4.8648   4.8675
     4.9329   4.9448   5.0157   5.0334   5.0922   5.0930   5.2271   5.2298
     5.2426   5.2445   5.3368   5.3414   5.5393   5.5513   5.7205   5.7289
     5.8591   5.8755   6.0281   6.0494   6.1719   6.1942   6.2242   6.2836
     6.3231   6.3346   6.3588   6.3614   6.4206   6.4326   6.4902   6.4933
     6.5305   6.5401   6.5679   6.5702   6.6057   6.6149   6.6983   6.7127
     6.7426   6.7474   6.8224   6.8419   6.9493   6.9545   7.0159   7.0197
     7.0967   7.1081   7.1782   7.1874   7.2553   7.2728   7.2945   7.3241
     7.4178   7.4290   7.5600   7.5605   7.6394   7.6577   7.7515   7.7835
     7.8229   7.8275   7.8990   7.8998   7.9254   7.9289   8.0241   8.0279
     8.1333   8.1504   8.1765   8.2017   8.2116   8.2134   8.2195   8.2214
     8.2683   8.2732   8.2822   8.2933   8.4377   8.4392   8.4780   8.4813
     8.5233   8.5289   8.5816   8.5844   8.5982   8.6049   8.6681   8.6735
     8.7350   8.7351   8.7738   8.7877   8.7977   8.8334   8.9050   8.9067
     8.9361   8.9721   9.1161   9.1181   9.2305   9.2315   9.3216   9.3287
     9.3579   9.3755   9.4492   9.4553   9.6695   9.6770  10.1122  10.1172
    10.7022  10.7242  11.3867  11.4087  12.0867  12.1477  12.8415  12.8704
    13.5406  13.6187  14.2691  14.2865  15.2872  15.2995  15.3542  15.3846
    15.5638  15.5807  15.7070  15.7222  15.9756  16.0029  16.4153  16.4402
    16.8926  16.8976  17.1921  17.1979

          k =-0.5000 0.7217-0.0000 ( 23516 PWs)   bands (ev):

     3.9660   4.0077   4.0932   4.0938   4.2427   4.2576   4.2767   4.2866
     4.3527   4.3538   4.4374   4.4459   4.4746   4.4748   4.5506   4.5578
     4.5774   4.5816   4.6274   4.6291   4.6411   4.6503   4.6886   4.6891
     4.7542   4.7608   4.8052   4.8141   4.9342   4.9371   5.0414   5.0416
     5.0697   5.0700   5.2010   5.2016   5.4675   5.4688   5.7203   5.7355
     5.9025   5.9199   6.0404   6.0919   6.1629   6.1820   6.2253   6.2475
     6.3109   6.3170   6.3484   6.3555   6.3967   6.4082   6.4666   6.4697
     6.5129   6.5205   6.6193   6.6419   6.7294   6.7518   6.8036   6.8048
     6.9001   6.9200   7.0073   7.0173   7.0756   7.0892   7.2689   7.2828
     7.3321   7.3361   7.4327   7.4412   7.5787   7.5868   7.7308   7.7658
     7.8304   7.8348   7.8771   7.8999   8.1150   8.1211   8.1477   8.1588
     8.2474   8.2530   8.3946   8.4027   8.4548   8.4585   8.5411   8.5505
     8.5586   8.5623   8.5944   8.5966   8.6437   8.6481   8.6655   8.6690
     8.6982   8.7015   8.7098   8.7165   8.7284   8.7303   8.7390   8.7394
     8.7556   8.7639   8.7769   8.7862   8.7985   8.7989   8.8364   8.8378
     8.8683   8.8723   8.9186   8.9271   8.9785   9.0156   9.0649   9.0655
     9.0700   9.0813   9.5661   9.5995   9.8160   9.8181  10.0436  10.0658
    10.2004  10.2244  10.2986  10.3233  10.4567  10.4883  10.8241  10.8487
    11.3888  11.3970  12.0470  12.0722  12.7418  12.7507  13.3107  13.3789
    13.4687  13.4738  13.5411  13.5868  13.6292  13.7434  13.9296  13.9558
    14.1896  14.3033  14.5289  14.5668  14.8161  14.9123  15.2089  15.2823
    15.5716  15.6001  15.8673  15.9139

          k =-0.5000-0.8660-0.0000 ( 23552 PWs)   bands (ev):

     3.9384   3.9776   4.0648   4.0652   4.1940   4.2135   4.2185   4.2450
     4.2883   4.2900   4.3914   4.4008   4.4310   4.4342   4.4867   4.4943
[...]
     5.6153   5.6276   5.7178   5.7822   5.8032   5.8155   5.8942   5.9019
     5.9113   5.9294   5.9597   6.0172   6.0186   6.0450   6.0967   6.1120
     6.1182   6.1405   6.1771   6.2360   6.2692   6.3403   6.3582   6.3892
     6.4314   6.4718   6.5100   6.5125   6.5263   6.5630   6.5803   6.6266
     6.6366   6.6547   6.6843   6.6955   6.7143   6.7330   6.7720   6.7946
     6.8075   6.8278   6.8560   6.8727   6.9045   6.9249   6.9525   6.9809
     6.9831   6.9907   7.0094   7.0491   7.0917   7.1163   7.1400   7.1756
     7.1775   7.2349   7.2609   7.2785   7.2846   7.3411   7.3595   7.3659
     7.4427   7.4497   7.4952   7.5477   7.5647   7.5805   7.6273   7.6737
     7.6972   7.7395   7.7532   7.7681   7.8210   7.8270   7.8927   7.8986
     7.9368   7.9725   7.9816   8.0449   8.0902   8.1618   8.1640   8.2076
     8.2513   8.3843   8.3913   8.4625   8.6227   8.6320   8.6759   8.6908
     8.7628   8.7698   8.7970   8.8208   8.8377   8.8788   8.8995   8.9778
     8.9918   9.0135   9.4313   9.8062   9.8489   9.9045   9.9511  10.0007
    10.1765  10.4680  10.6274  10.8924  11.3677  11.4276  12.0383  12.2851
    12.6988  12.9295  13.3684  14.0443  14.3539  14.6436  15.3996  15.4903
    15.6775  15.8509  15.8531  16.0080  16.2148  16.6035  17.0199  17.0251
    17.2185  17.2695  17.5342  17.6108

          k =-0.2500 0.4330-0.0000 ( 23431 PWs)   bands (ev):

     3.0998   3.2269   3.3962   3.6372   3.9019   4.1916   4.4611   4.6443
     4.6998   4.7393   4.7430   4.8210   4.8279   4.8685   4.9081   4.9236
     4.9845   5.0251   5.0565   5.1067   5.1339   5.1592   5.1954   5.2281
     5.2492   5.2502   5.3144   5.4579   5.4661   5.4707   5.5270   5.5579
     5.5856   5.6303   5.6626   5.7112   5.7521   5.7827   5.8181   5.8674
     5.9099   5.9117   5.9230   5.9282   5.9876   5.9922   6.0195   6.0334
     6.0433   6.1102   6.1454   6.1552   6.1992   6.2107   6.2394   6.2595
     6.3807   6.3942   6.4152   6.4994   6.5266   6.5439   6.5805   6.5807
     6.6190   6.6420   6.6570   6.6837   6.6977   6.6998   6.7288   6.7499
     6.8073   6.8612   6.8948   6.9645   6.9844   6.9856   7.0164   7.0288
     7.0325   7.1240   7.1670   7.1829   7.1883   7.2267   7.2638   7.2710
     7.2986   7.3310   7.3413   7.3847   7.4085   7.4229   7.4790   7.4840
     7.5543   7.5563   7.6011   7.6195   7.6255   7.6437   7.6550   7.6984
     7.7024   7.7378   7.7728   7.8025   7.8378   7.8581   7.8906   7.9208
     7.9738   8.0233   8.0347   8.0566   8.1014   8.1594   8.1922   8.2378
     8.3875   8.4017   8.4318   8.5579   8.6452   8.7280   8.7893   8.8058
     8.8101   8.8217   8.8500   8.8687   8.8804   8.8837   8.9178   9.0259
     9.0504   9.3030   9.8739  10.4047  10.4485  10.4744  10.5444  10.7025
    10.9469  11.2027  11.2880  11.7279  11.9596  12.2484  12.8209  12.8753
    13.4328  13.9532  14.0161  14.6006  14.8729  14.9531  15.6463  15.7396
    15.8618  15.8936  15.9525  16.1563  16.2537  16.4533  16.4851  16.6124
    16.9946  17.0730  17.4284  17.4720

          k =-0.2500 0.5774-0.0000 ( 23466 PWs)   bands (ev):

     3.6731   3.7988   3.9293   4.1171   4.2706   4.4090   4.5321   4.6273
     4.6322   4.6452   4.7202   4.7376   4.7580   4.8444   4.8768   4.8782
     4.9106   4.9983   5.0099   5.0434   5.0593   5.1205   5.1333   5.1831
     5.2061   5.2072   5.2283   5.2610   5.2818   5.3462   5.3763   5.4080
     5.4302   5.4855   5.5336   5.6148   5.6641   5.6893   5.7637   5.8226
     5.8426   5.8468   5.9270   5.9467   5.9565   5.9856   6.0117   6.0900
     6.1267   6.1930   6.2659   6.2785   6.3192   6.3988   6.4104   6.4520
     6.4939   6.5112   6.5463   6.5725   6.6097   6.6285   6.6409   6.6432
     6.6707   6.7167   6.7370   6.7710   6.8102   6.8216   6.8688   6.9115
     6.9217   6.9549   6.9769   7.0054   7.0900   7.1117   7.1379   7.1761
     7.2496   7.2838   7.3316   7.3342   7.4507   7.4700   7.5050   7.5166
     7.5229   7.5414   7.5553   7.6252   7.6573   7.7278   7.7936   7.8316
     7.8599   7.8898   7.9085   7.9283   7.9545   7.9893   8.0006   8.0594
     8.0657   8.0703   8.0730   8.1120   8.1139   8.1354   8.1914   8.2060
     8.2564   8.3079   8.3346   8.3572   8.4183   8.4420   8.4569   8.4806
     8.5050   8.5396   8.5745   8.6529   8.6963   8.7003   8.7479   8.7486
     8.7886   8.8249   8.8275   8.8739   8.8746   8.8887   8.9860   9.0148
     9.2269   9.8085  10.4651  11.0573  11.1327  11.1335  11.2707  11.4721
    11.7577  11.8917  12.1262  12.5795  12.6392  13.1025  13.4785  13.6409
    13.7079  13.8657  14.0424  14.3402  14.4007  14.7284  14.9884  15.0152
    15.1217  15.4773  15.6595  15.6887  15.8727  16.2121  16.4142  16.5072
    16.6864  17.2019  17.2704  17.4744

          k =-0.2500 0.7217-0.0000 ( 23545 PWs)   bands (ev):

     4.0142   4.1431   4.2833   4.4350   4.4652   4.4856   4.4939   4.5181
     4.5226   4.6105   4.6130   4.6285   4.6786   4.7199   4.7455   4.7530
     4.8234   4.8625   4.8675   4.8734   4.9246   4.9423   4.9451   5.0115
     5.0200   5.0910   5.0963   5.1295   5.1502   5.2300   5.2437   5.2453
     5.3210   5.3366   5.4081   5.4795   5.5442   5.6037   5.7202   5.7301
     5.7754   5.8585   5.8612   5.9492   6.0001   6.0311   6.0339   6.1665
     6.1786   6.2785   6.2872   6.3024   6.3610   6.4068   6.4379   6.5090
     6.5326   6.5367   6.5800   6.6028   6.6414   6.6734   6.6968   6.7100
     6.7533   6.8078   6.8445   6.8457   6.9428   6.9829   7.0151   7.0229
     7.0992   7.1091   7.1688   7.2311   7.2505   7.2789   7.3228   7.3876
     7.4080   7.4393   7.5392   7.5704   7.6434   7.6699   7.7496   7.7906
     7.8253   7.8981   7.8989   7.9382   7.9480   7.9508   8.0372   8.0659
     8.1335   8.1728   8.1821   8.2106   8.2181   8.2668   8.2688   8.2900
     8.3225   8.3536   8.4419   8.4848   8.4925   8.5141   8.5347   8.5512
     8.5755   8.5840   8.5984   8.6372   8.6635   8.6704   8.6838   8.7338
     8.7526   8.7767   8.7838   8.8044   8.8754   8.9055   8.9257   8.9418
     8.9421   8.9562   9.1207   9.2341   9.3257   9.3734   9.4514   9.6756
    10.1163  10.7093  11.3953  11.9510  11.9926  12.0153  12.0397  12.0939
    12.1179  12.2149  12.3406  12.5093  12.6899  12.8451  12.9263  13.1226
    13.3715  13.5440  13.5473  13.7417  14.0308  14.2808  14.4533  14.7234
    15.0317  15.2873  15.3788  15.4573  15.5654  15.5805  15.7086  15.9690
    16.1014  16.1597  16.4126  16.6873

          k =-0.3750 0.1443-0.0000 ( 23495 PWs)   bands (ev):

     2.6177   2.7488   2.9532   3.2281   3.5542   3.8070   3.9016   3.9157
     4.0409   4.1999   4.2745   4.3469   4.4763   4.5613   4.6118   4.7003
     4.7373   4.7432   4.7777   4.8408   4.9472   4.9598   4.9610   4.9778
     5.0526   5.1114   5.1871   5.2754   5.3450   5.4154   5.5036   5.5365
     5.6361   5.6616   5.7026   5.7833   5.7926   5.8153   5.8283   5.8770
     5.8811   5.9207   5.9517   6.0015   6.0163   6.0319   6.0836   6.1126
     6.1605   6.2218   6.2289   6.2699   6.2846   6.3763   6.3901   6.4248
     6.4322   6.4753   6.4907   6.5144   6.5292   6.5378   6.5591   6.5968
     6.6335   6.6364   6.6578   6.6915   6.6990   6.7005   6.7204   6.7492
     6.7797   6.7977   6.8034   6.8466   6.8878   6.8931   6.9389   6.9813
     7.0369   7.0441   7.0645   7.0799   7.1204   7.1581   7.1627   7.2154
     7.2225   7.2851   7.2943   7.3152   7.3571   7.3575   7.3802   7.3991
     7.4324   7.4640   7.4658   7.4855   7.5363   7.5630   7.5964   7.6488
     7.6906   7.7201   7.7229   7.7676   7.7762   7.8256   7.8897   7.9085
     7.9115   7.9796   8.0270   8.0330   8.0576   8.1037   8.1889   8.1952
     8.2174   8.2518   8.2737   8.2982   8.3845   8.4041   8.4301   8.4672
     8.4942   8.5210   8.5514   8.5915   8.6113   8.6241   8.6641   8.6916
     8.7057   8.7160   8.7510   8.7526   8.7938   8.8175   8.9409   9.0919
     9.4096   9.5345   9.9793  10.0688  10.6138  10.7375  11.2964  11.4995
    12.0216  12.4031  12.7895  13.1269  13.5640  14.4219  15.1914  15.4769
    15.7634  15.9317  16.6178  17.1161  17.2780  17.3401  17.4414  17.6439
    17.8705  18.0344  18.3012  18.7507

          k =-0.3750 0.2887-0.0000 ( 23497 PWs)   bands (ev):

     2.9961   3.1226   3.3054   3.5600   3.8543   4.1854   4.1980   4.2656
     4.3547   4.4508   4.5177   4.5451   4.6598   4.7866   4.8020   4.8936
     4.9649   4.9701   5.0310   5.1085   5.1870   5.1916   5.1923   5.2188
     5.2795   5.3302   5.3697   5.4189   5.4224   5.5039   5.5196   5.5902
     5.6342   5.6438   5.6596   5.6901   5.6968   5.7340   5.7409   5.7456
     5.7947   5.8128   5.8469   5.8699   5.8928   5.9082   5.9477   5.9691
     5.9742   6.0002   6.0535   6.1039   6.1108   6.2083   6.2377   6.2660
     6.2823   6.3208   6.3448   6.3680   6.3974   6.4492   6.4516   6.4667
     6.4795   6.5445   6.5456   6.5560   6.5983   6.6173   6.6416   6.6924
     6.7120   6.7270   6.7385   6.7413   6.8066   6.8665   6.8987   6.9371
     6.9603   7.0017   7.0127   7.1224   7.1248   7.2488   7.2505   7.2778
     7.3035   7.3210   7.3484   7.3713   7.3791   7.4048   7.4281   7.4434
     7.4964   7.5228   7.5454   7.5776   7.5981   7.6253   7.6456   7.6472
     7.7071   7.7190   7.7209   7.7741   7.8502   7.8781   7.9295   7.9604
     7.9691   8.0816   8.0891   8.1287   8.1351   8.1550   8.1823   8.2306
     8.2666   8.3139   8.3907   8.5016   8.5537   8.5683   8.5887   8.6079
     8.6190   8.6711   8.6919   8.7018   8.7149   8.7175   8.8305   8.8550
     8.9146   9.0570   9.0945   9.1165   9.1611   9.2685   9.3220   9.4946
     9.8187   9.9164  10.3888  10.4544  11.0613  11.0963  11.7261  11.8626
    12.4320  12.7777  13.1851  13.7736  13.8930  14.7462  15.7700  15.7949
    16.1840  16.2778  16.9559  17.4043  17.4185  17.5083  17.5990  17.7614
    18.0350  18.1179  18.3342  18.6580

          k =-0.3750 0.4330-0.0000 ( 23475 PWs)   bands (ev):

     3.4775   3.5993   3.7406   3.9476   4.1556   4.3783   4.4789   4.5283
     4.5815   4.6093   4.6378   4.7102   4.7197   4.7332   4.8198   4.8239
     4.9483   4.9559   5.0518   5.0719   5.1098   5.1684   5.1727   5.2206
     5.2364   5.2586   5.3077   5.3147   5.3231   5.3609   5.4153   5.4719
     5.5144   5.5881   5.5963   5.6192   5.7130   5.7188   5.7194   5.8256
     5.8385   5.8846   5.9516   5.9639   5.9712   6.0074   6.0678   6.0874
     6.1060   6.1282   6.1869   6.2135   6.2318   6.2470   6.2541   6.3026
     6.3139   6.3367   6.3682   6.3864   6.4131   6.4717   6.4745   6.5122
     6.5940   6.6094   6.6346   6.6355   6.6839   6.7154   6.7208   6.7654
     6.8394   6.8715   6.8788   6.8815   6.9242   6.9343   6.9754   7.0049
     7.0050   7.0204   7.1186   7.1258   7.1912   7.2445   7.2766   7.3776
     7.4025   7.4290   7.4697   7.5126   7.5197   7.5304   7.5637   7.6118
     7.6499   7.6581   7.6628   7.6994   7.6998   7.7633   7.7877   7.8481
     7.9059   7.9194   7.9256   7.9535   7.9836   8.0030   8.0527   8.0893
     8.1320   8.1819   8.2103   8.2483   8.2981   8.3370   8.3392   8.3695
     8.4045   8.4257   8.4867   8.6034   8.6578   8.6840   8.6856   8.7618
     8.7750   8.7798   8.7959   8.8318   8.8358   8.8428   8.9489   8.9730
     9.0960   9.5630   9.5915   9.6091   9.6202   9.7007   9.8578  10.1311
    10.2096  10.5485  10.8450  11.0785  11.5903  11.6813  12.3445  12.3481
    13.0266  13.2256  13.7508  14.3709  14.6031  15.3237  16.2357  16.2873
    16.4587  16.6257  16.7163  16.8977  16.9855  17.0806  17.3589  17.5341
    17.7027  17.7398  17.9718  18.1411

          k =-0.3750 0.5774-0.0000 ( 23521 PWs)   bands (ev):

     3.8028   3.9337   4.0684   4.2580   4.3349   4.3734   4.4100   4.4141
     4.4669   4.5131   4.5490   4.5790   4.6354   4.6603   4.7335   4.7709
     4.7836   4.8013   4.8666   4.8715   4.8922   4.9370   4.9482   4.9733
     5.0041   5.0318   5.0443   5.1048   5.1503   5.1777   5.1902   5.2266
     5.3121   5.3811   5.3861   5.4333   5.5561   5.5940   5.6714   5.8110
     5.8140   5.9529   5.9568   6.0549   6.1024   6.1171   6.1624   6.2029
     6.2526   6.3134   6.3544   6.3696   6.3963   6.4531   6.4817   6.5141
     6.5283   6.5478   6.5707   6.5767   6.6292   6.6316   6.6945   6.7023
     6.7443   6.7603   6.7881   6.8657   6.8796   6.8942   6.9705   7.0052
     7.0154   7.0831   7.1068   7.1179   7.1399   7.2078   7.2467   7.3131
     7.3833   7.4292   7.4515   7.5454   7.5502   7.6387   7.6634   7.7327
     7.7473   7.7552   7.8191   7.8526   7.9277   7.9462   7.9914   8.0230
     8.0483   8.0738   8.0842   8.1156   8.1545   8.1936   8.2094   8.2114
     8.2417   8.2517   8.2521   8.2691   8.3018   8.3225   8.3290   8.3344
     8.3521   8.3659   8.4218   8.4336   8.4825   8.4907   8.5386   8.5691
     8.5753   8.6370   8.6416   8.6851   8.7028   8.7634   8.7769   8.8055
     8.8417   8.8439   8.8669   8.9085   8.9263   8.9349   9.0198   9.0453
     9.3979  10.0485  10.0704  10.1344  10.2242  10.3325  10.5234  10.7587
    10.8203  11.2479  11.4634  11.7899  12.2358  12.4119  12.9708  13.0965
    13.7293  13.7791  14.2408  14.4910  14.6626  14.8238  14.9754  15.2271
    15.2607  15.5352  15.7922  15.8930  16.2244  16.3851  16.5251  16.7051
    16.7110  16.9639  17.2023  17.2238

          k =-0.3750 0.7217-0.0000 ( 23544 PWs)   bands (ev):

     3.9264   4.0570   4.1676   4.2036   4.2538   4.3159   4.3425   4.3723
     4.4132   4.4271   4.4556   4.4732   4.5558   4.5669   4.5784   4.6112
     4.6256   4.6392   4.6773   4.6996   4.7042   4.7301   4.8042   4.8125
     4.8239   4.8346   4.8670   4.9472   4.9752   4.9818   5.0586   5.0855
     5.1615   5.2039   5.2358   5.2595   5.4909   5.4944   5.7057   5.7525
     5.8606   5.9243   5.9609   6.0785   6.1038   6.1335   6.2019   6.2297
     6.2740   6.3613   6.3668   6.3689   6.4254   6.4321   6.4677   6.4778
     6.5119   6.5222   6.5611   6.6287   6.6775   6.7375   6.7473   6.7894
     6.8360   6.8412   6.9205   7.0043   7.0457   7.1252   7.1556   7.2223
     7.2442   7.2850   7.3907   7.4302   7.4971   7.5600   7.6039   7.6125
     7.7220   7.8000   7.8258   7.8474   7.8808   7.9827   8.0253   8.0852
     8.1258   8.2198   8.2325   8.3071   8.3150   8.3617   8.3740   8.4052
     8.4762   8.4853   8.4944   8.5324   8.5488   8.5527   8.5647   8.5704
     8.5919   8.6030   8.6158   8.6208   8.6400   8.6633   8.6656   8.6978
     8.6983   8.7101   8.7208   8.7245   8.7549   8.7556   8.7627   8.7888
     8.8197   8.8384   8.8606   8.8838   8.9133   8.9494   8.9780   8.9912
     9.0184   9.0364   9.0524   9.1746   9.3841   9.5227   9.5676   9.7239
    10.1869  10.7586  10.8415  10.8771  11.0593  11.1916  11.3671  11.5854
    11.5896  11.8899  12.2437  12.3314  12.5238  12.7147  12.8482  13.0199
    13.0926  13.1098  13.6615  13.7549  13.8606  14.2527  14.2844  14.3940
    14.4511  14.5197  14.6989  14.8487  14.8681  15.1534  15.2196  15.5787
    15.7426  15.8106  16.0520  16.2594

     the Fermi energy is    10.7336 ev

!    total energy              =  -20153.52347517 Ry

     total all-electron energy =   -988623.521842 Ry
     estimated scf accuracy    <       0.00000028 Ry
     smearing contrib. (-TS)   =      -0.02221574 Ry
     internal energy E=F+TS    =  -20153.50125943 Ry

     The total energy is F=E-TS. E is the sum of the following terms:
     one-electron contribution =   -8803.96620859 Ry
     hartree contribution      =    4727.48094531 Ry
     xc contribution           =    -833.59013546 Ry
     ewald contribution        =    2761.90826088 Ry
     one-center paw contrib.   =  -18005.33412158 Ry

     convergence has been achieved in  28 iterations

     negative rho (up, down):  2.233E-03 0.000E+00

     Forces acting on atoms (cartesian axes, Ry/au):

     atom    1 type  1   force =    -0.00005517    0.00002535   -0.00286311
     atom    2 type  1   force =     0.00004753   -0.00001843    0.00305685
     atom    3 type  1   force =     0.00005567   -0.00000298    0.00044908
     atom    4 type  1   force =     0.00195623    0.00547699   -0.00455650
     atom    5 type  1   force =    -0.00004950    0.00000074   -0.00028276
     atom    6 type  1   force =     0.00011844    0.00001900    0.00489421
     atom    7 type  1   force =    -0.00002983   -0.00000643    0.00128375
     atom    8 type  1   force =    -0.00193464   -0.00549263    0.00457479
     atom    9 type  1   force =     0.00001171   -0.00000749    0.00005198
     atom   10 type  1   force =     0.00002738    0.00000186   -0.00133795
     atom   11 type  1   force =    -0.00011706   -0.00001266   -0.00484387
     atom   12 type  1   force =    -0.00003785    0.00055990    0.00046100
     atom   13 type  1   force =    -0.00000435   -0.00054850   -0.00088958
     atom   14 type  1   force =     0.00011064    0.00001969    0.00489990
     atom   15 type  1   force =    -0.00002531   -0.00000829    0.00128206
     atom   16 type  1   force =    -0.00193302   -0.00549308    0.00457496
     atom   17 type  1   force =     0.00001498   -0.00000701    0.00005332
     atom   18 type  1   force =     0.00002444    0.00000595   -0.00134073
     atom   19 type  1   force =    -0.00011593   -0.00000874   -0.00484855
     atom   20 type  1   force =    -0.00003886    0.00055868    0.00046173
     atom   21 type  1   force =     0.00000526   -0.00054580   -0.00087922
     atom   22 type  1   force =    -0.00005041    0.00002320   -0.00286750
     atom   23 type  1   force =     0.00006029   -0.00001955    0.00306224
     atom   24 type  1   force =     0.00005185    0.00000143    0.00045450
     atom   25 type  1   force =     0.00195638    0.00547444   -0.00456132
     atom   26 type  1   force =    -0.00004888    0.00000437   -0.00028928

     Total force =     0.018966     Total SCF correction =     0.003169
     SCF correction compared to forces is large: reduce conv_thr to get better values

     Writing all to output data dir ./pwscf.save/
 
     init_run     :     23.09s CPU     23.58s WALL (       1 calls)
     electrons    :   1956.96s CPU   1976.94s WALL (       1 calls)
     forces       :      8.52s CPU      8.62s WALL (       1 calls)

     Called by init_run:
     wfcinit      :     22.40s CPU     22.81s WALL (       1 calls)
     potinit      :      0.35s CPU      0.40s WALL (       1 calls)
     hinit0       :      0.24s CPU      0.27s WALL (       1 calls)

     Called by electrons:
     c_bands      :   1776.06s CPU   1793.98s WALL (      29 calls)
     sum_band     :    172.23s CPU    173.66s WALL (      29 calls)
     v_of_rho     :      0.61s CPU      1.01s WALL (      29 calls)
     newd         :      1.57s CPU      1.75s WALL (      29 calls)
     PAW_pot      :      6.68s CPU      6.72s WALL (      29 calls)
     mix_rho      :      0.10s CPU      0.11s WALL (      29 calls)

     Called by c_bands:
     init_us_2    :      4.66s CPU      4.75s WALL (    3000 calls)
     init_us_2:cp :      4.65s CPU      4.74s WALL (    3000 calls)
     cegterg      :   1709.60s CPU   1726.63s WALL (    1450 calls)

     Called by *egterg:
     cdiaghg      :    198.84s CPU    201.44s WALL (    9371 calls)
     h_psi        :    958.33s CPU    966.91s WALL (    9471 calls)
     s_psi        :    115.42s CPU    116.07s WALL (    9471 calls)
     g_psi        :      2.34s CPU      2.35s WALL (    7971 calls)

     Called by h_psi:
     h_psi:calbec :    142.95s CPU    143.60s WALL (    9471 calls)
     vloc_psi     :    693.64s CPU    698.79s WALL (    9471 calls)
     add_vuspsi   :    120.30s CPU    120.78s WALL (    9471 calls)

     General routines
     calbec       :    201.66s CPU    202.57s WALL (   11121 calls)
     fft          :      0.74s CPU      1.25s WALL (     331 calls)
     ffts         :      0.04s CPU      0.05s WALL (      29 calls)
     fftw         :    777.86s CPU    783.57s WALL ( 1538114 calls)
 
     Parallel routines
 
     PWSCF        :  33m16.63s CPU  33m50.18s WALL

 
   This run was terminated on:  20:58:33  15Feb2024            

=------------------------------------------------------------------------------=
   JOB DONE.
=------------------------------------------------------------------------------=
