MPI startup(): Warning: I_MPI_PMI_LIBRARY will be ignored since the hydra process manager was found
MPI startup(): Warning: I_MPI_PMI_LIBRARY will be ignored since the hydra process manager was found
MPI startup(): Warning: I_MPI_PMI_LIBRARY will be ignored since the hydra process manager was found
MPI startup(): Warning: I_MPI_PMI_LIBRARY will be ignored since the hydra process manager was found
MPI startup(): Warning: I_MPI_PMI_LIBRARY will be ignored since the hydra process manager was found
MPI startup(): Warning: I_MPI_PMI_LIBRARY will be ignored since the hydra process manager was found
MPI startup(): Warning: I_MPI_PMI_LIBRARY will be ignored since the hydra process manager was found
MPI startup(): Warning: I_MPI_PMI_LIBRARY will be ignored since the hydra process manager was found
MPI startup(): Warning: I_MPI_PMI_LIBRARY will be ignored since the hydra process manager was found
MPI startup(): Warning: I_MPI_PMI_LIBRARY will be ignored since the hydra process manager was found

     Program PWSCF v.7.0 starts on 16Feb2024 at  0: 0:58 

     This program is part of the open-source Quantum ESPRESSO suite
     for quantum simulation of materials; please cite
         "P. Giannozzi et al., J. Phys.:Condens. Matter 21 395502 (2009);
         "P. Giannozzi et al., J. Phys.:Condens. Matter 29 465901 (2017);
         "P. Giannozzi et al., J. Chem. Phys. 152 154105 (2020);
          URL http://www.quantum-espresso.org", 
     in publications or presentations arising from this work. More details at
     http://www.quantum-espresso.org/quote

     Parallel version (MPI), running on    10 processors

     MPI processes distributed on     1 nodes
     R & G space division:  proc/nbgrp/npool/nimage =      10
     146315 MiB available memory on the printing compute node when the environment starts
 
     Reading input from GSF111_0.4.in
Warning: card &CELL ignored
Warning: card / ignored

     Current dimensions of program PWSCF are:
     Max number of different atomic species (ntypx) = 10
     Max number of k-points (npk) =  40000
     Max angular momentum in pseudopotentials (lmaxx) =  4

     File ./pwscf.bfgs deleted, as requested
     file Au.pbe-n-kjpaw_psl.1.0.0.UPF: wavefunction(s)  6S 5D renormalized
     Found identity + ( -0.5000  0.5000  0.0000) symmetry
     This is a supercell, fractional translations are disabled

     Subspace diagonalization in iterative solution of the eigenvalue problem:
     one sub-group per band group will be used
     scalapack distributed-memory algorithm (size of sub-group:  3*  3 procs)

 
     Parallelization info
     --------------------
     sticks:   dense  smooth     PW     G-vecs:    dense   smooth      PW
     Min          85      85     25                18799    18799    3045
     Max          87      87     26                18816    18816    3065
     Sum         859     859    251               188065   188065   30575
 
     Using Slab Decomposition
 


     bravais-lattice index     =            0
     lattice parameter (alat)  =       9.6360  a.u.
     unit-cell volume          =    3935.2145 (a.u.)^3
     number of atoms/cell      =           26
     number of atomic types    =            1
     number of electrons       =       286.00
     number of Kohn-Sham states=          172
     kinetic-energy cutoff     =      50.0000  Ry
     charge density cutoff     =     200.0000  Ry
     scf convergence threshold =      1.0E-06
     mixing beta               =       0.7000
     number of iterations used =            8  plain     mixing
     Exchange-correlation= SLA  PW   PBX  PBC
                           (   1   4   3   4   0   0   0)

     celldm(1)=   9.635999  celldm(2)=   0.000000  celldm(3)=   0.000000
     celldm(4)=   0.000000  celldm(5)=   0.000000  celldm(6)=   0.000000

     crystal axes: (cart. coord. in units of alat)
               a(1) = (   1.000000   0.000000   0.000000 )  
               a(2) = (   0.000000   0.577350   0.000000 )  
               a(3) = (  -0.000005   0.000000   7.617966 )  

     reciprocal axes: (cart. coord. in units 2 pi/alat)
               b(1) = (  1.000000  0.000000  0.000001 )  
               b(2) = (  0.000000  1.732052  0.000000 )  
               b(3) = (  0.000000  0.000000  0.131269 )  


     PseudoPot. # 1 for Au read from file:
     ./Au.pbe-n-kjpaw_psl.1.0.0.UPF
     MD5 check sum: 4db85c736373c707a97ce4c36c2a9d23
     Pseudo is Projector augmented-wave + core cor, Zval = 11.0
     Generated using &quot;atomic&quot; code by A. Dal Corso  v.6.3
     Shape of augmentation charge: PSQ
     Using radial grid of 1279 points,  6 beta functions with: 
                l(1) =   0
                l(2) =   0
                l(3) =   1
                l(4) =   1
                l(5) =   2
                l(6) =   2
     Q(r) pseudized with 0 coefficients 


     atomic species   valence    mass     pseudopotential
        Au            11.00   196.96657     Au( 1.00)

     No symmetry found



   Cartesian axes

     site n.     atom                  positions (alat units)
         1           Au  tau(   1) = (   0.0000000   0.0000000   0.0000000  )
         2           Au  tau(   2) = (   0.9999954   0.2309404   5.6568550  )
         3           Au  tau(   3) = (   0.9999966   0.2309404   4.2426411  )
         4           Au  tau(   4) = (   0.9999976   0.0000000   2.8284275  )
         5           Au  tau(   5) = (   0.9999988   0.0000000   1.4142138  )
         6           Au  tau(   6) = (   0.3333329   0.0000000   0.4714045  )
         7           Au  tau(   7) = (   0.3333296   0.2309404   4.7140455  )
         8           Au  tau(   8) = (   0.3333308   0.2309404   3.2998319  )
         9           Au  tau(   9) = (   0.3333318   0.0000000   1.8856185  )
        10           Au  tau(  10) = (   0.6666659   0.0000000   0.9428093  )
        11           Au  tau(  11) = (   0.6666625   0.2309404   5.1854506  )
        12           Au  tau(  12) = (   0.6666637   0.2309404   3.7712367  )
        13           Au  tau(  13) = (   0.6666649   0.0000000   2.3570234  )
        14           Au  tau(  14) = (   0.8333330   0.2886749   0.4714045  )
        15           Au  tau(  15) = (   0.8333294   0.5196153   4.7140455  )
        16           Au  tau(  16) = (   0.8333306   0.5196153   3.2998319  )
        17           Au  tau(  17) = (   0.8333318   0.2886749   1.8856185  )
        18           Au  tau(  18) = (   0.1666658   0.2886749   0.9428093  )
        19           Au  tau(  19) = (   0.1666624   0.5196153   5.1854506  )
        20           Au  tau(  20) = (   0.1666636   0.5196153   3.7712367  )
        21           Au  tau(  21) = (   0.1666648   0.2886749   2.3570234  )
        22           Au  tau(  22) = (   0.5000001   0.2886749   0.0000000  )
        23           Au  tau(  23) = (   0.4999955   0.5196153   5.6568550  )
        24           Au  tau(  24) = (   0.4999965   0.5196153   4.2426411  )
        25           Au  tau(  25) = (   0.4999977   0.2886749   2.8284275  )
        26           Au  tau(  26) = (   0.4999989   0.2886749   1.4142138  )

     number of k points=    50  Gaussian smearing, width (Ry)=  0.0200
                       cart. coord. in units 2pi/alat
        k(    1) = (   0.0000000   0.0000000   0.0000000), wk =   0.0208333
        k(    2) = (   0.0000000   0.1443376   0.0000000), wk =   0.0416667
        k(    3) = (   0.0000000   0.2886753   0.0000000), wk =   0.0416667
        k(    4) = (   0.0000000   0.4330129   0.0000000), wk =   0.0416667
        k(    5) = (   0.0000000   0.5773506   0.0000000), wk =   0.0416667
        k(    6) = (   0.0000000   0.7216882   0.0000000), wk =   0.0416667
        k(    7) = (   0.0000000  -0.8660259   0.0000000), wk =   0.0208333
        k(    8) = (   0.1250000   0.0000000   0.0000001), wk =   0.0416667
        k(    9) = (   0.1250000   0.1443376   0.0000001), wk =   0.0416667
        k(   10) = (   0.1250000   0.2886753   0.0000001), wk =   0.0416667
        k(   11) = (   0.1250000   0.4330129   0.0000001), wk =   0.0416667
        k(   12) = (   0.1250000   0.5773506   0.0000001), wk =   0.0416667
        k(   13) = (   0.1250000   0.7216882   0.0000001), wk =   0.0416667
        k(   14) = (   0.1250000  -0.8660259   0.0000001), wk =   0.0416667
        k(   15) = (   0.2500000   0.0000000   0.0000002), wk =   0.0416667
        k(   16) = (   0.2500000   0.1443376   0.0000002), wk =   0.0416667
        k(   17) = (   0.2500000   0.2886753   0.0000002), wk =   0.0416667
        k(   18) = (   0.2500000   0.4330129   0.0000002), wk =   0.0416667
        k(   19) = (   0.2500000   0.5773506   0.0000002), wk =   0.0416667
        k(   20) = (   0.2500000   0.7216882   0.0000002), wk =   0.0416667
        k(   21) = (   0.2500000  -0.8660259   0.0000002), wk =   0.0416667
        k(   22) = (   0.3750000   0.0000000   0.0000002), wk =   0.0416667
        k(   23) = (   0.3750000   0.1443376   0.0000002), wk =   0.0416667
        k(   24) = (   0.3750000   0.2886753   0.0000002), wk =   0.0416667
        k(   25) = (   0.3750000   0.4330129   0.0000002), wk =   0.0416667
        k(   26) = (   0.3750000   0.5773506   0.0000002), wk =   0.0416667
        k(   27) = (   0.3750000   0.7216882   0.0000002), wk =   0.0416667
        k(   28) = (   0.3750000  -0.8660259   0.0000002), wk =   0.0416667
        k(   29) = (  -0.5000000   0.0000000  -0.0000003), wk =   0.0208333
        k(   30) = (  -0.5000000   0.1443376  -0.0000003), wk =   0.0416667
        k(   31) = (  -0.5000000   0.2886753  -0.0000003), wk =   0.0416667
        k(   32) = (  -0.5000000   0.4330129  -0.0000003), wk =   0.0416667
        k(   33) = (  -0.5000000   0.5773506  -0.0000003), wk =   0.0416667
        k(   34) = (  -0.5000000   0.7216882  -0.0000003), wk =   0.0416667
        k(   35) = (  -0.5000000  -0.8660259  -0.0000003), wk =   0.0208333
        k(   36) = (  -0.1250000   0.1443376  -0.0000001), wk =   0.0416667
        k(   37) = (  -0.1250000   0.2886753  -0.0000001), wk =   0.0416667
        k(   38) = (  -0.1250000   0.4330129  -0.0000001), wk =   0.0416667
        k(   39) = (  -0.1250000   0.5773506  -0.0000001), wk =   0.0416667
        k(   40) = (  -0.1250000   0.7216882  -0.0000001), wk =   0.0416667
        k(   41) = (  -0.2500000   0.1443376  -0.0000002), wk =   0.0416667
        k(   42) = (  -0.2500000   0.2886753  -0.0000002), wk =   0.0416667
        k(   43) = (  -0.2500000   0.4330129  -0.0000002), wk =   0.0416667
        k(   44) = (  -0.2500000   0.5773506  -0.0000002), wk =   0.0416667
        k(   45) = (  -0.2500000   0.7216882  -0.0000002), wk =   0.0416667
        k(   46) = (  -0.3750000   0.1443376  -0.0000002), wk =   0.0416667
        k(   47) = (  -0.3750000   0.2886753  -0.0000002), wk =   0.0416667
        k(   48) = (  -0.3750000   0.4330129  -0.0000002), wk =   0.0416667
        k(   49) = (  -0.3750000   0.5773506  -0.0000002), wk =   0.0416667
        k(   50) = (  -0.3750000   0.7216882  -0.0000002), wk =   0.0416667

     Dense  grid:   188065 G-vectors     FFT dimensions: (  45,  25, 360)

     Estimated max dynamical RAM per process >     418.32 MB

     Estimated total dynamical RAM >       4.09 GB

     Initial potential from superposition of free atoms

     starting charge     285.9971, renormalised to     286.0000

     negative rho (up, down):  2.591E-03 0.000E+00
     Starting wfcs are  234 randomized atomic wfcs
     Checking if some PAW data can be deallocated... 

     total cpu time spent up to now is       28.7 secs

     Self-consistent Calculation

     iteration #  1     ecut=    50.00 Ry     beta= 0.70
     Davidson diagonalization with overlap
     ethr =  1.00E-02,  avg # of iterations =  5.1

     Threshold (ethr) on eigenvalues was too large:
     Diagonalizing with lowered threshold

     Davidson diagonalization with overlap
     ethr =  3.99E-04,  avg # of iterations =  4.3

     negative rho (up, down):  1.818E-03 0.000E+00

     total cpu time spent up to now is      180.8 secs

     total energy              =  -20152.80726700 Ry
     estimated scf accuracy    <       1.45359798 Ry

     iteration #  2     ecut=    50.00 Ry     beta= 0.70
     Davidson diagonalization with overlap
     ethr =  5.08E-04,  avg # of iterations = 15.7

     negative rho (up, down):  1.818E-03 0.000E+00

     total cpu time spent up to now is      330.1 secs

     total energy              =  -20134.30481274 Ry
     estimated scf accuracy    <    2507.26731667 Ry

     iteration #  3     ecut=    50.00 Ry     beta= 0.70
     Davidson diagonalization with overlap
     ethr =  5.08E-04,  avg # of iterations = 10.9

     negative rho (up, down):  1.986E-03 0.000E+00

     total cpu time spent up to now is      445.0 secs

     total energy              =  -20152.18574808 Ry
     estimated scf accuracy    <       6.81904574 Ry

     iteration #  4     ecut=    50.00 Ry     beta= 0.70
     Davidson diagonalization with overlap
     ethr =  5.08E-04,  avg # of iterations = 10.5

     negative rho (up, down):  2.046E-03 0.000E+00

     total cpu time spent up to now is      545.2 secs

     total energy              =  -20148.30481158 Ry
     estimated scf accuracy    <     303.16367286 Ry

     iteration #  5     ecut=    50.00 Ry     beta= 0.70
     Davidson diagonalization with overlap
     ethr =  5.08E-04,  avg # of iterations = 13.3

     negative rho (up, down):  1.792E-03 0.000E+00

     total cpu time spent up to now is      668.7 secs

     total energy              =  -20135.61467427 Ry
     estimated scf accuracy    <    3044.54310473 Ry

     iteration #  6     ecut=    50.00 Ry     beta= 0.70
     Davidson diagonalization with overlap
     ethr =  5.08E-04,  avg # of iterations = 11.3

     negative rho (up, down):  1.767E-03 0.000E+00

     total cpu time spent up to now is      776.3 secs

     total energy              =  -20153.31273504 Ry
     estimated scf accuracy    <       2.24673001 Ry

     iteration #  7     ecut=    50.00 Ry     beta= 0.70
     Davidson diagonalization with overlap
     ethr =  5.08E-04,  avg # of iterations =  3.1

     negative rho (up, down):  1.807E-03 0.000E+00

     total cpu time spent up to now is      833.1 secs

     total energy              =  -20153.42135502 Ry
     estimated scf accuracy    <       1.74064753 Ry

     iteration #  8     ecut=    50.00 Ry     beta= 0.70
     Davidson diagonalization with overlap
     ethr =  5.08E-04,  avg # of iterations =  1.1

     negative rho (up, down):  1.857E-03 0.000E+00

     total cpu time spent up to now is      884.3 secs

     total energy              =  -20153.45805264 Ry
     estimated scf accuracy    <       1.22709696 Ry

     iteration #  9     ecut=    50.00 Ry     beta= 0.70
     Davidson diagonalization with overlap
     ethr =  4.29E-04,  avg # of iterations =  1.1

     negative rho (up, down):  1.976E-03 0.000E+00

     total cpu time spent up to now is      935.3 secs

     total energy              =  -20153.47988758 Ry
     estimated scf accuracy    <       0.51804130 Ry

     iteration # 10     ecut=    50.00 Ry     beta= 0.70
     Davidson diagonalization with overlap
     ethr =  1.81E-04,  avg # of iterations =  1.7

     negative rho (up, down):  2.247E-03 0.000E+00

     total cpu time spent up to now is      988.2 secs

     total energy              =  -20153.48283490 Ry
     estimated scf accuracy    <       0.26009688 Ry

     iteration # 11     ecut=    50.00 Ry     beta= 0.70
     Davidson diagonalization with overlap
     ethr =  9.09E-05,  avg # of iterations =  3.1

     negative rho (up, down):  2.387E-03 0.000E+00

     total cpu time spent up to now is     1042.1 secs

     total energy              =  -20153.48472033 Ry
     estimated scf accuracy    <       0.09471426 Ry

     iteration # 12     ecut=    50.00 Ry     beta= 0.70
     Davidson diagonalization with overlap
     c_bands:  1 eigenvalues not converged
     c_bands:  1 eigenvalues not converged
     ethr =  3.31E-05,  avg # of iterations = 10.1

     negative rho (up, down):  2.303E-03 0.000E+00

     total cpu time spent up to now is     1107.3 secs

     total energy              =  -20153.47695373 Ry
     estimated scf accuracy    <       0.85511057 Ry

     iteration # 13     ecut=    50.00 Ry     beta= 0.70
     Davidson diagonalization with overlap
     ethr =  3.31E-05,  avg # of iterations =  6.0

     negative rho (up, down):  2.509E-03 0.000E+00

     total cpu time spent up to now is     1166.2 secs

     total energy              =  -20153.48755249 Ry
     estimated scf accuracy    <       0.07375365 Ry

     iteration # 14     ecut=    50.00 Ry     beta= 0.70
     Davidson diagonalization with overlap
     c_bands:  1 eigenvalues not converged
     ethr =  2.58E-05,  avg # of iterations =  3.8

     negative rho (up, down):  2.410E-03 0.000E+00

     total cpu time spent up to now is     1223.2 secs

     total energy              =  -20153.48740128 Ry
     estimated scf accuracy    <       0.18937689 Ry

     iteration # 15     ecut=    50.00 Ry     beta= 0.70
     Davidson diagonalization with overlap
     ethr =  2.58E-05,  avg # of iterations =  7.6

     negative rho (up, down):  2.408E-03 0.000E+00

     total cpu time spent up to now is     1288.8 secs

     total energy              =  -20153.48206423 Ry
     estimated scf accuracy    <       0.91702151 Ry

     iteration # 16     ecut=    50.00 Ry     beta= 0.70
     Davidson diagonalization with overlap
     ethr =  2.58E-05,  avg # of iterations =  4.6

     negative rho (up, down):  2.421E-03 0.000E+00

     total cpu time spent up to now is     1347.7 secs

     total energy              =  -20153.49225948 Ry
     estimated scf accuracy    <       0.02318409 Ry

     iteration # 17     ecut=    50.00 Ry     beta= 0.70
     Davidson diagonalization with overlap
     ethr =  8.11E-06,  avg # of iterations =  3.6

     negative rho (up, down):  2.424E-03 0.000E+00

     total cpu time spent up to now is     1404.6 secs

     total energy              =  -20153.49308255 Ry
     estimated scf accuracy    <       0.00051856 Ry

     iteration # 18     ecut=    50.00 Ry     beta= 0.70
     Davidson diagonalization with overlap
     c_bands:  1 eigenvalues not converged
     c_bands:  1 eigenvalues not converged
     c_bands:  1 eigenvalues not converged
     ethr =  1.81E-07,  avg # of iterations = 10.6

     negative rho (up, down):  2.427E-03 0.000E+00

     total cpu time spent up to now is     1498.3 secs

     total energy              =  -20153.49310450 Ry
     estimated scf accuracy    <       0.00355947 Ry

     iteration # 19     ecut=    50.00 Ry     beta= 0.70
     Davidson diagonalization with overlap
     ethr =  1.81E-07,  avg # of iterations =  2.2

     negative rho (up, down):  2.429E-03 0.000E+00

     total cpu time spent up to now is     1555.3 secs

     total energy              =  -20153.49319636 Ry
     estimated scf accuracy    <       0.00160545 Ry

     iteration # 20     ecut=    50.00 Ry     beta= 0.70
     Davidson diagonalization with overlap
     ethr =  1.81E-07,  avg # of iterations =  1.3

     negative rho (up, down):  2.439E-03 0.000E+00

     total cpu time spent up to now is     1608.5 secs

     total energy              =  -20153.49319549 Ry
     estimated scf accuracy    <       0.00023757 Ry

     iteration # 21     ecut=    50.00 Ry     beta= 0.70
     Davidson diagonalization with overlap
     ethr =  8.31E-08,  avg # of iterations =  2.6

     negative rho (up, down):  2.440E-03 0.000E+00

     total cpu time spent up to now is     1679.1 secs

     total energy              =  -20153.49307754 Ry
     estimated scf accuracy    <       0.00279777 Ry

     iteration # 22     ecut=    50.00 Ry     beta= 0.70
     Davidson diagonalization with overlap
     ethr =  8.31E-08,  avg # of iterations =  2.1

     negative rho (up, down):  2.442E-03 0.000E+00

     total cpu time spent up to now is     1741.2 secs

     total energy              =  -20153.49316691 Ry
     estimated scf accuracy    <       0.00183102 Ry

     iteration # 23     ecut=    50.00 Ry     beta= 0.70
     Davidson diagonalization with overlap
     ethr =  8.31E-08,  avg # of iterations =  2.0

     negative rho (up, down):  2.442E-03 0.000E+00

     total cpu time spent up to now is     1798.4 secs

     total energy              =  -20153.49308108 Ry
     estimated scf accuracy    <       0.01167251 Ry

     iteration # 24     ecut=    50.00 Ry     beta= 0.70
     Davidson diagonalization with overlap
     ethr =  8.31E-08,  avg # of iterations =  2.0

     negative rho (up, down):  2.443E-03 0.000E+00

     total cpu time spent up to now is     1852.7 secs

     total energy              =  -20153.49324145 Ry
     estimated scf accuracy    <       0.00041803 Ry

     iteration # 25     ecut=    50.00 Ry     beta= 0.70
     Davidson diagonalization with overlap
     ethr =  8.31E-08,  avg # of iterations =  1.1

     negative rho (up, down):  2.444E-03 0.000E+00

     total cpu time spent up to now is     1904.1 secs

     total energy              =  -20153.49324439 Ry
     estimated scf accuracy    <       0.00126690 Ry

     iteration # 26     ecut=    50.00 Ry     beta= 0.70
     Davidson diagonalization with overlap
     ethr =  8.31E-08,  avg # of iterations =  1.0

     negative rho (up, down):  2.444E-03 0.000E+00

     total cpu time spent up to now is     1955.0 secs

     total energy              =  -20153.49325887 Ry
     estimated scf accuracy    <       0.00037734 Ry

     iteration # 27     ecut=    50.00 Ry     beta= 0.70
     Davidson diagonalization with overlap
     ethr =  8.31E-08,  avg # of iterations =  1.0

     negative rho (up, down):  2.445E-03 0.000E+00

     total cpu time spent up to now is     2005.8 secs

     total energy              =  -20153.49326580 Ry
     estimated scf accuracy    <       0.00000541 Ry

     iteration # 28     ecut=    50.00 Ry     beta= 0.70
     Davidson diagonalization with overlap
     ethr =  1.89E-09,  avg # of iterations =  2.2

     negative rho (up, down):  2.445E-03 0.000E+00

     total cpu time spent up to now is     2064.0 secs

     total energy              =  -20153.49326268 Ry
     estimated scf accuracy    <       0.00010935 Ry

     iteration # 29     ecut=    50.00 Ry     beta= 0.70
     Davidson diagonalization with overlap
     ethr =  1.89E-09,  avg # of iterations =  2.0

     negative rho (up, down):  2.445E-03 0.000E+00

     total cpu time spent up to now is     2121.3 secs

     total energy              =  -20153.49326604 Ry
     estimated scf accuracy    <       0.00002835 Ry

     iteration # 30     ecut=    50.00 Ry     beta= 0.70
     Davidson diagonalization with overlap
     ethr =  1.89E-09,  avg # of iterations =  1.5

     negative rho (up, down):  2.445E-03 0.000E+00

     total cpu time spent up to now is     2175.1 secs

     total energy              =  -20153.49326720 Ry
     estimated scf accuracy    <       0.00000313 Ry

     iteration # 31     ecut=    50.00 Ry     beta= 0.70
     Davidson diagonalization with overlap
     ethr =  1.09E-09,  avg # of iterations =  1.5

     negative rho (up, down):  2.445E-03 0.000E+00

     total cpu time spent up to now is     2225.6 secs

     total energy              =  -20153.49326737 Ry
     estimated scf accuracy    <       0.00000125 Ry

     iteration # 32     ecut=    50.00 Ry     beta= 0.70
     Davidson diagonalization with overlap
     ethr =  4.39E-10,  avg # of iterations =  1.9

     negative rho (up, down):  2.445E-03 0.000E+00

     total cpu time spent up to now is     2281.9 secs

     End of self-consistent calculation

          k = 0.0000 0.0000 0.0000 ( 23605 PWs)   bands (ev):

     1.5120   1.6485   1.8888   2.1896   2.5575   2.9475   3.3242   3.6245
     3.8209   3.8880   3.9280   3.9924   4.0623   4.0662   4.0692   4.2061
     4.2173   4.2807   4.3997   4.4265   4.4736   4.5500   4.5573   4.5989
     4.6354   4.6786   4.8399   4.9254   4.9906   5.0278   5.1950   5.3373
     5.4478   5.4502   5.7470   5.9760   6.1409   6.1608   6.1801   6.2262
     6.2479   6.2654   6.3026   6.3126   6.3240   6.3270   6.3367   6.3509
     6.3516   6.3558   6.3736   6.3843   6.4030   6.4046   6.4231   6.4247
     6.4310   6.4603   6.4691   6.4748   6.5119   6.5151   6.5350   6.5430
     6.5565   6.5586   6.5777   6.5784   6.5921   6.6423   6.6469   6.6931
     6.7489   6.7594   6.8651   6.8658   6.8682   6.8686   6.8928   7.0186
     7.0543   7.1389   7.1727   7.2656   7.4808   7.5504   7.5709   7.6314
     7.6528   7.6817   7.6832   7.6941   7.6964   7.7122   7.7252   7.7567
     7.7724   7.8367   7.8549   7.8702   7.8934   7.9416   8.0032   8.0255
     8.0388   8.1203   8.1682   8.1848   8.3200   8.3487   8.3768   8.3874
     8.5082   8.5199   8.5489   8.5660   8.5677   8.6626   8.6929   8.6979
     8.7026   8.7379   8.7544   8.7571   8.7869   8.7886   8.7964   8.8039
     8.8228   8.8326   8.8406   8.8602   8.8821   8.9067   8.9373   8.9735
     9.0158   9.0566   9.1210   9.2153   9.2180   9.4212  10.2102  10.5102
    10.5688  10.6283  10.9363  11.2564  11.4721  11.6287  11.7296  11.7899
    11.8563  11.8783  11.9419  12.1160  12.1188  13.5156  13.7312  13.9740
    14.0188  14.2885  14.5418  14.8665  14.8878  15.0659  15.3452  15.8998
    16.2676  16.4089  16.4592  16.4699

          k = 0.0000 0.1443 0.0000 ( 23551 PWs)   bands (ev):

     1.6634   1.7999   2.0375   2.3372   2.7029   3.0923   3.4691   3.7681
     3.9584   4.0187   4.0421   4.1152   4.1850   4.2018   4.2048   4.2952
     4.3324   4.3867   4.5071   4.5538   4.5811   4.6423   4.6515   4.7342
     4.7587   4.7916   4.9073   5.0130   5.1180   5.1455   5.2548   5.3816
     5.4501   5.4794   5.7537   5.9413   6.0651   6.0864   6.1093   6.1271
     6.1456   6.1792   6.2316   6.2506   6.2590   6.2784   6.3118   6.3147
     6.3496   6.3584   6.3792   6.4039   6.4237   6.4407   6.4429   6.4485
     6.4556   6.4683   6.4811   6.5029   6.5176   6.5401   6.5544   6.5787
     6.5903   6.6138   6.6172   6.6338   6.6443   6.6542   6.6753   6.6961
     6.7165   6.7397   6.8167   6.8421   6.8423   6.8875   6.9247   6.9470
     6.9513   6.9943   7.1474   7.2532   7.2759   7.3435   7.4724   7.4943
     7.5196   7.5679   7.5802   7.6037   7.6272   7.6849   7.6975   7.7142
     7.7560   7.7725   7.7829   7.8150   7.8399   7.9091   7.9420   7.9787
     8.0254   8.0412   8.0871   8.1336   8.1612   8.2348   8.2411   8.3178
     8.3468   8.4131   8.4669   8.4758   8.4772   8.5201   8.5340   8.5701
     8.5910   8.6097   8.6269   8.6956   8.7161   8.7240   8.7294   8.7421
     8.7494   8.7641   8.7654   8.8028   8.8469   8.8644   8.8904   8.8942
     8.9316   9.0392   9.0487   9.1526   9.4382   9.9941  10.8602  10.9213
    11.0760  11.0993  11.3205  11.5355  11.6849  11.8053  11.9055  11.9943
    12.1079  12.2278  12.3664  12.5008  12.5278  13.5154  13.7706  14.0473
    14.0509  14.3808  14.6440  14.9286  15.0205  15.1763  15.5011  16.0548
    16.2010  16.5000  16.5390  16.5624

          k = 0.0000 0.2887 0.0000 ( 23495 PWs)   bands (ev):

     2.1017   2.2379   2.4640   2.7577   3.1123   3.4958   3.8695   4.1636
     4.3350   4.3369   4.3767   4.4499   4.5002   4.5205   4.5753   4.5780
     4.6049   4.6338   4.7451   4.8573   4.8885   4.9228   4.9390   5.0357
     5.0741   5.1043   5.1933   5.2071   5.3846   5.4301   5.4303   5.4660
     5.5649   5.6098   5.7534   5.8234   5.8381   5.8762   5.9082   5.9577
     5.9788   5.9799   6.0377   6.0535   6.0567   6.0821   6.1202   6.1255
     6.1751   6.1922   6.2036   6.2522   6.3601   6.3726   6.3897   6.4453
     6.4895   6.4910   6.5761   6.5917   6.6041   6.6144   6.6169   6.6366
     6.6570   6.6831   6.6857   6.6986   6.7435   6.7481   6.7818   6.7847
     6.7902   6.8292   6.8574   6.8623   6.8792   6.9007   6.9373   6.9708
     6.9923   7.0093   7.0714   7.1012   7.1275   7.1558   7.2067   7.2182
     7.2204   7.2940   7.3513   7.3646   7.4369   7.4448   7.4666   7.4786
     7.5679   7.5859   7.6369   7.6776   7.7082   7.7673   7.7933   7.8133
     7.8658   7.9074   7.9210   7.9435   7.9840   7.9907   8.0669   8.0733
     8.1167   8.1783   8.2133   8.2612   8.3143   8.3185   8.3457   8.4703
     8.4718   8.5056   8.5290   8.5532   8.5763   8.5921   8.6103   8.6505
     8.6841   8.7048   8.7180   8.7182   8.7805   8.7946   8.8525   8.9302
     8.9493   9.0921   9.1480   9.5075  10.1997  10.8254  11.7579  11.9734
    11.9890  12.0121  12.0585  12.1310  12.1335  12.2292  12.3513  12.5139
    12.6978  12.9310  13.1287  13.3749  13.5602  13.6009  14.0047  14.1927
    14.3629  14.7026  14.9562  15.1460  15.4199  15.5099  15.7838  16.0526
    16.1946  16.6743  16.7851  16.8745

          k = 0.0000 0.4330 0.0000 ( 23423 PWs)   bands (ev):

     2.7756   2.9091   3.1044   3.3771   3.6929   4.0472   4.3999   4.6462
     4.6863   4.7705   4.8391   4.8514   4.8627   4.8966   4.9251   4.9622
     4.9917   5.0671   5.0691   5.1106   5.1649   5.2202   5.3381   5.3421
     5.3681   5.3762   5.4097   5.4513   5.4969   5.5580   5.5668   5.6096
     5.6366   5.6725   5.6829   5.7322   5.7451   5.7794   5.7865   5.7931
     5.7963   5.8043   5.8257   5.8473   5.8984   5.9045   5.9057   5.9299
     5.9919   6.0461   6.0699   6.1047   6.1399   6.1894   6.2409   6.2586
     6.3195   6.3285   6.4185   6.4519   6.4803   6.5269   6.5460   6.5819
     6.5957   6.6215   6.6770   6.6809   6.7008   6.7265   6.7303   6.7431
     6.7631   6.7979   6.8277   6.8643   6.9182   6.9536   7.0147   7.0266
     7.1406   7.1544   7.1746   7.1959   7.1993   7.2737   7.2885   7.3265
     7.3624   7.3869   7.3975   7.4000   7.4041   7.4233   7.4497   7.4693
     7.5014   7.5117   7.5164   7.5518   7.6113   7.6263   7.6902   7.7069
     7.7702   7.8235   7.8294   7.8357   7.8896   7.9527   7.9819   7.9918
     8.0285   8.0558   8.0783   8.1121   8.1954   8.2575   8.3053   8.4202
     8.4202   8.4444   8.4865   8.4973   8.5243   8.5638   8.6031   8.6146
     8.6561   8.6587   8.6721   8.7352   8.7764   8.7823   8.8058   8.8249
     8.9926   9.1765   9.6783  10.1630  10.9347  11.6206  12.5125  12.5518
    12.6138  12.6354  12.6474  12.8206  12.9125  13.1009  13.2016  13.3907
    13.4505  13.5464  13.8229  13.9936  14.2446  14.3401  14.5967  14.6288
    14.8424  15.2264  15.3230  15.5941  15.6137  15.7197  15.9336  16.0747
    16.2139  16.4974  16.7540  16.8893

          k = 0.0000 0.5774 0.0000 ( 23470 PWs)   bands (ev):

     3.5827   3.7105   3.8333   4.0481   4.2590   4.5157   4.7489   4.7748
     5.0044   5.0262   5.0545   5.1016   5.1082   5.1122   5.1693   5.2216
     5.2309   5.2397   5.2846   5.2958   5.3509   5.3546   5.3697   5.3841
     5.4113   5.4153   5.4295   5.4761   5.4936   5.4997   5.5403   5.5446
     5.5737   5.5744   5.6393   5.6565   5.6702   5.6789   5.6978   5.7098
     5.7758   5.7876   5.7944   5.7963   5.8039   5.8809   5.9169   5.9429
     5.9568   5.9591   6.0360   6.0621   6.1208   6.1899   6.1929   6.2658
     6.3196   6.3331   6.3795   6.3936   6.3950   6.4036   6.4196   6.4342
     6.4664   6.4873   6.5132   6.5501   6.5777   6.5796   6.5852   6.5870
     6.6371   6.7002   6.7393   6.9676   6.9955   7.0462   7.0491   7.0511
     7.0539   7.0551   7.1833   7.2161   7.2354   7.2637   7.3715   7.4512
     7.4546   7.5150   7.5206   7.5349   7.5446   7.5466   7.5520   7.5610
     7.5852   7.6146   7.6429   7.6924   7.8148   7.8189   7.8511   7.8612
     7.8932   7.9588   8.0385   8.0801   8.1882   8.2076   8.2275   8.2605
     8.3587   8.4063   8.4355   8.4416   8.4526   8.4686   8.4967   8.4978
     8.5155   8.5216   8.5524   8.5596   8.5956   8.5962   8.6212   8.6349
     8.6430   8.6781   8.6805   8.6824   8.6927   8.7039   8.8516   8.9354
     9.2422   9.7209  10.3226  10.9023  11.7093  12.4139  12.8175  13.1613
    13.2128  13.2590  13.2737  13.2948  13.3521  13.3956  13.5426  13.6182
    13.7158  13.8344  13.8727  14.1405  14.7521  14.8888  14.9383  15.0574
    15.3013  15.3192  15.4077  15.5660  15.8616  15.8757  16.1465  16.3166
    16.4067  16.5783  16.8688  16.9259

          k = 0.0000 0.7217 0.0000 ( 23446 PWs)   bands (ev):

     4.2974   4.4593   4.4812   4.5522   4.6239   4.6930   4.7249   4.8578
     4.8599   4.9570   4.9587   4.9642   5.0345   5.0572   5.1333   5.1831
     5.1886   5.2030   5.2397   5.2661   5.2732   5.2784   5.3541   5.3553
     5.4308   5.4562   5.4735   5.4954   5.5053   5.5545   5.5796   5.5950
     5.6083   5.6234   5.6448   5.6663   5.6772   5.7143   5.7218   5.7416
     5.7663   5.7716   5.7795   5.7968   5.8087   5.8816   5.8883   5.9227
     5.9816   6.0411   6.1105   6.1185   6.1456   6.1981   6.2173   6.2519
     6.2715   6.3176   6.3288   6.3422   6.3493   6.3718   6.3752   6.3920
     6.4063   6.4550   6.5024   6.5962   6.6161   6.6227   6.6501   6.7080
     6.7097   6.7350   6.7804   6.9681   6.9707   7.0082   7.0118   7.1387
     7.1694   7.1723   7.1837   7.1928   7.2302   7.2661   7.3806   7.3834
     7.4029   7.4350   7.4629   7.5048   7.5464   7.5651   7.6253   7.6400
     7.6501   7.6554   7.7226   7.7878   7.8399   7.8484   7.9220   7.9406
     8.0033   8.0682   8.1145   8.1282   8.2450   8.3062   8.3191   8.4812
     8.4998   8.5731   8.6800   8.6804   8.6974   8.7012   8.7140   8.7183
     8.7297   8.7449   8.7566   8.7572   8.8762   8.8873   8.8984   8.9054
     8.9567   9.0597   9.3009   9.3451   9.3712   9.4469   9.5603   9.8050
    10.1901  10.6924  11.3166  11.7017  11.8030  11.9337  11.9919  12.2626
    12.5742  12.7156  12.9840  13.3940  13.3952  13.7528  13.9987  14.0893
    14.1594  14.1923  14.3289  14.4024  14.6939  14.7941  14.9529  15.1699
    15.5032  15.6636  15.9102  16.1034  16.1675  16.4561  16.5256  16.6058
    16.6880  16.8230  17.0369  17.1193

          k = 0.0000-0.8660 0.0000 ( 23420 PWs)   bands (ev):

     4.5852   4.5852   4.7318   4.7318   4.8180   4.8181   4.8236   4.8237
     4.8900   4.8900   4.9153   4.9153   5.0202   5.0202   5.0534   5.0534
     5.1252   5.1252   5.1748   5.1749   5.2423   5.2424   5.2459   5.2459
     5.4664   5.4664   5.4932   5.4933   5.5132   5.5132   5.5263   5.5263
     5.6106   5.6106   5.6769   5.6769   5.7144   5.7145   5.7470   5.7471
     5.8385   5.8386   5.8829   5.8829   5.9353   5.9353   5.9901   5.9901
     6.0105   6.0105   6.0672   6.0672   6.1027   6.1027   6.1209   6.1209
     6.2412   6.2412   6.3020   6.3020   6.3481   6.3481   6.4367   6.4367
     6.5430   6.5430   6.5888   6.5888   6.6067   6.6067   6.7140   6.7140
     6.9701   6.9701   6.9791   6.9792   6.9956   6.9956   7.0280   7.0280
     7.0318   7.0319   7.2631   7.2632   7.2983   7.2983   7.3318   7.3318
     7.3657   7.3657   7.4259   7.4259   7.5341   7.5341   7.6550   7.6550
     7.6749   7.6749   7.8125   7.8125   7.8530   7.8531   7.9193   7.9193
     7.9885   7.9885   8.0708   8.0709   8.1707   8.1707   8.4211   8.4212
     8.5560   8.5561   8.7558   8.7559   8.8152   8.8153   8.8378   8.8379
     8.8698   8.8699   8.8978   8.8979   9.0148   9.0148   9.0369   9.0370
     9.1685   9.1685  10.4038  10.4038  10.4586  10.4586  10.5543  10.5543
    10.7204  10.7204  10.9457  10.9457  11.2803  11.2803  11.6980  11.6980
    12.1944  12.1944  12.7876  12.7876  13.3629  13.3630  14.0451  14.0451
    14.5817  14.5817  15.0402  15.0402  15.7597  15.7597  15.7930  15.7930
    15.8548  15.8548  15.9580  15.9580  16.1976  16.1976  16.2609  16.2609
    16.4219  16.4219  16.6049  16.6049

          k = 0.1250 0.0000 0.0000 ( 23563 PWs)   bands (ev):

     1.6263   1.7623   2.0011   2.3005   2.6671   3.0568   3.4338   3.7329
     3.9247   3.9252   3.9861   4.0588   4.0914   4.1683   4.1714   4.2135
     4.2492   4.3188   4.4131   4.4407   4.5003   4.5669   4.5977   4.6156
     4.6734   4.7181   4.8791   4.9628   5.0161   5.0537   5.2309   5.3569
     5.4411   5.4739   5.7607   5.9850   6.0808   6.1411   6.1582   6.1701
     6.2049   6.2182   6.2620   6.2941   6.3094   6.3310   6.3380   6.3382
     6.3679   6.3737   6.3778   6.3996   6.4121   6.4208   6.4332   6.4479
     6.4479   6.4662   6.4805   6.4977   6.5328   6.5391   6.5568   6.5652
     6.5864   6.5973   6.6118   6.6198   6.6336   6.6358   6.6621   6.6774
     6.7158   6.7764   6.8240   6.8470   6.8683   6.9285   6.9314   6.9352
     7.0170   7.0278   7.1054   7.2719   7.3813   7.3898   7.4991   7.5360
     7.5432   7.5845   7.5916   7.5968   7.6551   7.6850   7.7420   7.7515
     7.7979   7.8185   7.8246   7.8462   7.8714   7.9023   7.9463   7.9682
     8.0303   8.1017   8.1118   8.1778   8.2091   8.2439   8.3327   8.3500
     8.3897   8.4695   8.4785   8.5209   8.5302   8.5841   8.6052   8.6522
     8.6674   8.6855   8.6941   8.6958   8.7192   8.7299   8.7490   8.7597
     8.7780   8.7912   8.8071   8.8327   8.8330   8.8494   8.8824   8.9401
     8.9754   8.9958   9.1178   9.1206   9.3036   9.3484   9.6697   9.9266
     9.9457  10.1324  10.2057  10.3293  10.6905  10.8285  10.9971  11.2736
    11.9611  12.6655  13.2825  13.4592  13.5316  13.6594  13.9195  14.0416
    14.2030  14.5189  14.8213  14.9127  15.1483  15.2133  15.6009  15.9254
    16.3856  16.4751  16.5359  16.9317

          k = 0.1250 0.1443 0.0000 ( 23537 PWs)   bands (ev):

     1.7765   1.9116   2.1478   2.4452   2.8094   3.1979   3.5748   3.8723
     4.0424   4.0584   4.1116   4.1837   4.2170   4.2996   4.3027   4.3295
     4.3419   4.4255   4.5317   4.5585   4.6153   4.6684   4.6992   4.7370
     4.7837   4.8257   4.9474   5.0481   5.1414   5.1660   5.2934   5.4081
     5.4213   5.4984   5.7474   5.9333   6.0088   6.0284   6.0821   6.0963
     6.1217   6.1748   6.2078   6.2132   6.2376   6.2538   6.2661   6.3066
     6.3075   6.3343   6.3714   6.4160   6.4226   6.4565   6.4575   6.4861
     6.4909   6.4938   6.5053   6.5153   6.5283   6.5667   6.5883   6.6076
     6.6086   6.6292   6.6411   6.6548   6.6621   6.6745   6.6949   6.7159
     6.7416   6.7516   6.7757   6.8133   6.8215   6.8825   6.9005   6.9241
     7.0094   7.0129   7.1133   7.1548   7.1958   7.2717   7.4130   7.4322
     7.4669   7.5031   7.5317   7.5397   7.5641   7.5692   7.6150   7.6455
     7.7077   7.7157   7.7467   7.7922   7.8458   7.8595   7.8677   7.9347
     7.9506   7.9773   8.0231   8.0722   8.1479   8.1579   8.2129   8.2270
     8.3190   8.3247   8.3440   8.3495   8.4143   8.4778   8.4917   8.5165
     8.5330   8.5503   8.5590   8.5797   8.6272   8.6412   8.6566   8.7064
     8.7277   8.7402   8.7558   8.7682   8.7825   8.8118   8.8517   8.8943
     9.0091   9.0348   9.1039   9.1308   9.6766   9.9877  10.1406  10.3069
    10.3102  10.4402  10.5646  10.7848  11.1649  11.1702  11.4036  11.6964
    12.3314  12.9971  13.4816  13.5544  13.6446  13.7283  14.0126  14.0758
    14.3097  14.6268  14.9236  14.9790  15.2578  15.3337  15.7263  15.9744
    16.4342  16.5638  16.6391  16.9830

          k = 0.1250 0.2887 0.0000 ( 23467 PWs)   bands (ev):

     2.2081   2.3410   2.5651   2.8539   3.2044   3.5835   3.9537   4.2422
     4.3450   4.4067   4.4452   4.5138   4.5456   4.5482   4.6277   4.6460
     4.6519   4.6547   4.7686   4.8580   4.9180   4.9405   4.9880   5.0488
     5.0765   5.1375   5.1921   5.2456   5.3698   5.3726   5.4045   5.4906
     5.5925   5.6289   5.7463   5.7477   5.8118   5.8685   5.8713   5.9777
     5.9824   6.0046   6.0250   6.0322   6.0550   6.0783   6.0885   6.1073
     6.1524   6.1876   6.2126   6.2184   6.3049   6.3119   6.4262   6.4439
     6.4726   6.5229   6.5796   6.5937   6.6064   6.6187   6.6262   6.6396
     6.6449   6.6708   6.7140   6.7338   6.7703   6.7757   6.7884   6.8010
     6.8314   6.8626   6.8657   6.8877   6.8894   6.9023   6.9266   6.9803
     7.0010   7.0152   7.0224   7.0355   7.0762   7.0871   7.1207   7.1925
     7.2047   7.2221   7.2935   7.3031   7.3658   7.3897   7.4277   7.4767
     7.5051   7.5685   7.5932   7.6241   7.6871   7.6985   7.7326   7.7756
     7.7909   7.8124   7.8522   7.8612   7.9271   7.9694   7.9915   8.0480
     8.0937   8.1308   8.1492   8.2049   8.2173   8.2315   8.2415   8.2956
     8.3343   8.4099   8.4328   8.5052   8.5519   8.6261   8.6268   8.7024
     8.7421   8.7464   8.7784   8.7846   8.8118   8.8261   8.8819   8.9877
     9.0190   9.1579   9.2088   9.6406  10.3323  10.7603  10.8156  10.9420
    11.0013  11.0920  11.3267  11.6502  11.9145  12.0748  12.3524  12.5916
    13.1905  13.5911  13.7089  13.8332  13.9238  14.1663  14.2322  14.4381
    14.6712  14.9632  15.2070  15.2555  15.5922  15.6409  15.9969  16.1032
    16.4689  16.8371  16.9627  16.9862

          k = 0.1250 0.4330 0.0000 ( 23435 PWs)   bands (ev):

     2.8630   2.9885   3.1804   3.4412   3.7450   4.0813   4.4113   4.6569
     4.6616   4.7920   4.7927   4.8551   4.8580   4.8843   4.9296   4.9528
     4.9807   5.0832   5.0876   5.0896   5.1260   5.1732   5.2486   5.2917
     5.3469   5.3534   5.4074   5.4326   5.4515   5.5263   5.5561   5.6157
     5.6566   5.6608   5.6920   5.7253   5.7467   5.7683   5.7877   5.8102
     5.8353   5.8402   5.8660   5.8793   5.9045   5.9330   5.9474   5.9580
     6.0115   6.0487   6.0489   6.1410   6.1573   6.2233   6.2851   6.3208
     6.3693   6.4080   6.4453   6.4731   6.4946   6.5205   6.5329   6.5638
     6.5837   6.6353   6.6387   6.6418   6.6691   6.7021   6.7235   6.7372
     6.7403   6.8619   6.8726   6.9015   6.9523   6.9571   6.9780   7.0490
     7.1274   7.1393   7.1792   7.2020   7.2053   7.2207   7.2671   7.2955
     7.3159   7.3327   7.3329   7.3694   7.4216   7.4428   7.4499   7.4817
     7.5018   7.5127   7.5392   7.5711   7.5776   7.6278   7.6363   7.6904
     7.7037   7.7366   7.8016   7.8484   7.8492   7.9008   7.9142   7.9353
     7.9744   8.0381   8.0755   8.1196   8.1400   8.2002   8.2210   8.2768
     8.3607   8.4233   8.4979   8.5141   8.5831   8.5934   8.6818   8.7133
     8.7191   8.7405   8.7454   8.7727   8.8157   8.8308   8.9010   8.9405
     9.1020   9.1948   9.7270  10.2523  11.0175  11.3917  11.4561  11.6409
    11.7272  11.8600  12.1717  12.5576  12.6959  13.0033  13.4643  13.5485
    13.7570  13.9092  14.2024  14.2871  14.5060  14.6590  14.6765  14.8162
    15.1496  15.3307  15.6034  15.6322  15.6646  15.9005  16.1609  16.1925
    16.4028  16.5702  16.8438  17.3008

          k = 0.1250 0.5774 0.0000 ( 23447 PWs)   bands (ev):

     3.6198   3.7257   3.8548   4.0497   4.2444   4.4669   4.6844   4.7250
     4.8560   4.8620   4.9474   4.9750   4.9751   5.0045   5.0454   5.0457
     5.1142   5.1318   5.1724   5.1884   5.2269   5.2340   5.2697   5.3241
     5.3740   5.3865   5.4132   5.4458   5.4593   5.4847   5.5284   5.5375
     5.5896   5.6025   5.6304   5.6595   5.7012   5.7318   5.7426   5.7504
     5.7630   5.7832   5.8025   5.8599   5.8972   5.9011   5.9248   5.9836
     6.0253   6.0408   6.0641   6.0967   6.1351   6.1914   6.2302   6.2333
     6.3443   6.3784   6.3803   6.4620   6.4988   6.5321   6.5543   6.5602
     6.5864   6.5950   6.6158   6.6322   6.6381   6.6635   6.7297   6.7338
     6.7466   6.7932   6.8651   6.9059   6.9491   6.9571   6.9607   7.0926
     7.1641   7.1641   7.2509   7.2565   7.3032   7.3141   7.3525   7.4197
     7.4453   7.4618   7.4831   7.5370   7.5415   7.5730   7.5923   7.6207
     7.6750   7.6966   7.7172   7.7409   7.8282   7.8532   7.8948   7.9133
     7.9146   7.9956   8.0597   8.1295   8.1823   8.2047   8.2048   8.2250
     8.3372   8.3567   8.3975   8.3981   8.4260   8.4667   8.4873   8.5088
     8.5112   8.5463   8.5744   8.5907   8.6050   8.6228   8.6315   8.6760
     8.7048   8.7241   8.7350   8.7369   8.7932   8.8262   8.8321   9.0306
     9.2321   9.7324  10.3555  10.9637  11.7636  12.0919  12.1869  12.4065
    12.4839  12.6773  12.9796  13.2520  13.3926  13.3966  13.4497  13.6598
    13.9179  13.9623  14.1768  14.2564  14.4383  14.7415  14.8386  15.0187
    15.2776  15.4296  15.4645  15.5645  15.9036  16.0296  16.2701  16.3795
    16.4081  16.7083  16.9002  16.9521

          k = 0.1250 0.7217 0.0000 ( 23455 PWs)   bands (ev):

     4.2215   4.2977   4.3959   4.5255   4.6128   4.6165   4.6646   4.7103
     4.7628   4.8069   4.8152   4.8566   4.8993   4.9230   4.9890   5.0250
     5.0697   5.0850   5.1022   5.1049   5.1870   5.2139   5.2409   5.2451
     5.2656   5.2760   5.3052   5.3384   5.3840   5.4217   5.4515   5.4599
     5.4847   5.5536   5.5703   5.6161   5.6641   5.6882   5.7067   5.7187
     5.7904   5.8022   5.8242   5.8771   5.8987   5.9411   5.9474   5.9749
     5.9921   6.0573   6.1307   6.1448   6.2057   6.2116   6.2713   6.3052
     6.3322   6.3665   6.3946   6.4263   6.4400   6.5135   6.5785   6.6057
     6.6300   6.6300   6.6995   6.7596   6.7824   6.7989   6.8189   6.8519
     6.8960   6.9322   6.9464   6.9944   7.0136   7.0484   7.0634   7.1048
     7.1513   7.1904   7.2313   7.2462   7.3796   7.3839   7.4776   7.4813
     7.4935   7.5420   7.5701   7.6413   7.6583   7.6742   7.7286   7.7435
     7.7961   7.8351   7.8466   7.8681   7.9790   7.9804   8.0289   8.0602
     8.0779   8.1794   8.2172   8.2375   8.3326   8.3424   8.3728   8.4971
     8.5260   8.5830   8.6318   8.6446   8.6515   8.6622   8.7014   8.7211
     8.7499   8.7754   8.7768   8.8010   8.8849   8.8856   8.9006   8.9063
     8.9426   9.0915   9.2714   9.3027   9.3487   9.4202   9.5281   9.7669
    10.1623  10.6854  11.3293  11.7807  11.8761  11.9736  12.0575  12.3109
    12.6141  12.7524  12.9982  13.1031  13.2206  13.3779  13.4486  13.5305
    13.7095  13.9187  14.1358  14.2211  14.4656  14.5935  14.8526  15.0499
    15.3185  15.5776  15.8183  15.9182  15.9914  16.3015  16.3335  16.4993
    16.5470  16.6402  16.8397  16.9700

          k = 0.1250-0.8660 0.0000 ( 23492 PWs)   bands (ev):

     4.4485   4.4734   4.5528   4.5765   4.6374   4.6591   4.6829   4.6961
     4.7650   4.7844   4.7951   4.8186   4.9437   4.9462   4.9813   4.9822
     5.0711   5.0841   5.0974   5.0988   5.1400   5.1418   5.1556   5.1616
     5.2203   5.2422   5.2855   5.2908   5.3223   5.3245   5.3530   5.3633
     5.4727   5.4818   5.5723   5.5771   5.6245   5.6381   5.7205   5.7263
     5.8041   5.8131   5.8932   5.9210   5.9271   5.9277   5.9902   5.9926
     6.0544   6.0556   6.0974   6.1005   6.1488   6.1776   6.2295   6.2592
     6.3966   6.3994   6.4388   6.4557   6.5693   6.5721   6.5971   6.6092
     6.7122   6.7143   6.7590   6.7638   6.8486   6.8486   6.8582   6.8649
     6.8854   6.8977   7.0058   7.0152   7.0568   7.0656   7.1381   7.1617
     7.1806   7.2121   7.3345   7.3404   7.4198   7.4343   7.4833   7.4880
     7.5264   7.5452   7.6061   7.6400   7.7022   7.7277   7.8110   7.8131
     7.8439   7.8544   7.9557   7.9647   7.9991   8.0050   8.0412   8.0584
     8.0935   8.1135   8.1502   8.1950   8.2355   8.2393   8.4296   8.4318
     8.5501   8.5658   8.7413   8.7482   8.7804   8.7820   8.8027   8.8129
     8.8639   8.8729   8.9093   8.9128   9.0189   9.0196   9.0346   9.0382
     9.1581   9.1726  10.3986  10.4091  10.4585  10.4632  10.5556  10.5571
    10.7109  10.7224  10.9298  10.9373  11.2563  11.2664  11.6753  11.6825
    12.1824  12.1825  12.7888  12.7909  13.3647  13.3957  14.0172  14.0309
    14.4546  14.4638  14.6766  14.6841  14.7733  14.8208  14.9673  15.0035
    15.2920  15.3161  15.4066  15.4388  15.8011  15.8210  15.9473  15.9823
    16.2522  16.2603  16.6068  16.6262

          k = 0.2500 0.0000 0.0000 ( 23536 PWs)   bands (ev):

     1.9602   2.0940   2.3264   2.6200   2.9803   3.3659   3.7416   3.8777
     4.0070   4.0358   4.1603   4.2144   4.2595   4.3424   4.3581   4.3685
     4.4055   4.4539   4.4570   4.4720   4.5094   4.5995   4.6991   4.7248
     4.7930   4.8292   4.9744   5.0583   5.1092   5.1462   5.3303   5.4122
     5.4211   5.5600   5.8065   5.8598   5.9293   6.0136   6.0160   6.0534
     6.1037   6.1396   6.1586   6.1781   6.2041   6.2463   6.2631   6.2943
     6.3048   6.3488   6.3843   6.4066   6.4471   6.4534   6.5024   6.5044
     6.5156   6.5216   6.5660   6.5802   6.5978   6.6157   6.6200   6.6295
     6.6451   6.6665   6.6846   6.6947   6.6991   6.7341   6.7490   6.7529
     6.7816   6.8031   6.8175   6.8362   6.8421   6.8551   6.9000   6.9158
     6.9733   7.0347   7.0897   7.0980   7.1035   7.2674   7.2683   7.3293
     7.3543   7.3782   7.4027   7.4543   7.4885   7.5148   7.5503   7.6007
     7.6389   7.6427   7.7046   7.7384   7.7441   7.8052   7.8364   7.8688
     7.9249   8.0003   8.0120   8.0403   8.0410   8.1391   8.1951   8.2148
     8.2223   8.3199   8.3206   8.3486   8.3709   8.3921   8.4062   8.4169
     8.4546   8.4719   8.5048   8.5303   8.5406   8.5542   8.5736   8.5951
     8.6053   8.6260   8.6310   8.6733   8.6892   8.7208   8.7752   8.7879
     8.8074   8.8296   8.8409   8.8714   8.9144   8.9194   8.9437   8.9509
     9.1108   9.3687   9.6999   9.9757  10.3983  10.6537  11.1452  11.5168
    11.8382  11.8970  12.6743  13.3985  14.1354  14.1691  15.0687  15.1181
    15.3432  15.3983  15.5040  15.6188  15.9168  16.3540  16.6753  16.7739
    16.8152  17.1092  17.3985  17.7964

          k = 0.2500 0.1443 0.0000 ( 23484 PWs)   bands (ev):

     2.1057   2.2376   2.4668   2.7569   3.1134   3.4967   3.8721   4.0034
     4.1397   4.1654   4.2852   4.3374   4.3740   4.4454   4.4860   4.4915
     4.5166   4.5750   4.5781   4.5989   4.6364   4.7095   4.7904   4.8029
     4.8745   4.9353   5.0370   5.1543   5.2167   5.2390   5.3749   5.3852
     5.4790   5.5736   5.7686   5.8294   5.8797   5.9156   5.9496   5.9740
     6.0412   6.0655   6.0967   6.0999   6.1437   6.1730   6.2078   6.2351
     6.2393   6.3247   6.3397   6.3632   6.3905   6.3977   6.4290   6.4490
     6.5216   6.5298   6.5612   6.5850   6.5871   6.6046   6.6213   6.6357
     6.6420   6.6607   6.6725   6.6953   6.7323   6.7445   6.7588   6.7787
     6.7980   6.8169   6.8391   6.8424   6.8620   6.8746   6.8867   6.9384
     6.9508   7.0005   7.0678   7.1001   7.1127   7.1805   7.1806   7.2121
     7.2732   7.2768   7.3131   7.3550   7.4198   7.4284   7.4683   7.4765
     7.5575   7.5922   7.6507   7.6707   7.7087   7.7223   7.7465   7.8182
     7.8577   7.8657   7.8994   7.9100   7.9104   7.9916   8.0324   8.0597
     8.1441   8.1467   8.1808   8.2100   8.2180   8.2225   8.2520   8.3250
     8.3434   8.4109   8.4302   8.4834   8.5284   8.5535   8.5835   8.6095
     8.6306   8.6742   8.7031   8.7269   8.7309   8.7792   8.8003   8.8588
     8.9151   8.9464   9.1208   9.1355   9.2326   9.3211   9.3707   9.4535
     9.5623   9.6694  10.1030  10.1919  10.6994  10.8881  11.3888  11.7581
    12.1048  12.1536  12.8651  13.5657  14.1850  14.3305  15.1480  15.2893
    15.3897  15.5063  15.5633  15.7257  15.9995  16.4369  16.7724  16.8706
    16.9042  17.1934  17.4557  17.8259

          k = 0.2500 0.2887 0.0000 ( 23496 PWs)   bands (ev):

     2.5159   2.6432   2.8567   3.1326   3.4674   3.8317   4.1907   4.3227
     4.4659   4.4867   4.5899   4.6122   4.6448   4.6496   4.7156   4.7792
     4.7897   4.8210   4.8721   4.8750   4.9235   4.9789   5.0462   5.0600
     5.1317   5.1766   5.2534   5.2931   5.2944   5.3743   5.4497   5.5454
     5.6025   5.6660   5.6785   5.7087   5.7780   5.7978   5.8561   5.9109
     5.9132   5.9294   5.9539   5.9737   6.0112   6.0462   6.0869   6.0927
     6.1071   6.1239   6.1855   6.1926   6.2469   6.2525   6.3489   6.3620
     6.4163   6.4163   6.4605   6.4835   6.5267   6.5579   6.5593   6.5955
     6.5977   6.6628   6.6663   6.6858   6.6985   6.7227   6.7725   6.7732
     6.8067   6.8245   6.8615   6.8741   6.9009   6.9499   6.9587   6.9674
     6.9751   7.0117   7.0172   7.0620   7.1074   7.1136   7.1438   7.1696
     7.1839   7.2228   7.2653   7.2959   7.3194   7.3516   7.3541   7.3588
     7.4358   7.4832   7.5030   7.5161   7.5245   7.6103   7.6126   7.6922
     7.6989   7.7471   7.7486   7.8131   7.8211   7.8333   7.8895   7.9074
     7.9330   7.9917   7.9944   8.0758   8.0930   8.1565   8.1608   8.2566
     8.2792   8.3903   8.4198   8.4594   8.5827   8.5960   8.6684   8.7022
     8.7555   8.7557   8.7840   8.7912   8.8277   8.8733   8.9576   8.9927
     8.9970   9.0997   9.4588   9.8097   9.8508   9.9146   9.9652  10.0101
    10.1806  10.4609  10.6724  10.8694  11.3910  11.3917  12.0061  12.3167
    12.6517  12.9436  13.3711  14.0054  14.3945  14.7281  15.4052  15.5273
    15.6639  15.8354  15.8430  16.0071  16.2285  16.6273  17.0387  17.0544
    17.2055  17.2743  17.5663  17.6597

          k = 0.2500 0.4330 0.0000 ( 23431 PWs)   bands (ev):

     3.1089   3.2222   3.3978   3.6318   3.8993   4.1898   4.4659   4.6030
     4.6595   4.7739   4.7799   4.8091   4.8155   4.8635   4.8737   4.9209
     4.9833   4.9942   5.0279   5.0922   5.1021   5.1399   5.1547   5.2167
     5.2427   5.2473   5.3016   5.4075   5.4693   5.5003   5.5229   5.5548
     5.5568   5.6388   5.6642   5.6671   5.7351   5.7371   5.7946   5.8261
     5.8409   5.8838   5.9167   5.9298   5.9575   5.9786   6.0110   6.0210
     6.0616   6.0878   6.1020   6.1490   6.1500   6.1927   6.2668   6.2949
     6.3377   6.3630   6.4050   6.4481   6.5150   6.5188   6.5676   6.5797
     6.6108   6.6127   6.6617   6.6688   6.7000   6.7173   6.7427   6.7625
     6.8453   6.8863   6.8943   6.9697   6.9782   6.9801   7.0109   7.0288
     7.0317   7.0439   7.1598   7.1778   7.1844   7.2402   7.2703   7.2831
     7.3087   7.3552   7.3558   7.4030   7.4064   7.4384   7.4739   7.5190
     7.5514   7.5579   7.5648   7.6091   7.6425   7.6437   7.6579   7.6828
     7.7135   7.7303   7.7893   7.8293   7.8453   7.8859   7.8905   7.9508
     7.9537   8.0205   8.0548   8.0657   8.1076   8.1583   8.2450   8.2473
     8.3403   8.4295   8.4450   8.5739   8.5849   8.6443   8.7418   8.8085
     8.8094   8.8255   8.8362   8.8530   8.8553   8.8846   8.9843   9.0247
     9.1609   9.3082   9.8971  10.4196  10.4528  10.4814  10.5615  10.7111
    10.9496  11.2501  11.2795  11.7022  11.9864  12.2030  12.7807  12.9253
    13.3583  13.9820  14.0289  14.5394  14.8827  15.0664  15.6303  15.8092
    15.8806  15.8890  15.9924  16.1608  16.2940  16.4220  16.4491  16.6961
    16.9467  17.1939  17.4400  17.5158

          k = 0.2500 0.5774 0.0000 ( 23466 PWs)   bands (ev):

     3.7047   3.7863   3.9257   4.0888   4.2466   4.3986   4.5400   4.5514
     4.6502   4.6610   4.7244   4.7384   4.7688   4.8217   4.8647   4.8657
     4.9165   4.9820   5.0065   5.0343   5.0400   5.1305   5.1358   5.1621
     5.1754   5.1983   5.2142   5.2518   5.3002   5.3351   5.3372   5.3680
     5.4528   5.4791   5.5090   5.5749   5.5888   5.6602   5.7052   5.7440
     5.8157   5.8676   5.8746   5.9032   5.9494   5.9612   6.0064   6.0758
     6.1467   6.1522   6.2076   6.2231   6.2859   6.3996   6.4365   6.4549
     6.4562   6.5083   6.5317   6.5794   6.5944   6.6014   6.6202   6.6344
     6.6554   6.7051   6.7501   6.8063   6.8070   6.8436   6.8644   6.9158
     6.9601   6.9678   7.0063   7.0224   7.0872   7.1246   7.1707   7.2008
     7.2551   7.2956   7.3302   7.3551   7.3874   7.4887   7.4975   7.5088
     7.5204   7.5555   7.5558   7.6597   7.6967   7.7533   7.7844   7.8284
     7.8606   7.8640   7.9195   7.9327   7.9447   7.9677   8.0157   8.0512
     8.0540   8.0623   8.0930   8.1349   8.1364   8.1428   8.2019   8.2222
     8.2534   8.3324   8.3351   8.3486   8.3855   8.4328   8.4542   8.4936
     8.5132   8.5334   8.5801   8.5837   8.6543   8.7111   8.7367   8.7552
     8.7629   8.8237   8.8257   8.8454   8.8555   8.9511   8.9856   9.1479
     9.2240   9.7955  10.4744  11.0801  11.1329  11.1361  11.2909  11.4836
    11.7650  11.9332  12.1262  12.5612  12.6713  13.0467  13.5330  13.5428
    13.8090  13.8175  14.0199  14.2859  14.4589  14.7265  15.0290  15.0545
    15.1310  15.4716  15.6364  15.7327  15.9374  16.2699  16.4196  16.5515
    16.7169  17.0718  17.1360  17.5004

          k = 0.2500 0.7217 0.0000 ( 23545 PWs)   bands (ev):

     4.0656   4.1125   4.2646   4.3732   4.3811   4.4696   4.5019   4.5118
     4.5535   4.5757   4.5822   4.6451   4.6722   4.7244   4.7470   4.7737
     4.8259   4.8698   4.8804   4.8818   4.9173   4.9204   4.9349   5.0208
     5.0262   5.0750   5.1110   5.1165   5.1407   5.2186   5.2421   5.2542
     5.2835   5.3453   5.3978   5.4563   5.4950   5.5410   5.6288   5.6665
     5.8105   5.8161   5.8438   5.9026   5.9673   5.9978   6.0025   6.0901
     6.1114   6.2538   6.2986   6.3211   6.3605   6.3614   6.3989   6.4409
     6.5385   6.5423   6.5769   6.5846   6.5902   6.6586   6.7184   6.7282
     6.7610   6.7896   6.8202   6.8641   6.9049   6.9651   7.0519   7.0640
     7.1170   7.1238   7.2186   7.2266   7.2564   7.3044   7.3382   7.3568
     7.4533   7.4679   7.6001   7.6173   7.6389   7.6660   7.6825   7.8006
     7.8599   7.8996   7.9166   7.9206   7.9375   7.9768   8.0144   8.0975
     8.1268   8.1828   8.1921   8.2211   8.2311   8.2315   8.2808   8.3019
     8.3068   8.3290   8.3867   8.3975   8.4708   8.5370   8.5405   8.5509
     8.5721   8.5852   8.6056   8.6104   8.6590   8.6776   8.7068   8.7160
     8.7553   8.7731   8.8127   8.8705   8.8710   8.9145   8.9222   8.9319
     8.9382   9.1491   9.1732   9.1963   9.3036   9.3723   9.4605   9.6807
    10.1072  10.6883  11.3878  11.9031  11.9804  12.0075  12.0693  12.0862
    12.1564  12.2720  12.4307  12.5825  12.8105  12.8619  12.8728  13.0135
    13.3077  13.4309  13.5999  13.9216  14.1013  14.3166  14.3954  14.6862
    14.8259  15.2553  15.3030  15.4079  15.5505  15.7139  15.7902  16.0182
    16.0393  16.2340  16.3986  16.5290

          k = 0.2500-0.8660 0.0000 ( 23532 PWs)   bands (ev):

     4.1968   4.2456   4.2779   4.3040   4.4029   4.4286   4.4685   4.4790
     4.5553   4.5704   4.5849   4.6061   4.7376   4.7391   4.7497   4.7539
     4.7762   4.7855   4.7951   4.7961   4.8956   4.9010   4.9036   4.9192
     4.9456   4.9461   5.0327   5.0346   5.1059   5.1212   5.1981   5.2345
     5.2855   5.2901   5.3422   5.3442   5.4510   5.4649   5.6220   5.6508
     5.7872   5.8073   5.9319   5.9718   6.0082   6.0434   6.0698   6.0998
     6.1277   6.1329   6.2295   6.2409   6.3798   6.3810   6.4197   6.4226
     6.5184   6.5309   6.5739   6.5760   6.6348   6.6404   6.7278   6.7509
     6.7993   6.8271   6.8803   6.8839   6.9422   6.9680   7.1149   7.1407
     7.1874   7.2008   7.2808   7.2810   7.3958   7.4079   7.4382   7.4494
     7.5223   7.5333   7.6972   7.7089   7.7331   7.7493   7.8372   7.8582
     7.9452   7.9877   8.0573   8.0579   8.0701   8.0704   8.1039   8.1534
     8.2425   8.2620   8.2991   8.3470   8.3523   8.3614   8.3888   8.3939
     8.4020   8.4110   8.4280   8.4340   8.4434   8.4688   8.5208   8.5213
     8.5957   8.6157   8.7285   8.7317   8.7500   8.7531   8.7763   8.7895
     8.8506   8.8681   8.9034   8.9190   9.0234   9.0241   9.0372   9.0411
     9.1391   9.1711  10.3848  10.4194  10.4675  10.4810  10.5973  10.5998
    10.7332  10.7564  10.9215  10.9371  11.2102  11.2344  11.6081  11.6311
    12.1096  12.1230  12.7156  12.7403  13.2908  13.3066  13.5379  13.5581
    13.6404  13.6415  13.7326  13.7652  14.0157  14.0621  14.2255  14.2776
    14.5177  14.6263  14.6892  14.8143  14.9501  15.0399  15.3694  15.3808
    15.7268  15.7505  16.0021  16.0081

          k = 0.3750 0.0000 0.0000 ( 23492 PWs)   bands (ev):

     2.4809   2.6083   2.8244   3.0995   3.4371   3.6458   3.7577   3.8004
     3.9048   4.0758   4.1579   4.2388   4.3647   4.4309   4.4898   4.5824
     4.6209   4.6365   4.7332   4.7394   4.8360   4.8412   4.8432   4.9038
     4.9725   5.0131   5.1208   5.1822   5.2509   5.3439   5.3735   5.4644
     5.5511   5.5604   5.6615   5.6993   5.7762   5.8810   5.8867   5.9259
     5.9425   5.9810   6.0075   6.0719   6.0856   6.1193   6.1532   6.1841
     6.1971   6.2493   6.3354   6.4230   6.4348   6.4608   6.4919   6.5143
     6.5214   6.5501   6.5605   6.5778   6.5865   6.6095   6.6364   6.6437
     6.6550   6.6825   6.6990   6.7038   6.7441   6.7589   6.8021   6.8055
     6.8326   6.8414   6.8967   6.9092   6.9111   6.9300   6.9404   6.9609
     7.0029   7.0111   7.0358   7.0613   7.1030   7.1205   7.1373   7.2016
     7.2044   7.2065   7.2306   7.3044   7.3140   7.3499   7.4089   7.4282
     7.4935   7.4989   7.5145   7.5349   7.6145   7.6384   7.6452   7.6543
     7.6624   7.7692   7.7728   7.7921   7.8774   7.8882   7.9647   7.9684
     7.9846   7.9852   8.0106   8.0250   8.0423   8.0515   8.0647   8.0780
     8.0991   8.1254   8.1924   8.1971   8.2434   8.2583   8.2749   8.3197
     8.3552   8.3636   8.3869   8.4329   8.4598   8.5410   8.5617   8.5861
     8.6496   8.6860   8.7246   8.7951   8.8298   8.8449   8.8858   8.9440
     9.1726   9.4103   9.7721   9.9334  10.4353  10.6183  11.1185  11.3477
    11.8841  12.2709  12.6309  12.8771  13.5044  14.3849  14.9667  15.3785
    15.6379  15.8264  16.4953  17.0033  17.1982  17.2748  17.4413  17.6027
    17.8011  17.9668  18.2525  18.8082

          k = 0.3750 0.1443 0.0000 ( 23495 PWs)   bands (ev):

     2.6204   2.7451   2.9564   3.2264   3.5584   3.7801   3.8977   3.9187
     4.0314   4.1993   4.2791   4.3510   4.4738   4.5612   4.6018   4.7084
     4.7396   4.7504   4.8478   4.8629   4.9328   4.9536   4.9555   4.9781
     5.0596   5.0941   5.1997   5.2811   5.3345   5.3565   5.4151   5.5127
     5.5616   5.6025   5.6702   5.6918   5.7559   5.7950   5.8335   5.8489
     5.8686   5.9101   5.9497   5.9856   6.0258   6.0427   6.0838   6.0877
     6.1394   6.1394   6.1961   6.2330   6.2825   6.3209   6.3272   6.4185
     6.4211   6.4482   6.4569   6.4949   6.5173   6.5460   6.5568   6.5816
     6.5855   6.6518   6.6760   6.6767   6.6893   6.6959   6.7123   6.7397
     6.7570   6.7969   6.8219   6.8412   6.8702   6.9310   6.9544   6.9989
     7.0016   7.0461   7.0625   7.1026   7.1276   7.1340   7.1659   7.2062
     7.2248   7.2669   7.2795   7.2957   7.3420   7.3516   7.3781   7.3949
     7.4166   7.4585   7.4620   7.4784   7.5289   7.5660   7.6383   7.6923
     7.6982   7.7404   7.7489   7.7860   7.7893   7.8454   7.8642   7.9319
     7.9498   7.9930   8.0066   8.0103   8.1056   8.1205   8.1757   8.2073
     8.2400   8.2716   8.2788   8.3183   8.3923   8.4013   8.4437   8.4869
     8.4881   8.5349   8.5740   8.5763   8.5880   8.6307   8.6458   8.6871
     8.7175   8.7192   8.7499   8.7728   8.7984   8.8064   8.9741   9.1051
     9.3986   9.5531   9.9494  10.0779  10.5881  10.7714  11.2583  11.5104
    12.0262  12.4361  12.7629  13.1345  13.6342  14.4671  15.1805  15.4779
    15.7975  15.9305  16.6188  17.1226  17.2769  17.3627  17.4744  17.6332
    17.8967  18.0426  18.2883  18.7609

          k = 0.3750 0.2887 0.0000 ( 23497 PWs)   bands (ev):

     3.0005   3.1184   3.3071   3.5560   3.8547   4.1234   4.1847   4.2642
     4.3348   4.4598   4.5203   4.5571   4.6693   4.7924   4.8009   4.9263
     4.9424   4.9599   5.0897   5.0981   5.1661   5.1711   5.1837   5.2269
     5.2718   5.2766   5.3083   5.3521   5.4116   5.4961   5.4963   5.5621
     5.5951   5.6141   5.6257   5.6971   5.7004   5.7305   5.7412   5.7705
     5.8011   5.8129   5.8421   5.8617   5.9053   5.9075   5.9472   5.9717
     5.9790   6.0110   6.0297   6.0627   6.0972   6.1587   6.1658   6.2110
     6.2620   6.2955   6.3018   6.3594   6.3740   6.3970   6.4091   6.4191
     6.4948   6.4979   6.5507   6.5598   6.5929   6.5998   6.6340   6.7036
     6.7074   6.7321   6.7344   6.7518   6.8413   6.8526   6.8908   6.9477
     6.9592   6.9794   7.0285   7.1330   7.1406   7.2156   7.2381   7.2565
     7.3030   7.3195   7.3309   7.3698   7.3700   7.4293   7.4387   7.4541
     7.4766   7.4781   7.5646   7.5707   7.6015   7.6251   7.6369   7.6590
     7.6937   7.7211   7.7704   7.7904   7.8956   7.9152   7.9567   7.9681
     7.9698   8.0436   8.1026   8.1273   8.1505   8.1797   8.1891   8.2286
     8.3157   8.3263   8.3942   8.4551   8.5103   8.5656   8.6128   8.6143
     8.6340   8.6668   8.6837   8.7001   8.7030   8.7779   8.8342   8.8709
     8.9372   9.0583   9.1003   9.1105   9.1708   9.2761   9.3346   9.4987
     9.8433   9.8947  10.4082  10.4097  11.0198  11.1424  11.6642  11.8898
    12.4280  12.8229  13.1369  13.7942  13.9760  14.7637  15.7498  15.7783
    16.2201  16.2625  16.9295  17.4189  17.4944  17.5230  17.5794  17.7658
    18.0461  18.1480  18.3320  18.6701

          k = 0.3750 0.4330 0.0000 ( 23475 PWs)   bands (ev):

     3.4944   3.5911   3.7386   3.9327   4.1432   4.3659   4.3693   4.5124
     4.5696   4.5848   4.6666   4.7082   4.7407   4.7442   4.8554   4.8566
     4.9364   4.9469   5.0127   5.0749   5.1035   5.1268   5.1681   5.2183
     5.2248   5.2438   5.2863   5.3104   5.3221   5.3383   5.4069   5.4522
     5.5079   5.5837   5.5859   5.6315   5.6433   5.6572   5.6939   5.7383
     5.8048   5.8462   5.8736   5.9317   5.9731   5.9743   6.0427   6.0652
     6.0918   6.1120   6.1682   6.1724   6.2354   6.2418   6.2724   6.2933
     6.2936   6.3252   6.3638   6.4168   6.4308   6.4350   6.5098   6.5442
     6.5911   6.6176   6.6349   6.6519   6.6820   6.7213   6.7714   6.7946
     6.8484   6.8583   6.8757   6.8886   6.9045   6.9426   6.9757   6.9765
     7.0011   7.0588   7.1326   7.1429   7.1899   7.2307   7.2881   7.3753
     7.3939   7.4381   7.4650   7.4806   7.5080   7.5501   7.5534   7.5934
     7.6045   7.6609   7.6628   7.7088   7.7354   7.7864   7.8066   7.8407
     7.8785   7.8942   7.9322   7.9843   7.9920   8.0057   8.0732   8.0986
     8.1742   8.1826   8.1916   8.2323   8.2798   8.3432   8.3773   8.3879
     8.4067   8.4209   8.4940   8.5214   8.5760   8.6985   8.7156   8.7487
     8.7736   8.7760   8.7901   8.7931   8.8177   8.9095   8.9498   9.0398
     9.1203   9.5711   9.5884   9.6221   9.6262   9.7158   9.8685  10.1354
    10.2357  10.5302  10.8658  11.0330  11.6372  11.6398  12.2640  12.3882
    13.0168  13.2773  13.6871  14.4595  14.6527  15.3093  16.2385  16.2674
    16.4743  16.6196  16.7206  16.8330  16.9886  17.1078  17.4336  17.5152
    17.7216  17.7840  17.9798  18.0504

          k = 0.3750 0.5774 0.0000 ( 23521 PWs)   bands (ev):

     3.8519   3.9127   4.0655   4.2019   4.2759   4.3312   4.3892   4.4057
     4.4855   4.5043   4.5683   4.5692   4.6474   4.6905   4.6934   4.7701
     4.8174   4.8208   4.8465   4.8632   4.8948   4.9215   4.9376   4.9715
     5.0187   5.0227   5.0609   5.0991   5.1232   5.1642   5.2195   5.2240
     5.2904   5.3589   5.3717   5.3998   5.4856   5.4902   5.6288   5.6527
     5.7734   5.8601   5.9008   6.0227   6.0706   6.1110   6.1411   6.1674
     6.1848   6.3053   6.3275   6.3501   6.4009   6.4589   6.4752   6.5306
     6.5333   6.5411   6.5620   6.5848   6.6100   6.6291   6.6986   6.7304
     6.7559   6.7900   6.8442   6.8500   6.9054   6.9075   6.9638   7.0208
     7.0279   7.0723   7.1067   7.1495   7.1535   7.3002   7.3354   7.3362
     7.3826   7.4314   7.4879   7.5490   7.5574   7.6909   7.7233   7.7344
     7.7462   7.7558   7.7789   7.8502   7.9109   7.9324   7.9483   7.9638
     8.0132   8.0790   8.0925   8.1189   8.1522   8.1720   8.2001   8.2089
     8.2369   8.2616   8.2648   8.2731   8.3108   8.3161   8.3272   8.3319
     8.3506   8.3687   8.4145   8.4467   8.4721   8.4968   8.5361   8.5579
     8.5706   8.6081   8.6193   8.6806   8.7101   8.7207   8.7527   8.7834
     8.8462   8.8595   8.8722   8.8944   8.9036   8.9848   9.0185   9.1407
     9.4236  10.0573  10.0838  10.1326  10.2270  10.3514  10.5403  10.7758
    10.8393  11.2495  11.4794  11.7604  12.2777  12.3803  13.0003  13.0267
    13.7098  13.8237  14.2784  14.4872  14.5878  14.8600  14.9930  15.2650
    15.3314  15.5688  15.7423  15.8322  16.2288  16.4152  16.4819  16.7057
    16.8222  16.9047  17.1921  17.2665

          k = 0.3750 0.7217 0.0000 ( 23544 PWs)   bands (ev):

     3.9850   4.0206   4.1246   4.1846   4.2246   4.2814   4.3536   4.3748
     4.3844   4.3878   4.4735   4.4846   4.5235   4.5284   4.6092   4.6293
     4.6482   4.6663   4.6821   4.6965   4.7033   4.7079   4.7918   4.7989
     4.8172   4.8586   4.8736   4.9495   4.9803   5.0238   5.0563   5.0797
     5.1300   5.1922   5.2307   5.2558   5.3806   5.4152   5.5982   5.6351
     5.8353   5.8413   5.9529   6.0340   6.0456   6.1042   6.1455   6.1635
     6.2680   6.2826   6.3372   6.3688   6.3959   6.4242   6.4494   6.4585
     6.4997   6.5006   6.6178   6.6612   6.6885   6.7208   6.7659   6.7787
     6.8889   6.8940   6.9186   7.0394   7.0630   7.0698   7.1663   7.2031
     7.3204   7.3244   7.4224   7.4239   7.4927   7.5344   7.6442   7.6603
     7.7525   7.7571   7.7957   7.8984   7.9665   7.9675   8.0625   8.0737
     8.1120   8.2304   8.2461   8.3118   8.3210   8.3346   8.3937   8.3937
     8.4305   8.4367   8.5016   8.5097   8.5425   8.5493   8.5724   8.5895
     8.5901   8.6055   8.6107   8.6124   8.6373   8.6556   8.6888   8.6910
     8.6968   8.7089   8.7098   8.7265   8.7426   8.7542   8.7646   8.7686
     8.8016   8.8586   8.8671   8.8870   8.9122   8.9742   8.9919   9.0049
     9.0307   9.0604   9.1402   9.1837   9.3643   9.4673   9.5657   9.7412
    10.2018  10.7566  10.8433  10.8753  11.0396  11.2115  11.3836  11.5886
    11.6317  11.9507  12.2947  12.3341  12.6302  12.7620  12.8380  12.9874
    13.0397  13.1196  13.7857  13.8805  13.8955  14.1056  14.2766  14.3573
    14.4258  14.5015  14.6515  14.6848  14.9773  15.0370  15.2687  15.4418
    15.5457  15.9779  15.9904  16.3025

          k = 0.3750-0.8660 0.0000 ( 23556 PWs)   bands (ev):

     4.0074   4.0605   4.0852   4.1081   4.2310   4.2451   4.2962   4.3025
     4.3716   4.3868   4.3979   4.4197   4.5423   4.5432   4.5644   4.5675
     4.5846   4.5971   4.6076   4.6078   4.6804   4.6940   4.7038   4.7130
     4.7277   4.7606   4.8397   4.8666   4.9395   4.9421   5.0397   5.0554
     5.0746   5.0757   5.1778   5.1923   5.3510   5.3907   5.5833   5.6396
     5.8397   5.8494   6.0199   6.0232   6.1016   6.1242   6.1373   6.1688
     6.2227   6.2626   6.2998   6.3234   6.3690   6.3803   6.4207   6.4225
     6.4832   6.4844   6.6802   6.6971   6.7255   6.7300   6.7763   6.7884
     6.9161   6.9193   7.0518   7.0678   7.1371   7.1389   7.1854   7.2215
     7.3976   7.4051   7.5029   7.5292   7.5758   7.5788   7.7643   7.7674
     7.8297   7.8463   7.9585   7.9741   8.0865   8.0972   8.2040   8.2060
     8.2671   8.3012   8.3630   8.3878   8.4547   8.4839   8.5299   8.5449
     8.5614   8.5725   8.5975   8.6145   8.6311   8.6366   8.6401   8.6601
     8.7162   8.7167   8.7365   8.7396   8.7552   8.7604   8.7751   8.7809
     8.7978   8.8082   8.8227   8.8416   8.8517   8.8610   8.8751   8.8847
     8.9327   8.9381   8.9509   8.9709   9.0590   9.0663   9.0814   9.0829
     9.1123   9.1623  10.3346  10.4189  10.4738  10.5057  10.7450  10.7689
    10.9217  10.9582  11.0888  11.1070  11.2679  11.2978  11.5354  11.5763
    11.8866  11.9160  12.2756  12.3436  12.5237  12.5469  12.6341  12.7607
    12.7819  12.7939  12.8049  12.8087  13.7111  13.7311  13.8004  13.8339
    13.9567  14.2644  14.3266  14.4624  14.5356  14.8081  14.9017  14.9142
    15.2151  15.2909  15.7561  15.8335

          k =-0.5000 0.0000-0.0000 ( 23442 PWs)   bands (ev):

     3.1083   3.1083   3.2221   3.2221   3.4029   3.4029   3.6311   3.6311
     3.9043   3.9043   4.1875   4.1875   4.4585   4.4585   4.6609   4.6609
     4.7895   4.7895   4.9029   4.9029   4.9635   4.9635   5.1170   5.1170
     5.1448   5.1449   5.2496   5.2496   5.3224   5.3224   5.4339   5.4340
     5.5109   5.5110   5.6321   5.6321   5.7292   5.7292   5.8359   5.8359
     5.9462   5.9463   5.9670   5.9670   6.0364   6.0364   6.0667   6.0667
     6.1793   6.1793   6.2401   6.2401   6.3491   6.3491   6.4227   6.4227
     6.5356   6.5356   6.5812   6.5812   6.6191   6.6191   6.6493   6.6494
     6.6853   6.6854   6.7018   6.7018   6.7089   6.7089   6.7505   6.7506
     6.8001   6.8001   6.8535   6.8535   6.8922   6.8923   6.9542   6.9542
     6.9907   6.9907   7.1355   7.1355   7.1793   7.1793   7.1853   7.1854
     7.2279   7.2280   7.2675   7.2675   7.3346   7.3346   7.4051   7.4051
     7.4341   7.4341   7.4957   7.4957   7.5497   7.5497   7.5596   7.5596
     7.6100   7.6100   7.6234   7.6234   7.6859   7.6859   7.6988   7.6988
     7.7959   7.7959   7.8545   7.8546   7.8914   7.8914   7.9695   7.9696
     8.0411   8.0411   8.0904   8.0904   8.1084   8.1085   8.1606   8.1606
     8.2413   8.2415   8.3735   8.3735   8.4276   8.4276   8.5600   8.5601
     8.6965   8.6965   8.8161   8.8161   8.8354   8.8354   8.8645   8.8645
     9.3275   9.3275   9.8915   9.8915  10.4973  10.4974  11.2334  11.2334
    11.9853  11.9853  12.9243  12.9243  13.9778  13.9778  14.9037  14.9038
    15.8734  15.8736  16.4536  16.4553  17.4309  17.4314  17.8194  17.8198
    19.1423  19.1430  19.3265  19.3266

          k =-0.5000 0.1443-0.0000 ( 23476 PWs)   bands (ev):

     3.2398   3.2449   3.3565   3.3572   3.5267   3.5287   3.7505   3.7529
     4.0160   4.0172   4.2970   4.2999   4.5759   4.5779   4.7955   4.8005
     4.9268   4.9271   5.0245   5.0311   5.0745   5.0847   5.2120   5.2185
     5.2582   5.2596   5.3009   5.3125   5.3818   5.3850   5.4503   5.4642
     5.5337   5.5386   5.6347   5.6368   5.7009   5.7030   5.7737   5.7765
     5.8294   5.8355   5.8762   5.8829   5.9261   5.9327   5.9634   5.9642
     6.0506   6.0700   6.0741   6.0786   6.1371   6.2004   6.2818   6.3040
     6.3776   6.4206   6.4488   6.4580   6.5045   6.5113   6.5529   6.5586
     6.5939   6.5945   6.6188   6.6266   6.6629   6.6641   6.6804   6.6805
     6.6967   6.7008   6.7167   6.7178   6.7849   6.8188   6.9054   6.9093
     6.9817   6.9834   7.0851   7.0861   7.1638   7.1791   7.2050   7.2771
     7.3346   7.3350   7.3683   7.3711   7.3882   7.3959   7.4100   7.4181
     7.4540   7.4578   7.5411   7.5610   7.5839   7.5894   7.6454   7.6564
     7.7286   7.7380   7.7487   7.7540   7.7803   7.8076   7.8397   7.8426
     7.8652   7.8689   8.0263   8.0318   8.0670   8.0794   8.0871   8.0897
     8.1140   8.1284   8.2204   8.2242   8.2320   8.2435   8.2767   8.2810
     8.3029   8.3035   8.3660   8.3794   8.4195   8.4320   8.5275   8.5577
     8.6733   8.6891   8.7065   8.7116   8.7571   8.7596   9.0233   9.0289
     9.4575   9.4749  10.0037  10.0265  10.6024  10.6309  11.3537  11.3695
    12.0991  12.1217  13.0449  13.0474  14.1926  14.2061  15.0246  15.0371
    15.9906  15.9933  16.5503  16.5585  17.5667  17.5831  17.8767  17.8853
    19.2003  19.2075  19.4040  19.4257

          k =-0.5000 0.2887-0.0000 ( 23540 PWs)   bands (ev):

     3.5833   3.6013   3.7065   3.7085   3.8371   3.8416   4.0361   4.0438
     4.2564   4.2627   4.5042   4.5166   4.7626   4.7777   5.0155   5.0157
     5.2037   5.2057   5.2664   5.2951   5.3123   5.3285   5.3458   5.3505
     5.3900   5.3925   5.4028   5.4102   5.4359   5.4417   5.4891   5.4895
     5.5257   5.5283   5.5354   5.5462   5.6001   5.6073   5.6727   5.6804
     5.6874   5.7345   5.7711   5.7856   5.8056   5.8101   5.8374   5.8622
     5.9897   5.9957   6.0132   6.0577   6.0748   6.0767   6.0964   6.0968
     6.1408   6.1576   6.1932   6.2049   6.2886   6.2955   6.3747   6.3765
     6.4420   6.4451   6.5077   6.5086   6.5339   6.5341   6.5800   6.5808
     6.5833   6.5846   6.6510   6.6855   6.8746   6.9082   6.9792   6.9821
     6.9922   7.0068   7.0210   7.0601   7.1455   7.1676   7.2048   7.2213
     7.2534   7.2692   7.3122   7.3407   7.4132   7.4234   7.5504   7.5590
     7.6031   7.6066   7.6413   7.6485   7.6645   7.6895   7.7655   7.7691
     7.8645   7.8844   7.9428   7.9581   8.0195   8.0269   8.0715   8.0836
     8.1328   8.1729   8.2361   8.2369   8.2728   8.2962   8.3469   8.3530
     8.3844   8.3881   8.4217   8.4302   8.4633   8.4755   8.4856   8.4968
     8.5115   8.5166   8.5364   8.5485   8.5946   8.5969   8.6279   8.6299
     8.6756   8.6766   8.6920   8.7011   8.8786   8.8898   9.2710   9.2833
     9.7388   9.7698  10.3093  10.3448  10.9154  10.9645  11.6924  11.7182
    12.4227  12.4647  13.3481  13.3563  14.7593  14.7921  15.3957  15.4171
    16.3216  16.3362  16.8518  16.8763  17.9167  17.9641  18.0524  18.0659
    19.2575  19.2744  19.3871  19.4441

          k =-0.5000 0.4330-0.0000 ( 23522 PWs)   bands (ev):

     3.9184   3.9697   4.0493   4.0562   4.1518   4.1555   4.3009   4.3213
     4.4329   4.4527   4.5756   4.5944   4.7276   4.7484   4.8630   4.8661
     4.9757   4.9931   5.0187   5.0301   5.0857   5.1067   5.1372   5.1488
     5.1998   5.2072   5.2633   5.2876   5.3150   5.3277   5.4135   5.4179
     5.4934   5.5230   5.5320   5.5582   5.5819   5.6112   5.6929   5.6979
     5.7992   5.8058   5.9001   5.9070   5.9779   5.9991   6.0325   6.0328
     6.0766   6.0933   6.1509   6.1575   6.2174   6.2228   6.2699   6.2814
     6.3705   6.3709   6.3893   6.4349   6.4597   6.4611   6.4947   6.4974
     6.5479   6.5510   6.6437   6.6604   6.6976   6.6979   6.7250   6.7411
     6.7931   6.8107   6.8500   6.8578   6.8919   6.9285   6.9446   6.9599
     7.0125   7.0391   7.1255   7.1257   7.2117   7.2203   7.3733   7.3866
     7.4342   7.4728   7.5028   7.5267   7.5366   7.5487   7.5861   7.5943
     7.6129   7.6170   7.7314   7.7340   7.8288   7.8301   7.8661   7.8735
     7.9786   7.9945   8.1264   8.1561   8.1994   8.2074   8.2716   8.2740
     8.3773   8.3855   8.4529   8.4567   8.4799   8.4809   8.5512   8.5582
     8.5916   8.5950   8.6142   8.6279   8.6351   8.6743   8.7638   8.7713
     8.7857   8.7858   8.8162   8.8195   8.8555   8.8587   8.8666   8.8728
     8.9351   8.9354   9.0081   9.0106   9.2143   9.2158   9.6198   9.6371
    10.1348  10.1713  10.7612  10.7993  11.3936  11.4552  12.1909  12.2206
    12.9003  12.9580  13.7657  13.7797  15.4238  15.4852  15.9258  15.9592
    16.7595  16.7925  17.2043  17.2748  17.5702  17.6081  17.6948  17.7173
    17.9413  17.9640  18.1452  18.1546

          k =-0.5000 0.5774-0.0000 ( 23534 PWs)   bands (ev):

     4.0021   4.0644   4.1108   4.1259   4.2548   4.2609   4.3797   4.4134
     4.5029   4.5074   4.5126   4.5136   4.5818   4.5969   4.6433   4.6448
     4.7347   4.7507   4.7702   4.7780   4.8306   4.8329   4.8562   4.8650
     4.9454   4.9526   5.0016   5.0092   5.0954   5.1032   5.2175   5.2203
     5.2402   5.2450   5.2965   5.3277   5.4305   5.4466   5.6011   5.6399
     5.8031   5.8110   5.9835   5.9888   6.1065   6.1217   6.2227   6.2672
     6.3228   6.3311   6.3713   6.3725   6.4363   6.4473   6.4767   6.4795
     6.5046   6.5065   6.5756   6.5790   6.6258   6.6312   6.7199   6.7267
     6.7637   6.7701   6.8686   6.8826   6.9413   6.9472   7.0545   7.0564
     7.0911   7.0968   7.2119   7.2170   7.2495   7.2567   7.3687   7.3791
     7.4486   7.4490   7.5911   7.5935   7.6537   7.7004   7.7028   7.7736
     7.8393   7.8560   7.8908   7.9048   7.9082   7.9134   7.9860   8.0172
     8.0943   8.1237   8.1881   8.1915   8.2170   8.2207   8.2228   8.2265
     8.2499   8.2558   8.3009   8.3271   8.4189   8.4292   8.4412   8.4551
     8.5404   8.5567   8.5842   8.5850   8.5935   8.5996   8.6841   8.6959
     8.7330   8.7416   8.7618   8.7779   8.7974   8.8412   8.9070   8.9102
     8.9161   8.9590   9.1529   9.1541   9.2101   9.2120   9.3109   9.3153
     9.3618   9.3759   9.4584   9.4679   9.6872   9.7000  10.1208  10.1249
    10.6821  10.7104  11.3720  11.3985  12.0400  12.1057  12.8464  12.8754
    13.5397  13.6152  14.3051  14.3183  15.2919  15.3042  15.3815  15.3886
    15.5507  15.5661  15.7849  15.7877  15.9413  15.9897  16.3800  16.4007
    16.8667  16.8667  17.1844  17.1912

          k =-0.5000 0.7217-0.0000 ( 23516 PWs)   bands (ev):

     3.9643   4.0205   4.0503   4.0701   4.2054   4.2097   4.2873   4.2907
     4.3598   4.3689   4.3801   4.3968   4.5126   4.5198   4.5363   4.5421
     4.5712   4.5910   4.6098   4.6126   4.6624   4.6662   4.6857   4.6870
     4.7360   4.7682   4.8287   4.8607   4.9449   4.9487   5.0347   5.0414
     5.0577   5.0592   5.1732   5.1914   5.3477   5.3876   5.5762   5.6337
     5.8308   5.8507   6.0239   6.0293   6.1301   6.1644   6.1892   6.2268
     6.2861   6.3023   6.3281   6.3292   6.3824   6.3900   6.4411   6.4453
     6.4741   6.4810   6.6767   6.6861   6.7613   6.7650   6.8213   6.8403
     6.9025   6.9151   7.0541   7.0664   7.1244   7.1426   7.1784   7.2084
     7.3500   7.3628   7.5091   7.5505   7.5675   7.5754   7.7090   7.7295
     7.8478   7.8653   7.9453   7.9848   8.0213   8.0522   8.1604   8.1634
[...]
     5.1367   5.1911   5.2434   5.2844   5.3817   5.3897   5.4803   5.5342
     5.5986   5.6282   5.6709   5.7080   5.7943   5.8098   5.8448   5.9028
     5.9137   5.9357   5.9445   5.9759   6.0066   6.0493   6.0968   6.1008
     6.1174   6.1325   6.1725   6.2325   6.2619   6.2634   6.3199   6.3584
     6.4158   6.4257   6.4643   6.4733   6.5170   6.5579   6.5744   6.5945
     6.6099   6.6587   6.6819   6.6855   6.7069   6.7400   6.7680   6.7769
     6.7923   6.8316   6.8685   6.8723   6.9261   6.9332   6.9605   6.9766
     6.9852   7.0041   7.0156   7.0682   7.1085   7.1286   7.1429   7.1716
     7.1870   7.2204   7.2587   7.2856   7.3222   7.3459   7.3587   7.3609
     7.4335   7.4662   7.5106   7.5174   7.5569   7.6086   7.6326   7.6929
     7.7114   7.7538   7.7931   7.7962   7.8302   7.8555   7.8902   7.9028
     7.9604   7.9958   8.0142   8.0510   8.0959   8.1685   8.1723   8.2481
     8.2549   8.3855   8.3941   8.4478   8.5752   8.5906   8.6683   8.7002
     8.7560   8.7575   8.7775   8.7919   8.8347   8.8738   8.9466   8.9749
     8.9969   9.0251   9.4383   9.8157   9.8520   9.9045   9.9152  10.0035
    10.1762  10.4623  10.6493  10.8801  11.3298  11.4103  12.0277  12.3135
    12.6788  12.9125  13.3791  14.0227  14.4149  14.6917  15.3979  15.5008
    15.6674  15.8275  15.8538  16.0086  16.2051  16.6020  17.0333  17.0578
    17.2163  17.2680  17.5637  17.6379

          k =-0.2500 0.4330-0.0000 ( 23431 PWs)   bands (ev):

     3.0847   3.2240   3.3871   3.6381   3.9010   4.1962   4.4690   4.5297
     4.6558   4.7459   4.7500   4.8088   4.8215   4.8637   4.8703   4.9115
     4.9518   5.0001   5.0550   5.0957   5.1227   5.1450   5.1915   5.2231
     5.2427   5.2492   5.3072   5.4349   5.4835   5.4975   5.5106   5.5531
     5.5630   5.6285   5.6688   5.6757   5.7093   5.7511   5.7913   5.8333
     5.8409   5.9003   5.9209   5.9295   5.9686   5.9880   6.0011   6.0240
     6.0492   6.0911   6.1015   6.1452   6.1592   6.2255   6.2764   6.2779
     6.3503   6.3609   6.3991   6.4566   6.4901   6.5251   6.5670   6.5840
     6.6102   6.6253   6.6588   6.6711   6.7008   6.7164   6.7377   6.7467
     6.8460   6.8913   6.9040   6.9788   6.9824   6.9846   7.0113   7.0277
     7.0514   7.0906   7.1755   7.1803   7.1983   7.2560   7.2621   7.2879
     7.2961   7.3334   7.3758   7.3771   7.4133   7.4488   7.4596   7.5153
     7.5542   7.5757   7.5868   7.5996   7.6308   7.6525   7.6571   7.6811
     7.7352   7.7380   7.7879   7.8401   7.8780   7.8979   7.9067   7.9449
     7.9704   8.0158   8.0666   8.0730   8.1021   8.1561   8.2017   8.2502
     8.3444   8.4269   8.4318   8.5692   8.6050   8.6483   8.7446   8.7935
     8.8130   8.8271   8.8419   8.8486   8.8594   8.8938   8.9751   9.0311
     9.0722   9.2674   9.8680  10.4152  10.4225  10.4492  10.5605  10.7033
    10.9471  11.2245  11.2799  11.7118  11.9211  12.2238  12.8019  12.9244
    13.3970  13.9333  14.0295  14.5652  14.9061  14.9540  15.5854  15.7963
    15.8585  15.8840  15.9825  16.1525  16.2919  16.4363  16.4426  16.6568
    16.9780  17.2249  17.4600  17.5462

          k =-0.2500 0.5774-0.0000 ( 23466 PWs)   bands (ev):

     3.6507   3.7915   3.9099   4.1064   4.2598   4.4121   4.5089   4.5517
     4.6406   4.6477   4.7211   4.7432   4.7434   4.8287   4.8508   4.8568
     4.9167   4.9804   5.0086   5.0342   5.0434   5.1352   5.1426   5.1715
     5.1802   5.1803   5.2239   5.2622   5.3046   5.3428   5.3474   5.3744
     5.4539   5.4558   5.5155   5.5668   5.5888   5.6691   5.7448   5.7475
     5.8098   5.8562   5.8793   5.9258   5.9501   5.9668   6.0357   6.0597
     6.1476   6.1549   6.2232   6.2267   6.2940   6.3814   6.4352   6.4449
     6.4825   6.5071   6.5390   6.5793   6.5857   6.6031   6.6264   6.6387
     6.6648   6.6944   6.7488   6.7702   6.8196   6.8466   6.8755   6.9210
     6.9559   6.9678   6.9985   7.0210   7.1130   7.1249   7.1450   7.2102
     7.2301   7.2933   7.3390   7.3452   7.4593   7.4711   7.5094   7.5176
     7.5187   7.5425   7.5972   7.6306   7.7279   7.7340   7.8125   7.8234
     7.8447   7.8700   7.9110   7.9274   7.9782   7.9871   8.0020   8.0533
     8.0617   8.0786   8.0897   8.1283   8.1291   8.1632   8.1874   8.2232
     8.2443   8.3208   8.3348   8.3430   8.3906   8.4401   8.4792   8.4981
     8.5085   8.5365   8.5971   8.6115   8.6525   8.7093   8.7369   8.7441
     8.7824   8.8294   8.8390   8.8506   8.8662   8.9488   8.9939   9.0483
     9.1972   9.7585  10.4485  11.0704  11.0817  11.1316  11.2903  11.4731
    11.7609  11.9090  12.1195  12.5615  12.6081  13.0605  13.5338  13.5680
    13.7666  13.8479  13.9986  14.2934  14.4641  14.6971  14.9861  15.0340
    15.1060  15.4896  15.6594  15.7116  15.9155  16.2801  16.4316  16.5124
    16.7319  17.1619  17.2447  17.5299

          k =-0.2500 0.7217-0.0000 ( 23545 PWs)   bands (ev):

     4.0003   4.1266   4.2550   4.3830   4.4143   4.4438   4.5069   4.5122
     4.5403   4.5819   4.5968   4.6436   4.6916   4.7010   4.7239   4.7773
     4.8385   4.8520   4.8802   4.8948   4.9121   4.9204   4.9274   5.0234
     5.0336   5.0834   5.1069   5.1115   5.1522   5.2205   5.2352   5.2417
     5.3089   5.3224   5.3923   5.4702   5.4737   5.5517   5.6521   5.6663
     5.7990   5.8051   5.8541   5.9255   5.9800   6.0124   6.0159   6.0826
     6.1215   6.2523   6.3073   6.3124   6.3588   6.3648   6.4085   6.4594
     6.5242   6.5357   6.5744   6.5787   6.5947   6.6631   6.7170   6.7315
     6.7816   6.7829   6.8130   6.8802   6.9326   6.9599   7.0371   7.0417
     7.1156   7.1217   7.1907   7.2290   7.2667   7.2852   7.3276   7.3911
     7.4608   7.5055   7.5777   7.6014   7.6462   7.6643   7.7345   7.7430
     7.8749   7.8945   7.9015   7.9384   7.9529   7.9534   8.0577   8.0590
     8.1283   8.1675   8.1710   8.2016   8.2270   8.2502   8.2506   8.3130
     8.3190   8.3416   8.3896   8.4614   8.4695   8.5321   8.5423   8.5516
     8.5680   8.5888   8.6076   8.6255   8.6669   8.6717   8.6849   8.7357
     8.7477   8.7588   8.8356   8.8903   8.8920   8.9113   8.9164   8.9325
     8.9415   9.0728   9.1495   9.2109   9.3100   9.3903   9.4717   9.6946
    10.1090  10.6726  11.3776  11.9172  11.9827  12.0128  12.0350  12.0766
    12.1684  12.2890  12.4464  12.4804  12.6167  12.8519  12.8722  13.0357
    13.3338  13.4564  13.5349  13.8705  14.0830  14.3154  14.5318  14.7655
    14.9933  15.1963  15.2920  15.3983  15.5651  15.6346  15.7991  15.9449
    16.0998  16.2331  16.3741  16.5580

          k =-0.3750 0.1443-0.0000 ( 23495 PWs)   bands (ev):

     2.6155   2.7455   2.9538   3.2275   3.5581   3.7800   3.8970   3.9191
     4.0310   4.1968   4.2779   4.3488   4.4703   4.5575   4.5998   4.7083
     4.7428   4.7484   4.8299   4.8496   4.9276   4.9535   4.9556   4.9807
     5.0627   5.0973   5.1977   5.2731   5.3495   5.3792   5.4158   5.4957
     5.5762   5.5879   5.6701   5.6885   5.7439   5.7924   5.8403   5.8431
     5.8756   5.9136   5.9434   5.9884   6.0238   6.0424   6.1067   6.1083
     6.1312   6.1524   6.1963   6.2280   6.2849   6.3056   6.3856   6.4082
     6.4265   6.4484   6.4570   6.4970   6.5191   6.5385   6.5571   6.5676
     6.5972   6.6349   6.6649   6.6721   6.6891   6.6912   6.7184   6.7368
     6.7788   6.8104   6.8225   6.8463   6.8480   6.9480   6.9499   7.0135
     7.0170   7.0448   7.0626   7.0861   7.1299   7.1394   7.1649   7.2116
     7.2251   7.2784   7.2997   7.3010   7.3535   7.3609   7.3851   7.4063
     7.4176   7.4610   7.4639   7.4896   7.5430   7.5436   7.6140   7.6939
     7.7062   7.7447   7.7449   7.7957   7.8036   7.8329   7.8441   7.9415
     7.9570   7.9822   7.9902   8.0350   8.0868   8.1124   8.1683   8.1961
     8.2476   8.2548   8.2788   8.3119   8.3723   8.3944   8.4508   8.4757
     8.4831   8.5350   8.5491   8.5601   8.5941   8.6341   8.6527   8.6845
     8.7060   8.7218   8.7437   8.7983   8.7988   8.8167   8.9634   9.0965
     9.4065   9.5349   9.9679  10.0429  10.6096  10.7544  11.2800  11.4778
    12.0386  12.4345  12.7778  13.1182  13.6259  14.4811  15.1883  15.4755
    15.7871  15.9370  16.6175  17.1384  17.2819  17.3570  17.4592  17.6333
    17.8789  18.0374  18.2887  18.7511

          k =-0.3750 0.2887-0.0000 ( 23497 PWs)   bands (ev):

     2.9859   3.1195   3.3002   3.5601   3.8556   4.1201   4.1890   4.2638
     4.3345   4.4580   4.5220   4.5504   4.6556   4.7845   4.7853   4.9029
     4.9393   4.9581   5.0518   5.0853   5.1634   5.1802   5.1844   5.2284
     5.2846   5.3169   5.3326   5.3435   5.4196   5.4981   5.5122   5.5604
     5.6049   5.6374   5.6445   5.6895   5.6897   5.7375   5.7394   5.7611
     5.7834   5.7936   5.8569   5.8633   5.8844   5.8977   5.9487   5.9621
     5.9670   5.9902   6.0275   6.0916   6.1116   6.1514   6.1978   6.2555
     6.2612   6.2987   6.3120   6.3379   6.3687   6.4066   6.4194   6.4329
     6.4976   6.5057   6.5533   6.5550   6.5970   6.6063   6.6453   6.7030
     6.7128   6.7337   6.7351   6.7628   6.8256   6.8751   6.8788   6.9533
     6.9549   6.9808   7.0391   7.1017   7.1485   7.1911   7.2461   7.2662
     7.2809   7.3248   7.3421   7.3681   7.3709   7.4210   7.4307   7.4626
     7.4686   7.4887   7.5823   7.5878   7.6049   7.6321   7.6412   7.6594
     7.7044   7.7356   7.7862   7.8286   7.8895   7.9471   7.9574   7.9804
     7.9924   8.0467   8.1032   8.1107   8.1541   8.1718   8.1814   8.2282
     8.2692   8.3162   8.3949   8.4651   8.4686   8.5575   8.6031   8.6189
     8.6317   8.6656   8.6771   8.6997   8.7188   8.7349   8.8301   8.8472
     8.9343   9.0642   9.1003   9.1134   9.1671   9.2716   9.3054   9.4992
     9.8113   9.9081  10.3501  10.4353  11.0503  11.1152  11.7017  11.8349
    12.4474  12.8228  13.1665  13.7588  13.9560  14.7874  15.7663  15.7718
    16.2003  16.2791  16.9286  17.4337  17.4471  17.5106  17.5931  17.7497
    18.0207  18.1406  18.3203  18.6889

          k =-0.3750 0.4330-0.0000 ( 23475 PWs)   bands (ev):

     3.4559   3.5946   3.7262   3.9448   4.1509   4.3761   4.3827   4.5000
     4.5501   4.5954   4.6529   4.7074   4.7323   4.7367   4.8240   4.8374
     4.9374   4.9385   5.0430   5.0760   5.0911   5.1392   5.1678   5.2223
     5.2369   5.2626   5.2871   5.2872   5.3248   5.3452   5.4211   5.4548
     5.5046   5.5692   5.5862   5.6201   5.6506   5.6760   5.6964   5.7619
     5.8031   5.8688   5.8758   5.9282   5.9642   5.9984   6.0228   6.0620
     6.1066   6.1148   6.1645   6.1708   6.2269   6.2456   6.2796   6.2923
     6.3049   6.3427   6.3736   6.3944   6.4158   6.4662   6.4996   6.5481
     6.5896   6.6171   6.6404   6.6412   6.6842   6.7147   6.7254   6.7777
     6.8440   6.8726   6.8764   6.8775   6.9103   6.9406   6.9744   6.9944
     7.0067   7.1182   7.1320   7.1507   7.2050   7.2280   7.2997   7.3487
     7.3992   7.4046   7.4697   7.4825   7.5144   7.5479   7.5688   7.6067
     7.6100   7.6754   7.6760   7.7038   7.7336   7.7861   7.8045   7.8714
     7.8947   7.9124   7.9342   7.9833   7.9902   8.0183   8.1034   8.1228
     8.1690   8.1823   8.2087   8.2607   8.2676   8.3297   8.3499   8.3589
     8.4077   8.4182   8.5152   8.5400   8.5516   8.6885   8.7187   8.7467
     8.7737   8.7790   8.7885   8.8057   8.8250   8.8872   8.9551   8.9682
     9.0988   9.5736   9.5778   9.5881   9.6264   9.7070   9.8628  10.1331
    10.1968  10.5402  10.7952  11.0580  11.6088  11.6662  12.3123  12.3211
    13.0384  13.2814  13.7332  14.4222  14.5926  15.3376  16.2353  16.2651
    16.3966  16.6309  16.7185  16.8669  16.9535  17.0988  17.4038  17.5257
    17.7519  17.7535  17.9870  18.1094

          k =-0.3750 0.5774-0.0000 ( 23521 PWs)   bands (ev):

     3.7874   3.9217   4.0457   4.2285   4.3135   4.3490   4.3638   4.4130
     4.4715   4.4970   4.5664   4.5707   4.6570   4.6728   4.6749   4.7684
     4.8050   4.8181   4.8479   4.8649   4.8992   4.9264   4.9276   4.9906
     5.0119   5.0245   5.0735   5.0898   5.1219   5.1748   5.2165   5.2245
     5.3154   5.3398   5.3444   5.4008   5.4974   5.5057   5.6144   5.7002
     5.7670   5.8704   5.9183   6.0380   6.0659   6.1257   6.1470   6.1534
     6.2110   6.2864   6.3171   6.3628   6.3923   6.4545   6.4729   6.5287
     6.5333   6.5462   6.5628   6.5806   6.6112   6.6244   6.6862   6.7374
     6.7548   6.7801   6.8374   6.8705   6.9160   6.9225   6.9491   7.0152
     7.0289   7.0603   7.0979   7.1639   7.1800   7.2498   7.3258   7.3587
     7.3822   7.4514   7.4555   7.5076   7.5746   7.6541   7.7162   7.7290
     7.7361   7.7926   7.8310   7.8520   7.9147   7.9605   7.9646   7.9866
     8.0182   8.0896   8.0992   8.1141   8.1425   8.1557   8.2063   8.2089
     8.2402   8.2534   8.2632   8.2880   8.2984   8.3152   8.3285   8.3369
     8.3607   8.3980   8.4303   8.4492   8.4689   8.5009   8.5330   8.5578
     8.5958   8.6099   8.6373   8.6853   8.7231   8.7261   8.7518   8.7935
     8.8580   8.8680   8.8751   8.9057   8.9071   8.9666   9.0255   9.0478
     9.3991  10.0135  10.0926  10.1263  10.2306  10.3357  10.5314  10.7430
    10.8265  11.2464  11.4069  11.7747  12.2478  12.3953  12.9523  13.0552
    13.7346  13.8270  14.2948  14.4926  14.6004  14.8255  15.0009  15.2429
    15.2587  15.5962  15.7544  15.8624  16.2159  16.3936  16.5214  16.7009
    16.7454  16.9139  17.2286  17.2326

          k =-0.3750 0.7217-0.0000 ( 23544 PWs)   bands (ev):

     3.9228   4.0371   4.1700   4.1756   4.1987   4.3031   4.3286   4.3740
     4.3877   4.3992   4.4917   4.4991   4.5041   4.5179   4.5797   4.6382
     4.6596   4.6611   4.6883   4.6959   4.6985   4.7116   4.7664   4.8099
     4.8263   4.8662   4.8889   4.9339   4.9807   5.0191   5.0579   5.0746
     5.1615   5.1879   5.2054   5.2538   5.3879   5.4159   5.5892   5.6532
     5.8205   5.8497   5.9720   6.0489   6.0823   6.1034   6.1380   6.1790
     6.2422   6.2662   6.3417   6.3674   6.3880   6.4101   6.4580   6.4621
     6.5013   6.5079   6.5976   6.6849   6.6960   6.7479   6.7527   6.7644
     6.8718   6.8920   6.9585   7.0216   7.0441   7.0913   7.1806   7.1863
     7.3104   7.3324   7.4141   7.4805   7.4838   7.4931   7.6484   7.6676
     7.7218   7.7701   7.8081   7.9036   7.9674   7.9807   8.0344   8.0682
     8.0829   8.2137   8.2722   8.3042   8.3100   8.3379   8.3714   8.3860
     8.4491   8.4511   8.5117   8.5159   8.5376   8.5523   8.5718   8.5814
     8.5947   8.6046   8.6048   8.6279   8.6558   8.6666   8.6686   8.6939
     8.6964   8.7111   8.7243   8.7251   8.7474   8.7494   8.7711   8.7913
     8.8180   8.8700   8.8767   8.8856   8.9369   8.9815   8.9902   9.0034
     9.0354   9.0625   9.0821   9.1242   9.3591   9.4954   9.5840   9.7725
    10.2186  10.8000  10.8309  10.8594  11.0571  11.1885  11.3716  11.5864
    11.6046  11.9159  12.2677  12.2761  12.5608  12.7010  12.7830  13.0012
    13.0468  13.1001  13.7560  13.7967  13.9036  14.2692  14.3623  14.3799
    14.4662  14.5543  14.7174  14.8926  14.9950  15.0281  15.0753  15.3628
    15.5163  15.9043  15.9933  16.3087

     the Fermi energy is    10.7275 ev

!    total energy              =  -20153.49326711 Ry

     total all-electron energy =   -988623.491634 Ry
     estimated scf accuracy    <       0.00000044 Ry
     smearing contrib. (-TS)   =      -0.02238689 Ry
     internal energy E=F+TS    =  -20153.47088021 Ry

     The total energy is F=E-TS. E is the sum of the following terms:
     one-electron contribution =   -8805.26531197 Ry
     hartree contribution      =    4728.12802048 Ry
     xc contribution           =    -833.63896551 Ry
     ewald contribution        =    2762.65395886 Ry
     one-center paw contrib.   =  -18005.34858207 Ry

     convergence has been achieved in  32 iterations

     negative rho (up, down):  2.445E-03 0.000E+00

     Forces acting on atoms (cartesian axes, Ry/au):

     atom    1 type  1   force =    -0.00007375   -0.00001549   -0.00312179
     atom    2 type  1   force =     0.00004125    0.00000153    0.00354333
     atom    3 type  1   force =     0.00008877   -0.00001949    0.00087144
     atom    4 type  1   force =     0.02088780    0.00812853   -0.04996817
     atom    5 type  1   force =    -0.00000945    0.00002753    0.00011930
     atom    6 type  1   force =     0.00009746    0.00000266    0.00477354
     atom    7 type  1   force =    -0.00006207   -0.00001286    0.00095221
     atom    8 type  1   force =    -0.02084608   -0.00812481    0.04950053
     atom    9 type  1   force =    -0.00001302    0.00000719   -0.00056162
     atom   10 type  1   force =     0.00003696   -0.00000082   -0.00087399
     atom   11 type  1   force =    -0.00012502   -0.00000123   -0.00478788
     atom   12 type  1   force =    -0.00023002    0.00055661    0.00228625
     atom   13 type  1   force =     0.00019014   -0.00055789   -0.00273144
     atom   14 type  1   force =     0.00009449    0.00000654    0.00477703
     atom   15 type  1   force =    -0.00005959   -0.00001539    0.00095802
     atom   16 type  1   force =    -0.02084303   -0.00812603    0.04949684
     atom   17 type  1   force =    -0.00001542    0.00000666   -0.00055529
     atom   18 type  1   force =     0.00003385   -0.00000030   -0.00086785
     atom   19 type  1   force =    -0.00011572    0.00000192   -0.00479442
     atom   20 type  1   force =    -0.00022850    0.00055632    0.00228666
     atom   21 type  1   force =     0.00019485   -0.00055854   -0.00273665
     atom   22 type  1   force =    -0.00006390   -0.00001448   -0.00312637
     atom   23 type  1   force =     0.00004891    0.00000544    0.00354441
     atom   24 type  1   force =     0.00008825   -0.00001964    0.00088007
     atom   25 type  1   force =     0.02089152    0.00813628   -0.04997917
     atom   26 type  1   force =    -0.00000870    0.00002975    0.00011504

     Total force =     0.109862     Total SCF correction =     0.004022

     Writing all to output data dir ./pwscf.save/
 
     init_run     :     27.86s CPU     28.39s WALL (       1 calls)
     electrons    :   2232.24s CPU   2253.57s WALL (       1 calls)
     forces       :      8.41s CPU      8.51s WALL (       1 calls)

     Called by init_run:
     wfcinit      :     27.10s CPU     27.54s WALL (       1 calls)
     potinit      :      0.35s CPU      0.40s WALL (       1 calls)
     hinit0       :      0.31s CPU      0.35s WALL (       1 calls)

     Called by electrons:
     c_bands      :   2029.54s CPU   2048.38s WALL (      33 calls)
     sum_band     :    192.95s CPU    194.56s WALL (      33 calls)
     v_of_rho     :      0.67s CPU      1.00s WALL (      33 calls)
     newd         :      1.76s CPU      1.93s WALL (      33 calls)
     PAW_pot      :      7.47s CPU      7.51s WALL (      33 calls)
     mix_rho      :      0.12s CPU      0.13s WALL (      33 calls)

     Called by c_bands:
     init_us_2    :      5.11s CPU      5.22s WALL (    3400 calls)
     init_us_2:cp :      5.10s CPU      5.22s WALL (    3400 calls)
     cegterg      :   1955.54s CPU   1973.48s WALL (    1650 calls)

     Called by *egterg:
     cdiaghg      :    218.19s CPU    221.32s WALL (    9193 calls)
     h_psi        :   1169.84s CPU   1179.46s WALL (    9293 calls)
     s_psi        :    120.53s CPU    121.17s WALL (    9293 calls)
     g_psi        :      2.39s CPU      2.41s WALL (    7593 calls)

     Called by h_psi:
     h_psi:calbec :    156.93s CPU    157.63s WALL (    9293 calls)
     vloc_psi     :    885.54s CPU    891.47s WALL (    9293 calls)
     add_vuspsi   :    125.87s CPU    126.33s WALL (    9293 calls)

     General routines
     calbec       :    222.37s CPU    223.34s WALL (   11143 calls)
     fft          :      0.84s CPU      1.28s WALL (     375 calls)
     ffts         :      0.05s CPU      0.06s WALL (      33 calls)
     fftw         :    981.43s CPU    988.02s WALL ( 1678922 calls)
 
     Parallel routines
 
     PWSCF        :  37m56.81s CPU  38m37.98s WALL

 
   This run was terminated on:   0:39:36  16Feb2024            

=------------------------------------------------------------------------------=
   JOB DONE.
=------------------------------------------------------------------------------=
