MPI startup(): Warning: I_MPI_PMI_LIBRARY will be ignored since the hydra process manager was found
MPI startup(): Warning: I_MPI_PMI_LIBRARY will be ignored since the hydra process manager was found
MPI startup(): Warning: I_MPI_PMI_LIBRARY will be ignored since the hydra process manager was found
MPI startup(): Warning: I_MPI_PMI_LIBRARY will be ignored since the hydra process manager was found
MPI startup(): Warning: I_MPI_PMI_LIBRARY will be ignored since the hydra process manager was found
MPI startup(): Warning: I_MPI_PMI_LIBRARY will be ignored since the hydra process manager was found
MPI startup(): Warning: I_MPI_PMI_LIBRARY will be ignored since the hydra process manager was found
MPI startup(): Warning: I_MPI_PMI_LIBRARY will be ignored since the hydra process manager was found
MPI startup(): Warning: I_MPI_PMI_LIBRARY will be ignored since the hydra process manager was found
MPI startup(): Warning: I_MPI_PMI_LIBRARY will be ignored since the hydra process manager was found

     Program PWSCF v.7.0 starts on 15Feb2024 at 19:26:50 

     This program is part of the open-source Quantum ESPRESSO suite
     for quantum simulation of materials; please cite
         "P. Giannozzi et al., J. Phys.:Condens. Matter 21 395502 (2009);
         "P. Giannozzi et al., J. Phys.:Condens. Matter 29 465901 (2017);
         "P. Giannozzi et al., J. Chem. Phys. 152 154105 (2020);
          URL http://www.quantum-espresso.org", 
     in publications or presentations arising from this work. More details at
     http://www.quantum-espresso.org/quote

     Parallel version (MPI), running on    10 processors

     MPI processes distributed on     1 nodes
     R & G space division:  proc/nbgrp/npool/nimage =      10
     171190 MiB available memory on the printing compute node when the environment starts
 
     Reading input from GSF111_0.0.in
Warning: card &CELL ignored
Warning: card / ignored

     Current dimensions of program PWSCF are:
     Max number of different atomic species (ntypx) = 10
     Max number of k-points (npk) =  40000
     Max angular momentum in pseudopotentials (lmaxx) =  4
     file Au.pbe-n-kjpaw_psl.1.0.0.UPF: wavefunction(s)  6S 5D renormalized
     Found identity + ( -0.5000  0.5000  0.0000) symmetry
     This is a supercell, fractional translations are disabled
     Message from routine setup:
     using ibrav=0 with symmetry is DISCOURAGED, use correct ibrav instead

     Subspace diagonalization in iterative solution of the eigenvalue problem:
     one sub-group per band group will be used
     scalapack distributed-memory algorithm (size of sub-group:  3*  3 procs)

 
     Parallelization info
     --------------------
     sticks:   dense  smooth     PW     G-vecs:    dense   smooth      PW
     Min          85      85     25                18799    18799    3045
     Max          87      87     26                18816    18816    3065
     Sum         859     859    251               188065   188065   30575
 
     Using Slab Decomposition
 


     bravais-lattice index     =            0
     lattice parameter (alat)  =       9.6360  a.u.
     unit-cell volume          =    3935.2145 (a.u.)^3
     number of atoms/cell      =           26
     number of atomic types    =            1
     number of electrons       =       286.00
     number of Kohn-Sham states=          172
     kinetic-energy cutoff     =      50.0000  Ry
     charge density cutoff     =     200.0000  Ry
     scf convergence threshold =      1.0E-06
     mixing beta               =       0.7000
     number of iterations used =            8  plain     mixing
     Exchange-correlation= SLA  PW   PBX  PBC
                           (   1   4   3   4   0   0   0)

     celldm(1)=   9.635999  celldm(2)=   0.000000  celldm(3)=   0.000000
     celldm(4)=   0.000000  celldm(5)=   0.000000  celldm(6)=   0.000000

     crystal axes: (cart. coord. in units of alat)
               a(1) = (   1.000000   0.000000   0.000000 )  
               a(2) = (   0.000000   0.577350   0.000000 )  
               a(3) = (  -0.000005   0.000000   7.617966 )  

     reciprocal axes: (cart. coord. in units 2 pi/alat)
               b(1) = (  1.000000  0.000000  0.000001 )  
               b(2) = (  0.000000  1.732052  0.000000 )  
               b(3) = (  0.000000  0.000000  0.131269 )  


     PseudoPot. # 1 for Au read from file:
     ./Au.pbe-n-kjpaw_psl.1.0.0.UPF
     MD5 check sum: 4db85c736373c707a97ce4c36c2a9d23
     Pseudo is Projector augmented-wave + core cor, Zval = 11.0
     Generated using &quot;atomic&quot; code by A. Dal Corso  v.6.3
     Shape of augmentation charge: PSQ
     Using radial grid of 1279 points,  6 beta functions with: 
                l(1) =   0
                l(2) =   0
                l(3) =   1
                l(4) =   1
                l(5) =   2
                l(6) =   2
     Q(r) pseudized with 0 coefficients 


     atomic species   valence    mass     pseudopotential
        Au            11.00   196.96657     Au( 1.00)

      2 Sym. Ops. (no inversion) found



   Cartesian axes

     site n.     atom                  positions (alat units)
         1           Au  tau(   1) = (   0.0000000   0.0000000   0.0000000  )
         2           Au  tau(   2) = (   0.9999954   0.0000000   5.6568550  )
         3           Au  tau(   3) = (   0.9999966   0.0000000   4.2426411  )
         4           Au  tau(   4) = (   0.9999976   0.0000000   2.8284275  )
         5           Au  tau(   5) = (   0.9999988   0.0000000   1.4142138  )
         6           Au  tau(   6) = (   0.3333329   0.0000000   0.4714045  )
         7           Au  tau(   7) = (   0.3333296   0.0000000   4.7140455  )
         8           Au  tau(   8) = (   0.3333308   0.0000000   3.2998319  )
         9           Au  tau(   9) = (   0.3333318   0.0000000   1.8856185  )
        10           Au  tau(  10) = (   0.6666659   0.0000000   0.9428093  )
        11           Au  tau(  11) = (   0.6666625   0.0000000   5.1854506  )
        12           Au  tau(  12) = (   0.6666637   0.0000000   3.7712367  )
        13           Au  tau(  13) = (   0.6666649   0.0000000   2.3570234  )
        14           Au  tau(  14) = (   0.8333330   0.2886749   0.4714045  )
        15           Au  tau(  15) = (   0.8333294   0.2886749   4.7140455  )
        16           Au  tau(  16) = (   0.8333306   0.2886749   3.2998319  )
        17           Au  tau(  17) = (   0.8333318   0.2886749   1.8856185  )
        18           Au  tau(  18) = (   0.1666658   0.2886749   0.9428093  )
        19           Au  tau(  19) = (   0.1666624   0.2886749   5.1854506  )
        20           Au  tau(  20) = (   0.1666636   0.2886749   3.7712367  )
        21           Au  tau(  21) = (   0.1666648   0.2886749   2.3570234  )
        22           Au  tau(  22) = (   0.5000001   0.2886749   0.0000000  )
        23           Au  tau(  23) = (   0.4999955   0.2886749   5.6568550  )
        24           Au  tau(  24) = (   0.4999965   0.2886749   4.2426411  )
        25           Au  tau(  25) = (   0.4999977   0.2886749   2.8284275  )
        26           Au  tau(  26) = (   0.4999989   0.2886749   1.4142138  )

     number of k points=    35  Gaussian smearing, width (Ry)=  0.0200
                       cart. coord. in units 2pi/alat
        k(    1) = (   0.0000000   0.0000000   0.0000000), wk =   0.0208333
        k(    2) = (   0.0000000   0.1443376   0.0000000), wk =   0.0416667
        k(    3) = (   0.0000000   0.2886753   0.0000000), wk =   0.0416667
        k(    4) = (   0.0000000   0.4330129   0.0000000), wk =   0.0416667
        k(    5) = (   0.0000000   0.5773506   0.0000000), wk =   0.0416667
        k(    6) = (   0.0000000   0.7216882   0.0000000), wk =   0.0416667
        k(    7) = (   0.0000000  -0.8660259   0.0000000), wk =   0.0208333
        k(    8) = (   0.1250000   0.0000000   0.0000001), wk =   0.0416667
        k(    9) = (   0.1250000   0.1443376   0.0000001), wk =   0.0833333
        k(   10) = (   0.1250000   0.2886753   0.0000001), wk =   0.0833333
        k(   11) = (   0.1250000   0.4330129   0.0000001), wk =   0.0833333
        k(   12) = (   0.1250000   0.5773506   0.0000001), wk =   0.0833333
        k(   13) = (   0.1250000   0.7216882   0.0000001), wk =   0.0833333
        k(   14) = (   0.1250000  -0.8660259   0.0000001), wk =   0.0416667
        k(   15) = (   0.2500000   0.0000000   0.0000002), wk =   0.0416667
        k(   16) = (   0.2500000   0.1443376   0.0000002), wk =   0.0833333
        k(   17) = (   0.2500000   0.2886753   0.0000002), wk =   0.0833333
        k(   18) = (   0.2500000   0.4330129   0.0000002), wk =   0.0833333
        k(   19) = (   0.2500000   0.5773506   0.0000002), wk =   0.0833333
        k(   20) = (   0.2500000   0.7216882   0.0000002), wk =   0.0833333
        k(   21) = (   0.2500000  -0.8660259   0.0000002), wk =   0.0416667
        k(   22) = (   0.3750000   0.0000000   0.0000002), wk =   0.0416667
        k(   23) = (   0.3750000   0.1443376   0.0000002), wk =   0.0833333
        k(   24) = (   0.3750000   0.2886753   0.0000002), wk =   0.0833333
        k(   25) = (   0.3750000   0.4330129   0.0000002), wk =   0.0833333
        k(   26) = (   0.3750000   0.5773506   0.0000002), wk =   0.0833333
        k(   27) = (   0.3750000   0.7216882   0.0000002), wk =   0.0833333
        k(   28) = (   0.3750000  -0.8660259   0.0000002), wk =   0.0416667
        k(   29) = (  -0.5000000   0.0000000  -0.0000003), wk =   0.0208333
        k(   30) = (  -0.5000000   0.1443376  -0.0000003), wk =   0.0416667
        k(   31) = (  -0.5000000   0.2886753  -0.0000003), wk =   0.0416667
        k(   32) = (  -0.5000000   0.4330129  -0.0000003), wk =   0.0416667
        k(   33) = (  -0.5000000   0.5773506  -0.0000003), wk =   0.0416667
        k(   34) = (  -0.5000000   0.7216882  -0.0000003), wk =   0.0416667
        k(   35) = (  -0.5000000  -0.8660259  -0.0000003), wk =   0.0208333

     Dense  grid:   188065 G-vectors     FFT dimensions: (  45,  25, 360)

     Estimated max dynamical RAM per process >     325.85 MB

     Estimated total dynamical RAM >       3.18 GB

     Initial potential from superposition of free atoms

     starting charge     285.9971, renormalised to     286.0000

     negative rho (up, down):  2.179E-03 0.000E+00
     Starting wfcs are  234 randomized atomic wfcs
     Checking if some PAW data can be deallocated... 

     total cpu time spent up to now is       20.8 secs

     Self-consistent Calculation

     iteration #  1     ecut=    50.00 Ry     beta= 0.70
     Davidson diagonalization with overlap
     ethr =  1.00E-02,  avg # of iterations =  4.9

     Threshold (ethr) on eigenvalues was too large:
     Diagonalizing with lowered threshold

     Davidson diagonalization with overlap
     ethr =  4.17E-04,  avg # of iterations =  4.7

     negative rho (up, down):  1.428E-03 0.000E+00

     total cpu time spent up to now is      126.0 secs

     total energy              =  -20152.79116699 Ry
     estimated scf accuracy    <       1.51194083 Ry

     iteration #  2     ecut=    50.00 Ry     beta= 0.70
     Davidson diagonalization with overlap
     c_bands:  1 eigenvalues not converged
     c_bands:  5 eigenvalues not converged
     ethr =  5.29E-04,  avg # of iterations = 17.1

     negative rho (up, down):  1.429E-03 0.000E+00

     total cpu time spent up to now is      235.7 secs

     total energy              =  -20129.81866184 Ry
     estimated scf accuracy    <    3268.18905626 Ry

     iteration #  3     ecut=    50.00 Ry     beta= 0.70
     Davidson diagonalization with overlap
     c_bands:  1 eigenvalues not converged
     ethr =  5.29E-04,  avg # of iterations = 11.3

     negative rho (up, down):  1.623E-03 0.000E+00

     total cpu time spent up to now is      322.6 secs

     total energy              =  -20152.53046977 Ry
     estimated scf accuracy    <       3.73562338 Ry

     iteration #  4     ecut=    50.00 Ry     beta= 0.70
     Davidson diagonalization with overlap
     ethr =  5.29E-04,  avg # of iterations = 10.1

     negative rho (up, down):  1.659E-03 0.000E+00

     total cpu time spent up to now is      391.0 secs

     total energy              =  -20149.25397929 Ry
     estimated scf accuracy    <     166.05457385 Ry

     iteration #  5     ecut=    50.00 Ry     beta= 0.70
     Davidson diagonalization with overlap
     ethr =  5.29E-04,  avg # of iterations = 10.7

     negative rho (up, down):  1.657E-03 0.000E+00

     total cpu time spent up to now is      463.8 secs

     total energy              =  -20148.21536013 Ry
     estimated scf accuracy    <     766.01912054 Ry

     iteration #  6     ecut=    50.00 Ry     beta= 0.70
     Davidson diagonalization with overlap
     ethr =  5.29E-04,  avg # of iterations = 10.7

     negative rho (up, down):  1.635E-03 0.000E+00

     total cpu time spent up to now is      521.0 secs

     total energy              =  -20153.41301988 Ry
     estimated scf accuracy    <       1.71013675 Ry

     iteration #  7     ecut=    50.00 Ry     beta= 0.70
     Davidson diagonalization with overlap
     ethr =  5.29E-04,  avg # of iterations =  2.1

     negative rho (up, down):  1.651E-03 0.000E+00

     total cpu time spent up to now is      559.0 secs

     total energy              =  -20153.48327391 Ry
     estimated scf accuracy    <       0.87230860 Ry

     iteration #  8     ecut=    50.00 Ry     beta= 0.70
     Davidson diagonalization with overlap
     ethr =  3.05E-04,  avg # of iterations =  1.9

     negative rho (up, down):  1.679E-03 0.000E+00

     total cpu time spent up to now is      597.0 secs

     total energy              =  -20153.49767450 Ry
     estimated scf accuracy    <       0.72389977 Ry

     iteration #  9     ecut=    50.00 Ry     beta= 0.70
     Davidson diagonalization with overlap
     ethr =  2.53E-04,  avg # of iterations =  1.3

     negative rho (up, down):  1.756E-03 0.000E+00

     total cpu time spent up to now is      633.2 secs

     total energy              =  -20153.50897367 Ry
     estimated scf accuracy    <       0.42893359 Ry

     iteration # 10     ecut=    50.00 Ry     beta= 0.70
     Davidson diagonalization with overlap
     ethr =  1.50E-04,  avg # of iterations =  2.1

     negative rho (up, down):  1.878E-03 0.000E+00

     total cpu time spent up to now is      671.1 secs

     total energy              =  -20153.52115296 Ry
     estimated scf accuracy    <       0.05523672 Ry

     iteration # 11     ecut=    50.00 Ry     beta= 0.70
     Davidson diagonalization with overlap
     c_bands:  1 eigenvalues not converged
     c_bands:  1 eigenvalues not converged
     ethr =  1.93E-05,  avg # of iterations = 10.7

     negative rho (up, down):  1.941E-03 0.000E+00

     total cpu time spent up to now is      718.9 secs

     total energy              =  -20153.52321461 Ry
     estimated scf accuracy    <       0.01445561 Ry

     iteration # 12     ecut=    50.00 Ry     beta= 0.70
     Davidson diagonalization with overlap
     c_bands:  1 eigenvalues not converged
     c_bands:  1 eigenvalues not converged
     c_bands:  1 eigenvalues not converged
     ethr =  5.05E-06,  avg # of iterations = 11.4

     negative rho (up, down):  1.914E-03 0.000E+00

     total cpu time spent up to now is      777.0 secs

     total energy              =  -20153.51858583 Ry
     estimated scf accuracy    <       0.31637790 Ry

     iteration # 13     ecut=    50.00 Ry     beta= 0.70
     Davidson diagonalization with overlap
     ethr =  5.05E-06,  avg # of iterations =  9.1

     negative rho (up, down):  1.965E-03 0.000E+00

     total cpu time spent up to now is      822.7 secs

     total energy              =  -20153.52485980 Ry
     estimated scf accuracy    <       0.02555282 Ry

     iteration # 14     ecut=    50.00 Ry     beta= 0.70
     Davidson diagonalization with overlap
     ethr =  5.05E-06,  avg # of iterations =  2.5

     negative rho (up, down):  1.947E-03 0.000E+00

     total cpu time spent up to now is      860.3 secs

     total energy              =  -20153.52525220 Ry
     estimated scf accuracy    <       0.01995412 Ry

     iteration # 15     ecut=    50.00 Ry     beta= 0.70
     Davidson diagonalization with overlap
     ethr =  5.05E-06,  avg # of iterations = 10.3

     negative rho (up, down):  1.949E-03 0.000E+00

     total cpu time spent up to now is      907.2 secs

     total energy              =  -20153.52217949 Ry
     estimated scf accuracy    <       0.38818571 Ry

     iteration # 16     ecut=    50.00 Ry     beta= 0.70
     Davidson diagonalization with overlap
     ethr =  5.05E-06,  avg # of iterations = 10.6

     negative rho (up, down):  1.955E-03 0.000E+00

     total cpu time spent up to now is      953.9 secs

     total energy              =  -20153.52605798 Ry
     estimated scf accuracy    <       0.00188537 Ry

     iteration # 17     ecut=    50.00 Ry     beta= 0.70
     Davidson diagonalization with overlap
     ethr =  6.59E-07,  avg # of iterations =  2.1

     negative rho (up, down):  1.957E-03 0.000E+00

     total cpu time spent up to now is      987.6 secs

     total energy              =  -20153.52615285 Ry
     estimated scf accuracy    <       0.00005997 Ry

     iteration # 18     ecut=    50.00 Ry     beta= 0.70
     Davidson diagonalization with overlap
     ethr =  2.10E-08,  avg # of iterations =  5.9

     negative rho (up, down):  1.957E-03 0.000E+00

     total cpu time spent up to now is     1067.3 secs

     total energy              =  -20153.52619208 Ry
     estimated scf accuracy    <       0.00008444 Ry

     iteration # 19     ecut=    50.00 Ry     beta= 0.70
     Davidson diagonalization with overlap
     ethr =  2.10E-08,  avg # of iterations =  1.6

     negative rho (up, down):  1.959E-03 0.000E+00

     total cpu time spent up to now is     1101.9 secs

     total energy              =  -20153.52617230 Ry
     estimated scf accuracy    <       0.00040388 Ry

     iteration # 20     ecut=    50.00 Ry     beta= 0.70
     Davidson diagonalization with overlap
     ethr =  2.10E-08,  avg # of iterations =  2.0

     negative rho (up, down):  1.961E-03 0.000E+00

     total cpu time spent up to now is     1142.3 secs

     total energy              =  -20153.52616000 Ry
     estimated scf accuracy    <       0.00032584 Ry

     iteration # 21     ecut=    50.00 Ry     beta= 0.70
     Davidson diagonalization with overlap
     ethr =  2.10E-08,  avg # of iterations =  2.0

     negative rho (up, down):  1.962E-03 0.000E+00

     total cpu time spent up to now is     1184.2 secs

     total energy              =  -20153.52618158 Ry
     estimated scf accuracy    <       0.00009357 Ry

     iteration # 22     ecut=    50.00 Ry     beta= 0.70
     Davidson diagonalization with overlap
     ethr =  2.10E-08,  avg # of iterations =  1.9

     negative rho (up, down):  1.962E-03 0.000E+00

     total cpu time spent up to now is     1220.5 secs

     total energy              =  -20153.52618562 Ry
     estimated scf accuracy    <       0.00007130 Ry

     iteration # 23     ecut=    50.00 Ry     beta= 0.70
     Davidson diagonalization with overlap
     ethr =  2.10E-08,  avg # of iterations =  1.0

     negative rho (up, down):  1.962E-03 0.000E+00

     total cpu time spent up to now is     1253.0 secs

     total energy              =  -20153.52618879 Ry
     estimated scf accuracy    <       0.00001451 Ry

     iteration # 24     ecut=    50.00 Ry     beta= 0.70
     Davidson diagonalization with overlap
     ethr =  5.07E-09,  avg # of iterations =  2.0

     negative rho (up, down):  1.962E-03 0.000E+00

     total cpu time spent up to now is     1289.3 secs

     total energy              =  -20153.52618675 Ry
     estimated scf accuracy    <       0.00005747 Ry

     iteration # 25     ecut=    50.00 Ry     beta= 0.70
     Davidson diagonalization with overlap
     ethr =  5.07E-09,  avg # of iterations =  1.4

     negative rho (up, down):  1.962E-03 0.000E+00

     total cpu time spent up to now is     1319.6 secs

     total energy              =  -20153.52618901 Ry
     estimated scf accuracy    <       0.00007208 Ry

     iteration # 26     ecut=    50.00 Ry     beta= 0.70
     Davidson diagonalization with overlap
     ethr =  5.07E-09,  avg # of iterations =  1.0

     negative rho (up, down):  1.962E-03 0.000E+00

     total cpu time spent up to now is     1350.3 secs

     total energy              =  -20153.52618872 Ry
     estimated scf accuracy    <       0.00013720 Ry

     iteration # 27     ecut=    50.00 Ry     beta= 0.70
     Davidson diagonalization with overlap
     ethr =  5.07E-09,  avg # of iterations =  1.0

     negative rho (up, down):  1.962E-03 0.000E+00

     total cpu time spent up to now is     1384.3 secs

     total energy              =  -20153.52618967 Ry
     estimated scf accuracy    <       0.00004263 Ry

     iteration # 28     ecut=    50.00 Ry     beta= 0.70
     Davidson diagonalization with overlap
     ethr =  5.07E-09,  avg # of iterations =  1.0

     negative rho (up, down):  1.962E-03 0.000E+00

     total cpu time spent up to now is     1416.9 secs

     End of self-consistent calculation

          k = 0.0000 0.0000 0.0000 ( 23605 PWs)   bands (ev):

     1.5075   1.6520   1.8836   2.1899   2.5515   2.9430   3.3194   3.6225
     3.8119   3.8964   3.9196   3.9598   4.0673   4.0732   4.0733   4.2080
     4.2323   4.2884   4.4051   4.4283   4.4908   4.5352   4.5676   4.6030
     4.6605   4.6989   4.7027   4.8776   4.9812   5.0025   5.1570   5.4396
     5.7305   5.9426   6.0621   6.1638   6.1640   6.1663   6.2485   6.2488
     6.2515   6.3182   6.3186   6.3194   6.3208   6.3245   6.3363   6.3537
     6.3540   6.3548   6.3555   6.3557   6.4074   6.4074   6.4081   6.4087
     6.4270   6.4725   6.4731   6.4800   6.4801   6.4823   6.5353   6.5357
     6.5512   6.5514   6.5727   6.5849   6.5852   6.5938   6.5942   6.7286
     6.7387   6.7655   6.7788   6.8716   6.8718   6.8721   6.8724   6.9969
     7.0613   7.1337   7.1651   7.2612   7.4879   7.5478   7.5736   7.6696
     7.6699   7.6705   7.6706   7.6976   7.6977   7.7096   7.7102   7.7670
     7.7671   7.7928   7.8413   7.8604   7.8606   7.9508   7.9966   7.9967
     8.0435   8.1248   8.1651   8.1654   8.3458   8.3459   8.3792   8.3887
     8.4853   8.5191   8.5192   8.5627   8.5773   8.6634   8.6637   8.6963
     8.7010   8.7412   8.7590   8.7594   8.7915   8.7918   8.7950   8.8042
     8.8191   8.8363   8.8389   8.8597   8.8819   8.9078   8.9390   8.9759
     9.0209   9.0252   9.0636   9.2216   9.2218   9.4030  10.2039  10.5085
    10.5606  10.6302  10.9318  11.2415  11.4690  11.6245  11.7283  11.7997
    11.8509  11.8891  11.9166  12.1229  12.1231  13.5599  13.7345  13.9318
    14.0023  14.2907  14.5557  14.8671  14.8882  15.0857  15.3534  15.8991
    16.1883  16.3791  16.4692  16.4709

          k = 0.0000 0.1443 0.0000 ( 23551 PWs)   bands (ev):

     1.6602   1.8034   2.0332   2.3373   2.6973   3.0880   3.4647   3.7668
     3.9509   4.0279   4.0463   4.0843   4.1902   4.2089   4.2091   4.3040
     4.3543   4.3906   4.5183   4.5539   4.5761   4.6449   4.6627   4.7390
     4.7646   4.8010   4.8487   4.9374   5.1004   5.1272   5.2142   5.4719
     5.7341   5.8970   5.9976   6.0447   6.0481   6.0981   6.1367   6.1440
     6.1762   6.2218   6.2432   6.2481   6.2503   6.2818   6.3362   6.3423
     6.3926   6.3930   6.4113   6.4152   6.4194   6.4201   6.4492   6.4689
     6.4707   6.4821   6.4847   6.5037   6.5402   6.5493   6.5660   6.5662
     6.5836   6.5971   6.6174   6.6179   6.6309   6.6329   6.6341   6.6645
     6.6816   6.6840   6.7881   6.8024   6.8401   6.8534   6.9472   6.9564
     6.9678   6.9682   7.1327   7.2391   7.3386   7.3519   7.4265   7.4974
     7.4989   7.5778   7.5799   7.5911   7.6523   7.6866   7.7357   7.7425
     7.7539   7.7690   7.7725   7.8050   7.8153   7.9148   7.9148   7.9197
     8.0537   8.0678   8.0797   8.0942   8.1257   8.2022   8.2547   8.2697
     8.3844   8.3865   8.4300   8.4755   8.4756   8.5074   8.5311   8.5813
     8.6088   8.6362   8.6396   8.6689   8.7037   8.7066   8.7354   8.7374
     8.7513   8.7667   8.7791   8.8035   8.8412   8.8701   8.8865   8.9315
     8.9449   9.0105   9.0634   9.0645   9.3888  10.0500  10.8489  10.9162
    11.0675  11.1093  11.3115  11.5190  11.6774  11.7988  11.9009  12.0006
    12.1104  12.2375  12.3773  12.5068  12.5349  13.5647  13.7746  13.9627
    14.0792  14.3845  14.6612  14.9293  15.0234  15.1945  15.5153  16.0657
    16.0877  16.4680  16.5379  16.5718

          k = 0.0000 0.2887 0.0000 ( 23495 PWs)   bands (ev):

     2.1031   2.2412   2.4630   2.7574   3.1079   3.4920   3.8666   4.1651
     4.3326   4.3880   4.3947   4.4249   4.5177   4.5190   4.5824   4.5827
     4.6124   4.6695   4.7611   4.8659   4.8684   4.9259   4.9465   5.0190
     5.0867   5.1344   5.1496   5.2434   5.3213   5.4086   5.4814   5.6056
     5.7369   5.7641   5.8013   5.8043   5.8680   5.9072   5.9147   5.9506
     6.0066   6.0226   6.0342   6.0412   6.0514   6.0892   6.1313   6.1597
     6.1650   6.2108   6.2709   6.2830   6.3757   6.4040   6.4507   6.4881
     6.5383   6.5459   6.5702   6.6024   6.6228   6.6250   6.6464   6.6616
     6.6748   6.6879   6.6904   6.7085   6.7094   6.7180   6.7598   6.7714
     6.8146   6.8211   6.8234   6.8266   6.8573   6.9085   6.9237   6.9531
     6.9722   6.9737   7.0416   7.0916   7.1104   7.1974   7.2102   7.2250
     7.2877   7.3301   7.3659   7.3739   7.3758   7.4014   7.4574   7.4675
     7.5249   7.5491   7.6047   7.6776   7.7089   7.7716   7.7887   7.8038
     7.8500   7.9005   7.9257   7.9515   7.9540   7.9638   8.0268   8.0678
     8.1355   8.1752   8.2170   8.2574   8.3039   8.3228   8.3498   8.4420
     8.5087   8.5147   8.5160   8.5530   8.5768   8.6113   8.6148   8.6647
     8.6876   8.7107   8.7167   8.7343   8.7826   8.7833   8.8836   8.9259
     8.9477   8.9585   9.1261   9.5772  10.1657  10.8970  11.7410  11.9664
    11.9671  11.9940  12.0424  12.1193  12.1562  12.2231  12.3562  12.5216
    12.7206  12.9399  13.1641  13.3813  13.6177  13.6531  14.0120  14.1080
    14.3975  14.7088  14.9796  15.1486  15.4286  15.5233  15.6550  16.0434
    16.1712  16.6772  16.7472  16.7501

          k = 0.0000 0.4330 0.0000 ( 23423 PWs)   bands (ev):

     2.7876   2.9116   3.1107   3.3751   3.6916   4.0440   4.4001   4.6948
     4.7677   4.8428   4.8587   4.8742   4.8748   4.8835   4.9225   4.9960
     5.0023   5.0740   5.0751   5.1068   5.1841   5.2511   5.3275   5.3689
     5.3723   5.4052   5.4344   5.5086   5.5581   5.5591   5.5701   5.6035
     5.6628   5.6904   5.6938   5.7644   5.7673   5.7872   5.7976   5.7994
     5.8104   5.8202   5.8209   5.8313   5.8691   5.9091   5.9183   5.9278
     5.9625   6.0649   6.0708   6.0743   6.0871   6.1970   6.2863   6.3068
     6.3226   6.3412   6.4503   6.4831   6.5403   6.5542   6.5633   6.6283
     6.6527   6.6691   6.6696   6.6926   6.7148   6.7473   6.7548   6.7579
     6.7625   6.7654   6.8186   6.8835   6.8887   6.9712   6.9937   7.0791
     7.1209   7.1247   7.1539   7.1782   7.1860   7.2600   7.2754   7.3291
     7.3503   7.3748   7.3860   7.3960   7.4048   7.4085   7.4277   7.4468
     7.4979   7.5013   7.5185   7.5481   7.5640   7.6152   7.6208   7.6890
     7.7535   7.8189   7.8223   7.8428   7.9008   7.9052   7.9855   8.0032
     8.0177   8.0449   8.0852   8.1539   8.1601   8.2899   8.3839   8.3887
     8.4075   8.4448   8.5156   8.5224   8.5309   8.5580   8.6115   8.6433
     8.6577   8.6578   8.6804   8.7188   8.7556   8.7897   8.8202   8.8309
     8.8357   9.2196   9.6815  10.2391  10.9066  11.6878  12.5144  12.5162
    12.5702  12.6465  12.6553  12.8568  12.8868  13.1294  13.2137  13.4272
    13.5359  13.5400  13.8846  13.9944  14.3124  14.3361  14.4806  14.5362
    14.8585  15.2855  15.3308  15.5160  15.6041  15.6481  16.0240  16.0775
    16.0809  16.5094  16.6750  17.0862

          k = 0.0000 0.5774 0.0000 ( 23470 PWs)   bands (ev):

     3.6209   3.7108   3.8535   4.0407   4.2630   4.5124   4.7775   5.0323
     5.0328   5.0334   5.0405   5.1127   5.1131   5.1147   5.2341   5.2343
     5.2383   5.2390   5.2894   5.3261   5.3650   5.3651   5.3714   5.4017
     5.4244   5.4394   5.4510   5.5235   5.5270   5.5432   5.5503   5.5585
     5.5587   5.5982   5.6447   5.6703   5.6721   5.6725   5.7156   5.7406
     5.7408   5.7416   5.7717   5.7972   5.7973   5.8155   5.8286   5.9642
     5.9645   5.9983   6.0518   6.0720   6.1509   6.2187   6.2505   6.3264
     6.3267   6.3346   6.3410   6.4014   6.4016   6.4133   6.4230   6.4665
     6.4911   6.4914   6.5045   6.5081   6.5350   6.5609   6.5888   6.5891
     6.5897   6.5959   6.9796   6.9898   7.0005   7.0506   7.0525   7.0526
     7.0575   7.0577   7.1588   7.1883   7.2608   7.3400   7.4410   7.5057
     7.5074   7.5080   7.5248   7.5328   7.5454   7.5460   7.5678   7.5684
     7.5949   7.5953   7.6029   7.6434   7.6851   7.7817   7.7903   7.8233
     7.8233   7.9407   8.0225   8.0513   8.1921   8.1931   8.2452   8.3697
     8.4045   8.4056   8.4295   8.4502   8.4508   8.4526   8.4555   8.4924
     8.5320   8.5546   8.5586   8.5592   8.5643   8.5965   8.6268   8.6464
     8.6569   8.6571   8.6820   8.6998   8.7095   8.7097   8.7168   8.8428
     9.2789   9.7783  10.3412  10.9757  11.6863  12.4683  13.1212  13.1223
    13.1226  13.2824  13.2834  13.2836  13.2854  13.5206  13.5207  13.5315
    13.7561  13.7564  13.8602  13.9643  14.7919  14.9195  14.9197  15.0240
    15.3323  15.3325  15.3829  15.5387  15.8758  15.8760  16.1534  16.3402
    16.4726  16.4730  16.8684  16.9010

          k = 0.0000 0.7217 0.0000 ( 23446 PWs)   bands (ev):

     4.4435   4.4588   4.4888   4.5394   4.6154   4.7189   4.8475   4.8827
     4.8829   4.9620   4.9631   4.9951   5.0762   5.0810   5.1468   5.1870
     5.1936   5.2071   5.2428   5.2504   5.2799   5.2802   5.3589   5.3614
     5.4258   5.4401   5.4948   5.5326   5.5734   5.5750   5.6128   5.6145
     5.6177   5.6276   5.6550   5.6588   5.7084   5.7201   5.7358   5.7563
     5.7666   5.7790   5.7891   5.8030   5.8056   5.8195   5.8707   5.9237
     6.0239   6.0620   6.1178   6.1483   6.1675   6.1962   6.2310   6.2332
     6.2802   6.2874   6.3020   6.3232   6.3469   6.3630   6.3689   6.3970
     6.4229   6.4372   6.4498   6.4897   6.5823   6.6177   6.7139   6.7145
     6.7159   6.7212   6.9743   6.9754   7.0138   7.0145   7.1336   7.1422
     7.1719   7.1766   7.1769   7.2157   7.3192   7.3532   7.3803   7.4106
     7.4307   7.4412   7.4764   7.4967   7.5301   7.6157   7.6235   7.6284
     7.6544   7.6786   7.6943   7.7000   7.7858   7.8295   7.8545   7.8605
     7.9030   8.0549   8.1018   8.1204   8.2450   8.2985   8.3892   8.5271
     8.5733   8.6331   8.6637   8.6722   8.6773   8.6797   8.7133   8.7282
     8.7360   8.7373   8.7559   8.7627   8.7979   8.8081   8.8815   8.8906
     8.9309   8.9352   9.3318   9.3375   9.3560   9.4234   9.5555   9.8060
    10.2180  10.7433  11.3416  11.6885  11.8034  11.9968  11.9970  12.2690
    12.6153  12.6992  13.0268  13.4321  13.4686  13.8150  13.9230  14.0041
    14.1290  14.1478  14.3091  14.4456  14.6539  14.7242  15.0394  15.0978
    15.5524  15.5955  16.0578  16.1334  16.1745  16.2663  16.4595  16.6081
    16.7130  16.8020  17.0886  17.1158

          k = 0.0000-0.8660 0.0000 ( 23420 PWs)   bands (ev):

     4.7514   4.7515   4.7524   4.7525   4.8232   4.8233   4.8262   4.8262
     4.9262   4.9263   4.9308   4.9309   5.0256   5.0257   5.0312   5.0313
     5.1118   5.1119   5.1787   5.1788   5.2490   5.2491   5.2494   5.2495
     5.4614   5.4615   5.4683   5.4684   5.5282   5.5282   5.5615   5.5616
     5.6277   5.6278   5.6704   5.6704   5.7695   5.7696   5.7754   5.7754
     5.8742   5.8742   5.8998   5.8999   5.9249   5.9249   5.9779   5.9780
     6.0085   6.0086   6.0503   6.0504   6.1114   6.1114   6.1555   6.1556
     6.1910   6.1910   6.2475   6.2475   6.3927   6.3927   6.3964   6.3965
     6.5370   6.5370   6.5723   6.5724   6.6614   6.6614   6.6843   6.6843
     6.9849   6.9850   6.9868   6.9869   7.0313   7.0313   7.0335   7.0336
     7.2180   7.2181   7.2729   7.2729   7.3075   7.3075   7.3370   7.3371
     7.3792   7.3792   7.4708   7.4708   7.6223   7.6224   7.6230   7.6231
     7.7083   7.7084   7.7437   7.7438   7.7572   7.7573   7.8586   7.8587
     7.9246   7.9247   8.0224   8.0225   8.1990   8.1991   8.4298   8.4299
     8.6435   8.6436   8.7934   8.7936   8.8218   8.8219   8.8312   8.8313
     8.8598   8.8599   8.8716   8.8718   8.9398   8.9399   9.0234   9.0235
     9.0708   9.0709  10.4048  10.4048  10.4514  10.4514  10.5455  10.5456
    10.7053  10.7053  10.9477  10.9477  11.2885  11.2885  11.7260  11.7260
    12.2422  12.2422  12.8134  12.8134  13.4149  13.4150  14.0176  14.0177
    14.5815  14.5815  15.0197  15.0197  15.7158  15.7159  15.7273  15.7273
    15.8969  15.8970  15.9418  15.9418  16.1641  16.1642  16.2478  16.2478
    16.5089  16.5091  16.5980  16.5981

          k = 0.1250 0.0000 0.0000 ( 23563 PWs)   bands (ev):

     1.6223   1.7658   1.9961   2.3008   2.6612   3.0522   3.4289   3.7312
     3.9167   3.9565   3.9956   4.0152   4.0639   4.1753   4.1755   4.2283
     4.2510   4.3257   4.4192   4.4385   4.5366   4.5487   4.6030   4.6161
     4.6549   4.7442   4.7718   4.9204   5.0094   5.0377   5.1913   5.4656
     5.7417   5.9372   6.0613   6.0851   6.0914   6.1524   6.1784   6.1995
     6.2582   6.2625   6.2818   6.2830   6.3008   6.3369   6.3531   6.3535
     6.3607   6.3613   6.3881   6.3989   6.4002   6.4237   6.4239   6.4507
     6.4536   6.4739   6.4781   6.4798   6.5311   6.5374   6.5435   6.5782
     6.5942   6.5998   6.6040   6.6082   6.6130   6.6233   6.6531   6.6632
     6.6724   6.7839   6.8028   6.8212   6.8503   6.9348   6.9353   6.9383
     6.9971   7.0111   7.1008   7.2702   7.3746   7.4301   7.4957   7.5186
     7.5227   7.5501   7.5944   7.6018   7.6746   7.6889   7.7354   7.7516
     7.7982   7.8088   7.8215   7.8356   7.8775   7.8791   7.9359   7.9494
     8.0069   8.1093   8.1234   8.1716   8.1991   8.2352   8.3380   8.3508
     8.3519   8.4027   8.4845   8.5240   8.5388   8.5798   8.5985   8.6551
     8.6687   8.6824   8.6962   8.7029   8.7191   8.7278   8.7479   8.7646
     8.7781   8.7985   8.8083   8.8350   8.8387   8.8514   8.8873   8.8901
     8.9489   9.0050   9.1239   9.1248   9.2812   9.3411   9.6632   9.9363
     9.9439  10.1330  10.2151  10.3342  10.6905  10.8248  11.0001  11.2704
    11.9546  12.6615  13.2747  13.4525  13.5324  13.6668  13.9217  13.9542
    14.2233  14.5234  14.8392  14.9132  15.1673  15.2140  15.5745  15.8897
    16.3667  16.4454  16.5462  16.9233

          k = 0.1250 0.1443 0.0000 ( 23537 PWs)   bands (ev):

     1.7730   1.9152   2.1433   2.4454   2.8036   3.1933   3.5699   3.8710
     4.0510   4.0831   4.1222   4.1380   4.1886   4.3066   4.3069   4.3485
     4.3521   4.4295   4.5421   4.5566   4.6205   4.6760   4.6919   4.7457
     4.7912   4.8116   4.9053   4.9797   5.1278   5.1634   5.2410   5.4898
     5.7239   5.8845   5.9471   6.0037   6.0364   6.0452   6.1036   6.1324
     6.1678   6.1911   6.2107   6.2182   6.2328   6.2513   6.2731   6.2962
     6.3550   6.3631   6.4171   6.4230   6.4537   6.4642   6.4760   6.4808
     6.4854   6.5108   6.5159   6.5169   6.5443   6.5701   6.5846   6.5958
     6.6082   6.6172   6.6355   6.6507   6.6598   6.6605   6.6845   6.7021
     6.7363   6.7424   6.7527   6.7617   6.8182   6.8795   6.8833   6.9150
     7.0153   7.0164   7.1132   7.1735   7.1869   7.2317   7.3972   7.4320
     7.4405   7.5199   7.5391   7.5457   7.5509   7.5747   7.6296   7.6589
     7.7116   7.7375   7.7529   7.8155   7.8213   7.8508   7.8554   7.8764
     7.9041   7.9906   8.0252   8.0326   8.1378   8.1384   8.2165   8.2418
     8.2753   8.3238   8.3551   8.3698   8.3940   8.4637   8.5065   8.5249
     8.5338   8.5343   8.5800   8.5870   8.6286   8.6575   8.6604   8.6944
     8.7052   8.7451   8.7528   8.7626   8.7950   8.7968   8.8338   8.9071
     8.9748   9.0354   9.0675   9.1223   9.6422   9.9777  10.1380  10.3051
    10.3259  10.4373  10.5664  10.7915  11.1623  11.1745  11.4088  11.7060
    12.3361  13.0020  13.4689  13.5548  13.6590  13.7355  13.9914  14.0130
    14.3306  14.6305  14.9442  14.9795  15.2765  15.3397  15.6839  15.9238
    16.4145  16.5358  16.6496  16.9663

          k = 0.1250 0.2887 0.0000 ( 23467 PWs)   bands (ev):

     2.2081   2.3444   2.5633   2.8539   3.1998   3.5793   3.9498   4.2430
     4.4007   4.4264   4.4502   4.4821   4.5191   4.5572   4.6473   4.6588
     4.6594   4.6673   4.7853   4.8610   4.9108   4.9468   4.9752   5.0737
     5.0814   5.1167   5.2065   5.2488   5.3380   5.4163   5.4793   5.5957
     5.6656   5.6960   5.7754   5.8229   5.8646   5.9166   5.9178   5.9690
     5.9739   6.0125   6.0425   6.0518   6.0568   6.0675   6.0926   6.0983
     6.1305   6.1942   6.2268   6.2950   6.3346   6.3973   6.4733   6.5102
     6.5350   6.5697   6.5741   6.5929   6.6010   6.6185   6.6391   6.6639
     6.6728   6.7199   6.7391   6.7400   6.7428   6.7567   6.7791   6.7897
     6.8326   6.8479   6.8491   6.8649   6.8838   6.8908   6.9055   6.9697
     6.9842   7.0162   7.0189   7.0284   7.0482   7.1108   7.1706   7.1893
     7.2191   7.2247   7.2622   7.2706   7.3517   7.3590   7.4028   7.4841
     7.4888   7.5377   7.5843   7.6102   7.6758   7.6761   7.7549   7.7813
     7.7920   7.7972   7.8418   7.8572   7.9370   7.9460   7.9905   8.0504
     8.0971   8.1199   8.1521   8.1919   8.2161   8.2258   8.2644   8.2703
     8.3318   8.3646   8.4344   8.5002   8.5366   8.6580   8.6690   8.6908
     8.7562   8.7718   8.7798   8.7835   8.8191   8.8301   8.9070   8.9468
     9.0153   9.0604   9.1804   9.6826  10.2966  10.7416  10.8137  10.9267
    11.0395  11.0922  11.3314  11.6641  11.8930  12.0956  12.3666  12.6166
    13.2097  13.5890  13.7152  13.8338  13.9489  14.1567  14.1942  14.4421
    14.6876  14.9673  15.2079  15.2827  15.6088  15.6108  15.8935  16.1047
    16.4178  16.8097  16.9100  16.9720

          k = 0.1250 0.4330 0.0000 ( 23435 PWs)   bands (ev):

     2.8706   2.9915   3.1850   3.4407   3.7444   4.0788   4.4093   4.6623
     4.7727   4.7808   4.8301   4.8548   4.8669   4.8938   4.9508   4.9858
     4.9977   5.0923   5.0964   5.1009   5.1452   5.2206   5.2639   5.3505
     5.3669   5.3694   5.3882   5.4281   5.4807   5.5127   5.6147   5.6192
     5.6521   5.7056   5.7380   5.7501   5.7585   5.7618   5.7866   5.7942
     5.8322   5.8430   5.8648   5.8716   5.9343   5.9399   5.9525   5.9825
     6.0185   6.0419   6.0578   6.0825   6.2137   6.2584   6.2859   6.3630
     6.4053   6.4245   6.4727   6.4976   6.5395   6.5403   6.5724   6.5953
     6.6273   6.6371   6.6522   6.6634   6.6835   6.6990   6.7168   6.7426
     6.7597   6.7937   6.8534   6.8965   6.9581   6.9665   6.9990   7.0356
     7.1343   7.1514   7.1736   7.1963   7.1998   7.2364   7.2498   7.2853
     7.3037   7.3187   7.3339   7.3446   7.4003   7.4075   7.4352   7.4769
     7.4905   7.5321   7.5386   7.5454   7.5991   7.6190   7.6276   7.6375
     7.6601   7.7199   7.8050   7.8112   7.8522   7.9192   7.9266   7.9358
     7.9855   8.0404   8.0746   8.0890   8.1541   8.1881   8.1998   8.2810
     8.3535   8.4418   8.4907   8.5106   8.6287   8.6428   8.6844   8.7276
     8.7356   8.7479   8.7763   8.7820   8.8010   8.8233   8.8561   8.9384
     8.9874   9.2239   9.7219  10.3058  10.9840  11.3621  11.4584  11.6252
    11.7667  11.8677  12.1880  12.5858  12.6479  13.0474  13.5330  13.5673
    13.7729  13.9520  14.1994  14.2734  14.5400  14.6115  14.6438  14.7782
    15.1598  15.2603  15.5119  15.6648  15.6673  15.8860  16.1273  16.1778
    16.3504  16.6555  16.8687  17.2386

          k = 0.1250 0.5774 0.0000 ( 23447 PWs)   bands (ev):

     3.6377   3.7301   3.8730   4.0526   4.2543   4.4684   4.6831   4.8361
     4.8567   4.9237   4.9406   4.9573   4.9972   5.0579   5.0597   5.0713
     5.1175   5.1260   5.2100   5.2157   5.2311   5.2373   5.3237   5.3256
     5.3918   5.4245   5.4493   5.4537   5.4554   5.4882   5.5404   5.5428
     5.5918   5.6030   5.6787   5.6798   5.7064   5.7238   5.7546   5.7611
     5.7721   5.7885   5.8195   5.8447   5.9006   5.9322   5.9371   5.9542
     6.0065   6.0743   6.1077   6.1262   6.1338   6.1376   6.2762   6.2798
     6.3175   6.4056   6.4493   6.4906   6.4939   6.5459   6.5467   6.5500
     6.5858   6.5975   6.6119   6.6261   6.6466   6.6939   6.6998   6.7399
     6.7637   6.7752   6.8566   6.8707   6.9533   6.9678   6.9821   7.0781
     7.2003   7.2435   7.2557   7.2670   7.2999   7.3480   7.3685   7.4124
     7.4367   7.4567   7.5110   7.5137   7.5350   7.5357   7.5925   7.6204
     7.6248   7.6610   7.7121   7.7180   7.7685   7.7952   7.9006   7.9116
     7.9208   7.9545   8.0776   8.0798   8.1636   8.2073   8.2356   8.2395
     8.3387   8.3465   8.3989   8.4237   8.4513   8.4578   8.4755   8.5126
     8.5473   8.5531   8.5634   8.5977   8.6272   8.6313   8.6512   8.6822
     8.6886   8.7246   8.7477   8.7494   8.7648   8.8171   8.8231   8.8699
     9.2585   9.7783  10.3664  11.0188  11.7352  12.0627  12.1917  12.4045
    12.5148  12.6958  13.0554  13.2708  13.3264  13.4218  13.4665  13.6608
    13.9040  14.0384  14.1591  14.2887  14.3159  14.6376  14.8486  15.0691
    15.1946  15.4442  15.4531  15.7364  15.7582  15.9221  16.2820  16.3200
    16.3801  16.7637  16.9042  16.9883

          k = 0.1250 0.7217 0.0000 ( 23455 PWs)   bands (ev):

     4.2347   4.3198   4.4486   4.5908   4.6185   4.6591   4.7096   4.7430
     4.7607   4.8007   4.8234   4.8578   4.9269   4.9435   4.9669   5.0226
     5.0703   5.0897   5.0984   5.1203   5.1966   5.2157   5.2481   5.2536
     5.2646   5.3007   5.3147   5.3480   5.4204   5.4215   5.4551   5.4648
     5.5138   5.5814   5.6032   5.6166   5.6651   5.7259   5.7266   5.7678
     5.8105   5.8258   5.8336   5.8497   5.8975   5.9132   5.9507   6.0219
     6.0431   6.0680   6.1041   6.1660   6.2302   6.2729   6.2738   6.3048
     6.3343   6.3446   6.3824   6.4251   6.4714   6.5014   6.5129   6.6083
     6.6666   6.6746   6.7701   6.7841   6.7937   6.7991   6.8256   6.8427
     6.9082   6.9165   6.9593   7.0235   7.0269   7.0345   7.0935   7.0966
     7.1801   7.1856   7.2230   7.2720   7.3530   7.4061   7.4807   7.4980
     7.5223   7.5431   7.6142   7.6248   7.6321   7.6501   7.7075   7.7220
     7.7271   7.8082   7.8578   7.8800   7.9223   7.9573   8.0367   8.0410
     8.0637   8.1691   8.2282   8.2482   8.3350   8.3405   8.4511   8.5558
     8.5637   8.5704   8.5841   8.6515   8.6593   8.6637   8.7035   8.7353
     8.7384   8.7740   8.7750   8.7993   8.8084   8.8305   8.8881   8.8928
     8.9348   8.9384   9.2587   9.3223   9.3512   9.4017   9.5230   9.7669
    10.1854  10.7286  11.3494  11.7677  11.8738  12.0228  12.0533  12.3073
    12.6343  12.7323  13.0258  13.0655  13.2083  13.4319  13.4629  13.5082
    13.7300  14.0059  14.0985  14.1636  14.4469  14.5817  14.8188  15.1575
    15.2304  15.5515  15.7161  15.8882  16.0178  16.2655  16.3399  16.4841
    16.5525  16.6510  16.8658  16.9708

          k = 0.1250-0.8660 0.0000 ( 23492 PWs)   bands (ev):

     4.5294   4.5295   4.6121   4.6122   4.6507   4.6508   4.7361   4.7361
     4.7448   4.7449   4.8640   4.8641   4.9194   4.9195   5.0070   5.0071
     5.0668   5.0669   5.1180   5.1180   5.1298   5.1299   5.1569   5.1569
     5.2309   5.2310   5.2928   5.2929   5.3402   5.3402   5.3785   5.3786
     5.4767   5.4767   5.5837   5.5837   5.6419   5.6420   5.7378   5.7379
     5.8349   5.8350   5.9243   5.9244   5.9590   5.9590   6.0181   6.0182
     6.0574   6.0574   6.0802   6.0802   6.1740   6.1740   6.2434   6.2434
     6.4238   6.4238   6.4406   6.4406   6.6039   6.6039   6.6355   6.6356
     6.7361   6.7362   6.7443   6.7444   6.8455   6.8455   6.9007   6.9008
     6.9204   6.9204   6.9609   6.9610   7.0707   7.0708   7.1470   7.1471
     7.2398   7.2399   7.3234   7.3234   7.4394   7.4394   7.4891   7.4892
     7.5422   7.5422   7.6241   7.6242   7.7242   7.7243   7.8134   7.8134
     7.8636   7.8636   7.9288   7.9288   7.9793   7.9794   8.0118   8.0119
     8.0952   8.0952   8.1439   8.1440   8.2418   8.2418   8.4400   8.4401
     8.6439   8.6440   8.7358   8.7359   8.7871   8.7872   8.8120   8.8121
     8.8609   8.8610   8.9035   8.9036   8.9468   8.9470   9.0244   9.0245
     9.0708   9.0709  10.4026  10.4027  10.4568  10.4568  10.5501  10.5501
    10.7009  10.7010  10.9318  10.9318  11.2637  11.2637  11.6997  11.6998
    12.2253  12.2253  12.8170  12.8171  13.4361  13.4361  13.9906  13.9907
    14.4402  14.4402  14.6385  14.6386  14.8094  14.8094  15.0219  15.0219
    15.2431  15.2432  15.4710  15.4711  15.8064  15.8065  15.9151  15.9152
    16.2333  16.2334  16.5847  16.5847

          k = 0.2500 0.0000 0.0000 ( 23536 PWs)   bands (ev):

     1.9576   2.0976   2.3224   2.6204   2.9745   3.3613   3.7366   3.9072
     4.0124   4.0355   4.1722   4.2075   4.2684   4.2857   4.3526   4.3592
     4.4083   4.4609   4.4613   4.4736   4.5049   4.6074   4.6746   4.7360
     4.7643   4.8683   4.9104   5.0290   5.1072   5.1339   5.2988   5.5427
     5.7857   5.8149   5.9188   5.9391   5.9446   6.0433   6.0551   6.1121
     6.1131   6.1573   6.1615   6.1799   6.2249   6.2733   6.2870   6.3436
     6.3545   6.3901   6.4114   6.4320   6.4435   6.4916   6.4927   6.5077
     6.5176   6.5548   6.5710   6.5735   6.5896   6.5906   6.6254   6.6404
     6.6545   6.6592   6.6655   6.6807   6.6934   6.7091   6.7146   6.7475
     6.7696   6.8067   6.8144   6.8347   6.8401   6.8454   6.8689   6.9165
     6.9767   7.0443   7.0488   7.1029   7.1078   7.2520   7.2682   7.2901
     7.3500   7.3717   7.3852   7.4606   7.4947   7.5309   7.5458   7.5979
     7.6257   7.6482   7.6872   7.7171   7.7428   7.7976   7.8346   7.8480
     7.9173   7.9858   7.9870   8.0249   8.0305   8.1237   8.1854   8.2110
     8.2239   8.3036   8.3096   8.3539   8.3619   8.3926   8.3996   8.4179
     8.4528   8.4702   8.5074   8.5299   8.5358   8.5517   8.5732   8.5770
     8.6073   8.6219   8.6341   8.6654   8.6822   8.7276   8.7796   8.7916
     8.8167   8.8384   8.8513   8.8830   8.9194   8.9208   8.9334   8.9530
     9.1043   9.3860   9.6946   9.9588  10.3973  10.6722  11.1420  11.5056
    11.8433  11.9034  12.6605  13.4009  14.0501  14.1214  15.0695  15.1103
    15.3246  15.4141  15.5118  15.6004  15.9131  16.3534  16.6493  16.7822
    16.8135  17.1159  17.4070  17.7945

          k = 0.2500 0.1443 0.0000 ( 23484 PWs)   bands (ev):

     2.1032   2.2413   2.4630   2.7574   3.1079   3.4920   3.8667   4.0420
     4.1446   4.1653   4.3020   4.3328   4.3883   4.3949   4.4571   4.4887
     4.5188   4.5820   4.5824   4.5995   4.6365   4.7256   4.7509   4.8227
     4.8662   4.9401   5.0253   5.0930   5.2286   5.2428   5.3410   5.5492
     5.7350   5.8012   5.8044   5.8741   5.9072   5.9146   6.0342   6.0417
     6.0451   6.0511   6.0897   6.1311   6.1656   6.2025   6.2108   6.2729
     6.2832   6.3253   6.3564   6.3759   6.4262   6.4505   6.4883   6.4956
     6.5420   6.5465   6.5701   6.5773   6.5898   6.6027   6.6227   6.6252
     6.6466   6.6880   6.6901   6.7079   6.7083   6.7178   6.7342   6.7596
     6.7707   6.8145   6.8230   6.8280   6.8575   6.9078   6.9235   6.9525
     6.9526   6.9734   7.0103   7.0912   7.1026   7.1809   7.1979   7.2106
     7.2560   7.3051   7.3296   7.3657   7.3759   7.4211   7.4574   7.4675
     7.5249   7.5595   7.6053   7.6428   7.7097   7.7720   7.7885   7.8040
     7.8231   7.8498   7.8993   7.9258   7.9296   7.9644   8.0267   8.0269
     8.1358   8.1504   8.2018   8.2105   8.2168   8.2182   8.2757   8.2817
     8.3039   8.4400   8.4419   8.4850   8.5160   8.5172   8.5833   8.6008
     8.6111   8.6705   8.7106   8.7345   8.7356   8.7821   8.7830   8.8165
     8.9057   8.9524   9.1140   9.1256   9.2330   9.3264   9.3665   9.4507
     9.5769   9.6709  10.1140  10.1655  10.7155  10.8970  11.3996  11.7410
    12.1234  12.1562  12.8560  13.5780  14.1080  14.2760  15.1486  15.2910
    15.3666  15.5233  15.5725  15.7089  15.9930  16.4332  16.7501  16.8814
    16.8996  17.1986  17.4686  17.8181

          k = 0.2500 0.2887 0.0000 ( 23496 PWs)   bands (ev):

     2.5165   2.6468   2.8558   3.1332   3.4637   3.8278   4.1857   4.4043
     4.4661   4.4900   4.5998   4.6250   4.6446   4.6545   4.7132   4.7225
     4.7934   4.8361   4.8785   4.8804   4.9281   4.9868   5.0327   5.0982
     5.1036   5.2031   5.2372   5.3173   5.3793   5.4508   5.5123   5.5740
     5.6130   5.6251   5.7201   5.7674   5.7985   5.8305   5.8982   5.9013
     5.9109   5.9302   5.9574   6.0190   6.0367   6.0499   6.1009   6.1127
     6.1193   6.1309   6.1712   6.2313   6.2408   6.3554   6.3599   6.3670
     6.4295   6.4738   6.5106   6.5210   6.5660   6.5736   6.6223   6.6262
     6.6310   6.6467   6.6670   6.6935   6.7063   6.7428   6.7716   6.8024
     6.8108   6.8445   6.8549   6.8629   6.9025   6.9289   6.9404   6.9586
     6.9870   6.9918   7.0081   7.0397   7.1019   7.1182   7.1362   7.1617
     7.1761   7.2357   7.2450   7.2644   7.2763   7.3477   7.3528   7.3617
     7.4344   7.4446   7.4822   7.5406   7.5529   7.5739   7.6198   7.6753
     7.7076   7.7479   7.7532   7.7765   7.8282   7.8352   7.8915   7.9106
     7.9289   7.9781   7.9930   8.0560   8.0872   8.1571   8.1666   8.2138
     8.2443   8.3823   8.3870   8.4632   8.6201   8.6376   8.6516   8.6974
     8.7641   8.7718   8.7952   8.8013   8.8433   8.8732   8.9126   8.9901
     8.9937   9.0345   9.4452   9.8021   9.8495   9.9060   9.9897  10.0034
    10.1784  10.4677  10.6387  10.8888  11.4062  11.4202  12.0293  12.2830
    12.6871  12.9481  13.3649  14.0366  14.3359  14.6609  15.4047  15.5024
    15.6776  15.8585  15.8627  16.0056  16.2338  16.6183  17.0183  17.0290
    17.2206  17.2753  17.5302  17.6070

          k = 0.2500 0.4330 0.0000 ( 23431 PWs)   bands (ev):

     3.1143   3.2263   3.4037   3.6342   3.9018   4.1883   4.4602   4.6498
     4.7509   4.7520   4.7549   4.8229   4.8257   4.8734   4.9259   4.9306
     5.0098   5.0258   5.0311   5.1117   5.1322   5.1667   5.1787   5.2085
     5.2496   5.2500   5.3127   5.4455   5.4619   5.4689   5.5285   5.5620
     5.5845   5.6279   5.6708   5.7110   5.7694   5.7757   5.8175   5.8744
     5.8953   5.8998   5.9229   5.9252   5.9782   5.9912   6.0087   6.0434
     6.0509   6.1113   6.1435   6.1560   6.1911   6.2165   6.2478   6.2558
     6.3929   6.3962   6.3971   6.5166   6.5378   6.5728   6.5817   6.5963
     6.6172   6.6423   6.6623   6.6850   6.6853   6.6937   6.6975   6.7462
     6.8137   6.8170   6.8952   6.9618   6.9642   6.9845   6.9864   7.0305
     7.0329   7.1188   7.1838   7.1876   7.2136   7.2181   7.2619   7.2732
     7.3079   7.3279   7.3372   7.3793   7.4073   7.4463   7.4711   7.4876
     7.5426   7.5565   7.6060   7.6198   7.6230   7.6232   7.6606   7.6970
     7.7085   7.7443   7.7576   7.7981   7.8201   7.8582   7.8930   7.9238
     7.9742   8.0222   8.0463   8.0565   8.1103   8.1661   8.1990   8.2450
     8.3879   8.3905   8.4298   8.5613   8.6435   8.7160   8.7934   8.8174
     8.8210   8.8220   8.8301   8.8590   8.8693   8.8714   8.9401   9.0235
     9.0705   9.3213   9.8886  10.4036  10.4503  10.5160  10.5449  10.7053
    10.9481  11.2146  11.2887  11.7259  12.0001  12.2422  12.8134  12.8686
    13.4149  13.9806  14.0176  14.5815  14.8574  15.0197  15.7153  15.7270
    15.8748  15.8964  15.9418  16.1636  16.2480  16.4573  16.5083  16.5982
    16.9976  17.0001  17.4213  17.4545

          k = 0.2500 0.5774 0.0000 ( 23466 PWs)   bands (ev):

     3.7009   3.7983   3.9441   4.1118   4.2665   4.3991   4.5264   4.6368
     4.6427   4.6697   4.7184   4.7480   4.7589   4.8412   4.8826   4.8960
     4.9094   4.9991   5.0063   5.0451   5.0580   5.1223   5.1284   5.1835
     5.2056   5.2168   5.2253   5.2575   5.2803   5.3425   5.3733   5.4190
     5.4211   5.4863   5.5329   5.6258   5.6691   5.6906   5.7656   5.8195
     5.8510   5.8584   5.9155   5.9490   5.9672   5.9728   6.0058   6.0919
     6.1193   6.1943   6.2613   6.2778   6.3380   6.3936   6.4354   6.4665
     6.4882   6.5176   6.5357   6.5547   6.5950   6.6213   6.6399   6.6451
     6.6626   6.7240   6.7447   6.7772   6.7924   6.7996   6.8594   6.9103
     6.9218   6.9705   6.9817   7.0020   7.0910   7.0995   7.1494   7.1565
     7.2660   7.2786   7.3315   7.3322   7.4125   7.4758   7.4887   7.5147
     7.5242   7.5450   7.5495   7.6320   7.6593   7.7330   7.7878   7.8283
     7.8886   7.8918   7.9068   7.9305   7.9580   7.9705   7.9969   8.0599
     8.0654   8.0746   8.0801   8.1103   8.1161   8.1332   8.1946   8.2025
     8.2600   8.3063   8.3412   8.3577   8.4174   8.4497   8.4594   8.4782
     8.5019   8.5408   8.5748   8.6516   8.6897   8.7060   8.7427   8.7493
     8.7673   8.8235   8.8255   8.8666   8.8724   8.9073   8.9842   9.0319
     9.2303   9.8237  10.4772  11.0573  11.1347  11.1716  11.2708  11.4758
    11.7594  11.9031  12.1295  12.5823  12.6767  13.1042  13.4701  13.6250
    13.7156  13.8627  14.0614  14.3297  14.3978  14.7496  15.0148  15.0202
    15.1416  15.4698  15.6501  15.7033  15.8652  16.1890  16.4108  16.5250
    16.6684  17.1498  17.2920  17.4312

          k = 0.2500 0.7217 0.0000 ( 23545 PWs)   bands (ev):

     4.0416   4.1442   4.3017   4.4248   4.4572   4.4884   4.5184   4.5186
     4.5189   4.5990   4.6129   4.6363   4.6694   4.7251   4.7503   4.7614
     4.8221   4.8658   4.8659   4.8672   4.9247   4.9398   4.9465   5.0182
     5.0249   5.0866   5.0931   5.1339   5.1492   5.2290   5.2430   5.2437
     5.3211   5.3415   5.4091   5.4819   5.5496   5.6062   5.7352   5.7370
     5.7636   5.8674   5.8741   5.9501   6.0061   6.0221   6.0448   6.1596
     6.2019   6.2711   6.2720   6.3248   6.3556   6.4040   6.4258   6.4953
     6.5388   6.5416   6.5767   6.5900   6.6618   6.6745   6.7081   6.7085
     6.7340   6.8210   6.8261   6.8282   6.9523   6.9722   7.0101   7.0414
     7.1027   7.1103   7.1811   7.2253   7.2561   7.2876   7.3049   7.3742
     7.4013   7.4211   7.5488   7.5592   7.6428   7.6778   7.7713   7.7718
     7.8231   7.8993   7.9011   7.9294   7.9511   7.9539   8.0273   8.0682
     8.1504   8.1756   8.2018   8.2106   8.2181   8.2578   8.2758   8.2824
     8.3233   8.3501   8.4406   8.4848   8.5090   8.5151   8.5180   8.5532
     8.5768   8.5840   8.6013   8.6148   8.6646   8.6713   8.6877   8.7170
     8.7359   8.7824   8.7828   8.8163   8.8834   8.9055   8.9266   8.9477
     8.9522   8.9590   9.1150   9.2339   9.3274   9.3673   9.4500   9.6702
    10.1140  10.7156  11.3997  11.9670  11.9678  11.9947  12.0429  12.1197
    12.1236  12.2233  12.3562  12.5214  12.7203  12.8561  12.9395  13.1639
    13.3812  13.5781  13.6178  13.6535  14.0123  14.2761  14.3974  14.7086
    14.9797  15.2912  15.3671  15.4289  15.5729  15.6549  15.7093  15.9928
    16.0438  16.1711  16.4330  16.6777

          k = 0.2500-0.8660 0.0000 ( 23532 PWs)   bands (ev):

     4.2328   4.2328   4.3344   4.3344   4.4485   4.4486   4.4940   4.4941
     4.5354   4.5354   4.6640   4.6641   4.6952   4.6953   4.7360   4.7360
     4.8007   4.8008   4.8129   4.8129   4.9013   4.9014   4.9113   4.9113
     4.9519   4.9520   5.0474   5.0475   5.0684   5.0684   5.2341   5.2341
     5.3089   5.3090   5.3288   5.3288   5.5237   5.5238   5.6960   5.6961
     5.8448   5.8449   5.9808   5.9808   6.0557   6.0558   6.1330   6.1331
     6.1642   6.1642   6.2283   6.2283   6.4299   6.4300   6.4678   6.4678
     6.5464   6.5464   6.5890   6.5891   6.6566   6.6566   6.7024   6.7025
     6.7779   6.7779   6.8880   6.8881   7.0294   7.0294   7.0686   7.0686
     7.1651   7.1652   7.3157   7.3157   7.3607   7.3608   7.4349   7.4350
     7.5088   7.5088   7.6673   7.6673   7.6948   7.6949   7.9146   7.9146
     7.9218   7.9219   8.0626   8.0627   8.0982   8.0982   8.1071   8.1072
     8.2693   8.2694   8.3419   8.3419   8.3481   8.3481   8.3940   8.3941
     8.4047   8.4047   8.4338   8.4338   8.4689   8.4689   8.5287   8.5288
     8.6641   8.6642   8.6934   8.6935   8.7547   8.7549   8.7938   8.7939
     8.8280   8.8281   8.9093   8.9094   8.9707   8.9708   9.0307   9.0308
     9.0720   9.0721  10.3827  10.3827  10.4839  10.4839  10.6036  10.6036
    10.7364  10.7364  10.9220  10.9220  11.2078  11.2079  11.6152  11.6152
    12.1348  12.1348  12.7396  12.7396  13.3789  13.3789  13.5314  13.5314
    13.6446  13.6446  13.8229  13.8230  13.9329  13.9329  14.1492  14.1492
    14.4744  14.4745  14.7761  14.7761  15.0791  15.0792  15.4840  15.4841
    15.8110  15.8111  15.9602  15.9603

          k = 0.3750 0.0000 0.0000 ( 23492 PWs)   bands (ev):

     2.4812   2.6121   2.8221   3.1006   3.4322   3.6648   3.7632   3.7968
     3.9107   4.0803   4.1540   4.2368   4.3698   4.4320   4.4952   4.5654
     4.6044   4.6239   4.6865   4.7169   4.8477   4.8499   4.8536   4.8950
     4.9811   5.0193   5.1013   5.1897   5.2257   5.3230   5.4805   5.5088
     5.6210   5.6722   5.7655   5.8323   5.8690   5.9017   5.9219   5.9429
     5.9746   5.9965   6.0389   6.0770   6.1139   6.1234   6.1431   6.2211
     6.3259   6.3633   6.4082   6.4161   6.4831   6.4965   6.5093   6.5319
     6.5325   6.5532   6.5631   6.5897   6.6120   6.6121   6.6212   6.6313
     6.6485   6.6856   6.6920   6.6997   6.7392   6.7594   6.7918   6.8002
     6.8150   6.8232   6.8955   6.8970   6.9039   6.9323   6.9436   6.9613
     6.9881   6.9991   7.0103   7.0566   7.0938   7.0950   7.1317   7.1938
     7.1958   7.2060   7.2172   7.2955   7.3157   7.3407   7.3865   7.4237
     7.4847   7.4851   7.5269   7.5379   7.6170   7.6218   7.6423   7.6576
     7.6577   7.7659   7.7727   7.7762   7.8823   7.8881   7.9480   7.9716
     7.9845   7.9882   8.0053   8.0243   8.0359   8.0504   8.0665   8.0701
     8.0732   8.1219   8.1972   8.1983   8.2022   8.2338   8.2684   8.3223
     8.3588   8.3731   8.3956   8.4377   8.4685   8.5251   8.5488   8.5893
     8.6243   8.6989   8.7401   8.7999   8.8419   8.8493   8.9008   8.9285
     9.1571   9.4025   9.7701   9.9531  10.4331  10.6012  11.1319  11.3663
    11.8650  12.2413  12.6399  12.8827  13.4381  14.3128  14.9624  15.3798
    15.6101  15.8364  16.4923  16.9861  17.2009  17.2710  17.4246  17.6132
    17.7918  17.9667  18.2662  18.7133

          k = 0.3750 0.1443 0.0000 ( 23495 PWs)   bands (ev):

     2.6209   2.7491   2.9548   3.2279   3.5542   3.8092   3.9024   3.9157
     4.0418   4.2013   4.2755   4.3476   4.4779   4.5638   4.6127   4.7017
     4.7328   4.7430   4.7853   4.8400   4.9498   4.9604   4.9616   4.9728
     5.0545   5.1122   5.1903   5.2780   5.3459   5.4154   5.5057   5.5265
     5.6399   5.6593   5.6962   5.7816   5.7945   5.8149   5.8426   5.8830
     5.9066   5.9243   5.9454   6.0008   6.0315   6.0324   6.0818   6.1173
     6.1610   6.2265   6.2651   6.2699   6.2977   6.3843   6.3935   6.4284
     6.4348   6.4782   6.4987   6.5150   6.5416   6.5553   6.5940   6.6180
     6.6269   6.6541   6.6725   6.6748   6.6879   6.7005   6.7212   6.7239
     6.7758   6.8007   6.8059   6.8303   6.8364   6.8916   6.9386   6.9808
     7.0219   7.0237   7.0630   7.0791   7.1355   7.1463   7.1606   7.2073
     7.2132   7.2808   7.2910   7.3114   7.3481   7.3509   7.3680   7.3970
     7.4260   7.4458   7.4601   7.4858   7.5028   7.5610   7.5977   7.6525
     7.7150   7.7192   7.7249   7.7676   7.7811   7.8236   7.9056   7.9081
     7.9254   7.9728   8.0357   8.0440   8.0649   8.0912   8.1846   8.1937
     8.2172   8.2467   8.2895   8.3021   8.3906   8.4051   8.4226   8.4651
     8.4942   8.5173   8.5548   8.5854   8.6199   8.6451   8.6618   8.6914
     8.7089   8.7198   8.7510   8.7599   8.7922   8.8334   8.9361   9.1033
     9.4009   9.5473   9.9687  10.0900  10.6028  10.7449  11.2867  11.5188
    12.0139  12.3996  12.7833  13.1365  13.5630  14.4079  15.1883  15.4794
    15.7676  15.9428  16.6217  17.1123  17.2823  17.3504  17.4472  17.6464
    17.8837  18.0401  18.3033  18.7562

          k = 0.3750 0.2887 0.0000 ( 23497 PWs)   bands (ev):

     3.0052   3.1224   3.3099   3.5582   3.8543   4.1838   4.2034   4.2660
     4.3557   4.4519   4.5182   4.5489   4.6665   4.7929   4.8101   4.9102
     4.9705   4.9742   5.0458   5.1082   5.1871   5.1926   5.1944   5.2175
     5.2719   5.3349   5.3741   5.4032   5.4195   5.5030   5.5178   5.5894
     5.6293   5.6298   5.6467   5.6907   5.7106   5.7315   5.7400   5.7504
     5.7899   5.8142   5.8469   5.8684   5.8996   5.9061   5.9567   5.9681
     5.9736   5.9981   6.0605   6.1005   6.1269   6.2217   6.2285   6.2841
     6.3010   6.3231   6.3428   6.3479   6.3911   6.4294   6.4535   6.4601
     6.4746   6.5380   6.5535   6.5891   6.6144   6.6302   6.6517   6.6762
     6.7130   6.7184   6.7386   6.7417   6.7852   6.8618   6.9209   6.9395
     6.9528   7.0039   7.0221   7.1037   7.1550   7.2383   7.2542   7.2776
     7.3186   7.3232   7.3446   7.3568   7.3750   7.4109   7.4172   7.4256
     7.4908   7.5178   7.5288   7.5833   7.5902   7.6239   7.6463   7.6472
     7.6890   7.6981   7.7123   7.7649   7.8534   7.8834   7.9414   7.9603
     7.9706   8.0928   8.1033   8.1329   8.1360   8.1437   8.1834   8.2274
     8.2684   8.3182   8.3938   8.5123   8.5511   8.5649   8.5744   8.6129
     8.6180   8.6724   8.6896   8.7024   8.7077   8.7363   8.8293   8.8743
     8.9231   9.0559   9.0984   9.1124   9.1619   9.2693   9.3412   9.4929
     9.8384   9.9105  10.4246  10.4440  11.0479  11.1089  11.7096  11.8953
    12.4215  12.7710  13.1710  13.7938  13.9001  14.7294  15.7777  15.7849
    16.1960  16.2830  16.9596  17.4086  17.4453  17.5128  17.5993  17.7749
    18.0629  18.1184  18.3418  18.6445

          k = 0.3750 0.4330 0.0000 ( 23475 PWs)   bands (ev):

     3.4994   3.5983   3.7510   3.9421   4.1534   4.3713   4.4652   4.5295
     4.5776   4.6251   4.6698   4.7087   4.7268   4.7372   4.8317   4.8319
     4.9517   4.9611   5.0539   5.0732   5.1102   5.1650   5.1721   5.2182
     5.2317   5.2500   5.3103   5.3191   5.3260   5.3574   5.4140   5.4704
     5.5164   5.5863   5.5984   5.6226   5.7138   5.7193   5.7285   5.8318
     5.8473   5.8755   5.9392   5.9705   5.9721   5.9956   6.0807   6.1002
     6.1032   6.1144   6.1923   6.2126   6.2267   6.2415   6.2446   6.3012
     6.3245   6.3274   6.3348   6.3883   6.4037   6.4874   6.4956   6.5675
     6.5896   6.6070   6.6273   6.6337   6.6685   6.7131   6.7417   6.7559
     6.8258   6.8582   6.8789   6.8835   6.9216   6.9599   6.9736   6.9866
     7.0031   7.0184   7.1114   7.1251   7.1893   7.2555   7.2738   7.3872
     7.3955   7.4327   7.4601   7.5082   7.5188   7.5549   7.5740   7.6059
     7.6404   7.6597   7.6603   7.6944   7.6969   7.7598   7.7821   7.8348
     7.8998   7.9195   7.9255   7.9507   7.9771   7.9989   8.0420   8.0879
     8.1342   8.1811   8.2091   8.2434   8.3044   8.3400   8.3495   8.3740
     8.4066   8.4246   8.4894   8.6011   8.6477   8.6806   8.6917   8.7639
     8.7761   8.7788   8.7889   8.8176   8.8294   8.8640   8.9471   8.9911
     9.1079   9.5636   9.5916   9.6205   9.6324   9.7031   9.8592  10.1313
    10.2305  10.5452  10.8879  11.0704  11.6049  11.6704  12.3241  12.3872
    13.0158  13.2150  13.7263  14.3899  14.6339  15.3094  16.2526  16.2705
    16.5100  16.6162  16.7231  16.8979  17.0372  17.0759  17.3667  17.5284
    17.7037  17.7301  17.9636  18.1244

          k = 0.3750 0.5774 0.0000 ( 23521 PWs)   bands (ev):

     3.8323   3.9340   4.0865   4.2570   4.3202   4.3699   4.3952   4.4165
     4.4612   4.5502   4.5534   4.5686   4.6337   4.6677   4.7554   4.7633
     4.7780   4.8042   4.8678   4.8707   4.8917   4.9369   4.9481   4.9675
     5.0096   5.0298   5.0462   5.1081   5.1515   5.1761   5.1866   5.2250
     5.3144   5.3833   5.3886   5.4353   5.5571   5.6016   5.6803   5.8215
     5.8243   5.9565   5.9680   6.0559   6.0974   6.1111   6.1564   6.1803
     6.2573   6.3140   6.3670   6.3784   6.4283   6.4582   6.4749   6.4939
     6.5297   6.5437   6.5665   6.5724   6.6166   6.6490   6.7023   6.7189
     6.7498   6.7556   6.7788   6.8388   6.8791   6.8856   6.9750   7.0073
     7.0178   7.0784   7.0967   7.1210   7.1381   7.2140   7.2442   7.3054
     7.3773   7.4072   7.4612   7.5366   7.5698   7.6450   7.6562   7.7327
     7.7490   7.7497   7.8215   7.8374   7.9218   7.9466   7.9932   8.0202
     8.0642   8.0765   8.0791   8.1137   8.1490   8.2002   8.2091   8.2211
     8.2434   8.2501   8.2567   8.2614   8.3012   8.3216   8.3292   8.3354
     8.3409   8.3615   8.4249   8.4311   8.4779   8.4978   8.5395   8.5740
     8.5799   8.6358   8.6371   8.6863   8.6933   8.7650   8.7676   8.7961
     8.8389   8.8391   8.8679   8.9084   8.9152   8.9481   9.0183   9.0619
     9.4060  10.0669  10.0679  10.1377  10.2236  10.3388  10.5258  10.7744
    10.8238  11.2489  11.5052  11.7868  12.2506  12.4085  13.0116  13.0763
    13.7166  13.7706  14.2263  14.4890  14.6586  14.8519  14.9649  15.2524
    15.2750  15.5133  15.7947  15.8871  16.2342  16.3767  16.5070  16.7152
    16.7287  16.9720  17.1810  17.2411

          k = 0.3750 0.7217 0.0000 ( 23544 PWs)   bands (ev):

     3.9516   4.0583   4.1521   4.2216   4.2565   4.3063   4.3632   4.3726
     4.4152   4.4193   4.4512   4.4676   4.5677   4.5816   4.5819   4.6000
     4.6205   4.6380   4.6764   4.7011   4.7046   4.7306   4.8043   4.8138
     4.8206   4.8394   4.8680   4.9419   4.9732   4.9820   5.0584   5.0862
     5.1617   5.2049   5.2383   5.2618   5.4947   5.4990   5.7263   5.7566
     5.8694   5.9328   5.9793   6.0719   6.1019   6.1480   6.1887   6.2395
     6.3054   6.3586   6.3638   6.3774   6.3977   6.4481   6.4774   6.4833
     6.4968   6.5211   6.5729   6.6233   6.6562   6.7308   6.7364   6.7995
     6.8284   6.8389   6.9127   7.0056   7.0384   7.1442   7.1523   7.2248
     7.2336   7.2859   7.3730   7.4307   7.5078   7.5601   7.5827   7.6244
     7.7326   7.7846   7.8406   7.8477   7.8602   7.9913   8.0239   8.0841
     8.1387   8.2039   8.2401   8.3067   8.3162   8.3667   8.3804   8.4180
     8.4688   8.4811   8.4861   8.5347   8.5495   8.5547   8.5650   8.5706
     8.5937   8.6135   8.6180   8.6191   8.6398   8.6583   8.6715   8.6948
     8.6982   8.7115   8.7153   8.7212   8.7374   8.7532   8.7634   8.7872
     8.8028   8.8388   8.8612   8.8853   8.9153   8.9532   8.9850   8.9926
     9.0194   9.0347   9.0657   9.1791   9.3933   9.5225   9.5523   9.7073
    10.1773  10.7379  10.8451  10.8850  11.0512  11.2068  11.3730  11.5889
    11.5975  11.9028  12.2553  12.3612  12.5454  12.7240  12.8818  13.0242
    13.1209  13.1313  13.5850  13.7916  13.8467  14.1858  14.2899  14.3702
    14.4678  14.5007  14.6785  14.7963  14.8776  15.1796  15.1969  15.6046
    15.6788  15.9600  16.0690  16.2372

          k = 0.3750-0.8660 0.0000 ( 23556 PWs)   bands (ev):

     4.0302   4.0302   4.1369   4.1369   4.2751   4.2752   4.3014   4.3015
     4.3574   4.3575   4.4768   4.4768   4.5007   4.5008   4.5484   4.5485
     4.6098   4.6099   4.6223   4.6223   4.6860   4.6861   4.7297   4.7297
     4.7468   4.7468   4.8053   4.8053   4.9222   4.9222   5.0585   5.0586
     5.0842   5.0842   5.1952   5.1953   5.4632   5.4633   5.7326   5.7326
     5.9129   5.9130   6.0358   6.0359   6.1327   6.1328   6.2158   6.2158
     6.2625   6.2626   6.3700   6.3700   6.3942   6.3942   6.4696   6.4696
     6.5598   6.5599   6.6163   6.6164   6.6856   6.6856   6.7831   6.7832
     6.9185   6.9186   6.9983   6.9984   7.1059   7.1059   7.2801   7.2802
     7.3747   7.3747   7.4257   7.4257   7.6010   7.6010   7.7889   7.7889
     7.8190   7.8190   7.9081   7.9082   8.1507   8.1508   8.1964   8.1965
     8.2070   8.2071   8.4348   8.4348   8.4654   8.4654   8.5501   8.5502
     8.5684   8.5685   8.6133   8.6134   8.6632   8.6633   8.6879   8.6879
     8.7003   8.7004   8.7431   8.7432   8.7495   8.7496   8.7716   8.7717
     8.7859   8.7860   8.8152   8.8153   8.8542   8.8543   8.8738   8.8739
     8.9136   8.9137   8.9543   8.9545   9.0223   9.0224   9.0867   9.0868
     9.0992   9.0993  10.3011  10.3011  10.5311  10.5312  10.7744  10.7745
    10.9687  10.9688  11.1095  11.1096  11.2642  11.2643  11.5187  11.5187
    11.8777  11.8777  12.2546  12.2546  12.5253  12.5253  12.6835  12.6835
    12.7942  12.7942  12.8523  12.8524  13.5659  13.5660  13.7864  13.7864
    14.0930  14.0930  14.3995  14.3996  14.6866  14.6866  15.0480  15.0480
    15.5258  15.5258  15.9750  15.9751

          k =-0.5000 0.0000-0.0000 ( 23442 PWs)   bands (ev):

     3.1146   3.1147   3.2266   3.2267   3.4039   3.4039   3.6343   3.6343
     3.9017   3.9017   4.1883   4.1883   4.4607   4.4607   4.6510   4.6510
     4.7561   4.7561   4.8742   4.8742   5.0101   5.0101   5.1316   5.1316
     5.1664   5.1665   5.2083   5.2083   5.3124   5.3124   5.4452   5.4452
     5.5842   5.5842   5.7106   5.7107   5.8172   5.8172   5.8946   5.8947
     5.9225   5.9225   5.9908   5.9908   6.0436   6.0436   6.1431   6.1431
     6.2155   6.2155   6.2560   6.2561   6.3964   6.3964   6.5167   6.5168
     6.5823   6.5823   6.5971   6.5971   6.6179   6.6179   6.6424   6.6424
     6.6845   6.6845   6.6944   6.6944   6.6970   6.6970   6.7459   6.7459
     6.8142   6.8142   6.8171   6.8171   6.8955   6.8956   6.9619   6.9620
     6.9645   6.9645   7.1188   7.1188   7.1853   7.1853   7.1890   7.1890
     7.2132   7.2132   7.2614   7.2614   7.3275   7.3275   7.4070   7.4070
     7.4456   7.4456   7.4873   7.4874   7.5423   7.5423   7.5563   7.5563
     7.6057   7.6057   7.6193   7.6194   7.6606   7.6607   7.6965   7.6966
     7.7979   7.7979   7.8201   7.8201   7.8930   7.8930   7.9743   7.9744
     8.0462   8.0462   8.0564   8.0564   8.1101   8.1101   8.1659   8.1660
     8.2451   8.2452   8.3879   8.3880   8.3904   8.3904   8.5612   8.5612
     8.7158   8.7158   8.8172   8.8172   8.8220   8.8220   8.8698   8.8698
     9.3211   9.3211   9.8882   9.8882  10.5157  10.5157  11.2145  11.2145
    12.0000  12.0000  12.8686  12.8686  13.9806  13.9806  14.8574  14.8574
    15.8747  15.8749  16.4572  16.4574  17.4212  17.4216  17.8188  17.8190
    19.1548  19.1549  19.3103  19.3104

          k =-0.5000 0.1443-0.0000 ( 23476 PWs)   bands (ev):

     3.2535   3.2535   3.3611   3.3611   3.5317   3.5317   3.7544   3.7544
     4.0153   4.0154   4.3001   4.3001   4.5825   4.5825   4.7956   4.7956
     4.8973   4.8973   5.0075   5.0075   5.1355   5.1355   5.2140   5.2140
     5.2797   5.2798   5.2923   5.2923   5.3755   5.3756   5.4902   5.4902
     5.6044   5.6044   5.6820   5.6820   5.7427   5.7427   5.7644   5.7644
     5.8425   5.8425   5.8628   5.8628   5.9408   5.9408   6.0058   6.0058
     6.0572   6.0572   6.0769   6.0769   6.2401   6.2401   6.3928   6.3928
     6.4623   6.4623   6.4988   6.4988   6.5357   6.5358   6.5876   6.5876
     6.6139   6.6139   6.6394   6.6395   6.6489   6.6489   6.6690   6.6690
     6.7107   6.7107   6.7296   6.7296   6.7574   6.7574   6.8617   6.8617
     6.9730   6.9730   7.0633   7.0633   7.1680   7.1680   7.2986   7.2986
     7.3517   7.3517   7.3759   7.3759   7.3841   7.3841   7.4102   7.4103
     7.4541   7.4541   7.4991   7.4991   7.5766   7.5767   7.6363   7.6364
     7.7010   7.7010   7.7687   7.7687   7.7848   7.7848   7.8326   7.8326
     7.8648   7.8648   7.9353   7.9353   8.0776   8.0776   8.0949   8.0949
     8.1722   8.1722   8.1988   8.1988   8.2393   8.2393   8.2960   8.2960
     8.3016   8.3016   8.3490   8.3490   8.4355   8.4355   8.5811   8.5811
     8.6445   8.6445   8.7142   8.7142   8.7593   8.7593   9.0110   9.0110
     9.4755   9.4755  10.0200  10.0200  10.6409  10.6409  11.3423  11.3423
    12.1292  12.1293  12.9863  12.9863  14.2074  14.2074  14.9903  14.9904
    15.9966  15.9967  16.5549  16.5551  17.5675  17.5679  17.8771  17.8773
    19.2167  19.2168  19.3943  19.3944

          k =-0.5000 0.2887-0.0000 ( 23540 PWs)   bands (ev):

     3.6211   3.6211   3.7110   3.7110   3.8537   3.8537   4.0407   4.0407
     4.2628   4.2628   4.5122   4.5122   4.7773   4.7773   5.0406   5.0406
     5.2386   5.2387   5.2900   5.2900   5.3266   5.3267   5.3718   5.3718
     5.4020   5.4020   5.4246   5.4246   5.4513   5.4513   5.5237   5.5237
     5.5272   5.5272   5.5501   5.5501   5.5981   5.5981   5.6446   5.6447
     5.7156   5.7156   5.7716   5.7716   5.8154   5.8154   5.8284   5.8284
     5.9984   5.9984   6.0522   6.0522   6.0716   6.0716   6.1513   6.1513
     6.2182   6.2182   6.2507   6.2508   6.3411   6.3411   6.4133   6.4133
     6.4667   6.4667   6.5047   6.5047   6.5352   6.5352   6.5611   6.5611
     6.5901   6.5901   6.5964   6.5964   6.9801   6.9801   6.9902   6.9902
     7.0011   7.0011   7.0508   7.0508   7.1589   7.1589   7.1885   7.1885
     7.2612   7.2612   7.3402   7.3402   7.4412   7.4412   7.5245   7.5245
     7.5684   7.5684   7.6429   7.6429   7.6848   7.6848   7.7821   7.7821
     7.7898   7.7898   7.9401   7.9401   8.0219   8.0220   8.0506   8.0507
     8.1917   8.1918   8.1923   8.1923   8.2443   8.2443   8.3686   8.3686
     8.4056   8.4056   8.4285   8.4285   8.4520   8.4520   8.4912   8.4912
     8.5307   8.5307   8.5644   8.5644   8.5976   8.5976   8.6282   8.6282
     8.6823   8.6823   8.7170   8.7170   8.8429   8.8429   9.2787   9.2787
     9.7782   9.7782  10.3409  10.3410  10.9755  10.9755  11.6862  11.6862
    12.4683  12.4683  13.2853  13.2853  14.7919  14.7919  15.3829  15.3829
    16.3403  16.3403  16.8684  16.8685  17.9358  17.9359  18.0620  18.0621
    19.3005  19.3006  19.3422  19.3422

          k =-0.5000 0.4330-0.0000 ( 23522 PWs)   bands (ev):

     3.9806   3.9806   4.0643   4.0643   4.1884   4.1884   4.3278   4.3278
     4.4549   4.4549   4.5797   4.5797   4.7228   4.7229   4.8664   4.8665
     4.9705   4.9705   5.0415   5.0416   5.0968   5.0968   5.1410   5.1410
     5.2109   5.2109   5.2985   5.2985   5.3479   5.3479   5.4562   5.4563
     5.5056   5.5056   5.5893   5.5894   5.6442   5.6442   5.7440   5.7440
     5.8556   5.8556   5.9294   5.9294   5.9948   5.9948   6.0508   6.0508
     6.1182   6.1182   6.1824   6.1824   6.2338   6.2338   6.2761   6.2761
     6.3366   6.3366   6.4184   6.4184   6.4353   6.4353   6.4944   6.4944
     6.5333   6.5333   6.6290   6.6291   6.7107   6.7107   6.7573   6.7573
     6.7996   6.7996   6.8296   6.8296   6.8940   6.8940   6.9140   6.9140
     7.0153   7.0153   7.1069   7.1070   7.2252   7.2252   7.3874   7.3874
     7.4983   7.4983   7.5231   7.5231   7.5522   7.5522   7.5899   7.5899
     7.6158   7.6159   7.6890   7.6890   7.8095   7.8096   7.8526   7.8526
     8.0144   8.0144   8.0995   8.0995   8.2163   8.2163   8.2737   8.2738
     8.3645   8.3645   8.4619   8.4619   8.5089   8.5089   8.5339   8.5339
     8.5664   8.5664   8.6332   8.6332   8.6747   8.6748   8.7784   8.7784
     8.7851   8.7851   8.8279   8.8279   8.8568   8.8568   8.8798   8.8798
     8.9237   8.9238   9.0037   9.0037   9.1967   9.1967   9.6331   9.6331
    10.1815  10.1815  10.7978  10.7979  11.4697  11.4697  12.1901  12.1901
    12.9516  12.9516  13.7092  13.7092  15.4516  15.4516  15.9547  15.9548
    16.7744  16.7746  17.4255  17.4257  17.4698  17.4698  17.6955  17.6956
    17.9691  17.9691  18.1266  18.1268

          k =-0.5000 0.5774-0.0000 ( 23534 PWs)   bands (ev):

     4.0416   4.0416   4.1441   4.1442   4.3016   4.3017   4.4572   4.4572
     4.4884   4.4884   4.5186   4.5186   4.5990   4.5990   4.6363   4.6363
     4.7251   4.7251   4.7503   4.7503   4.8221   4.8221   4.8658   4.8658
     4.9398   4.9398   5.0249   5.0249   5.0931   5.0931   5.2290   5.2290
     5.2437   5.2437   5.3415   5.3415   5.5496   5.5496   5.7350   5.7350
     5.8739   5.8739   6.0445   6.0446   6.2018   6.2018   6.2723   6.2723
     6.3249   6.3250   6.3561   6.3561   6.4260   6.4260   6.4955   6.4955
     6.5420   6.5420   6.5768   6.5768   6.5900   6.5900   6.7084   6.7084
     6.7344   6.7344   6.8286   6.8286   6.9525   6.9525   7.0104   7.0105
     7.1032   7.1033   7.1809   7.1809   7.2571   7.2572   7.3052   7.3052
     7.4209   7.4210   7.5598   7.5598   7.6426   7.6426   7.7722   7.7722
     7.8229   7.8230   7.8987   7.8988   7.9296   7.9296   8.0270   8.0270
     8.1515   8.1515   8.2029   8.2029   8.2103   8.2103   8.2191   8.2191
     8.2752   8.2752   8.2818   8.2819   8.4404   8.4405   8.4850   8.4850
     8.5171   8.5171   8.5830   8.5830   8.6009   8.6009   8.6704   8.6704
     8.7357   8.7357   8.7822   8.7822   8.8166   8.8166   8.9057   8.9057
     8.9522   8.9522   9.1141   9.1141   9.2331   9.2331   9.3265   9.3265
     9.3665   9.3665   9.4506   9.4506   9.6708   9.6708  10.1141  10.1141
    10.7156  10.7156  11.3997  11.3997  12.1235  12.1235  12.8561  12.8561
    13.5781  13.5781  14.2761  14.2761  15.2911  15.2911  15.3671  15.3671
    15.5728  15.5728  15.7092  15.7092  15.9928  15.9928  16.4330  16.4330
    16.8995  16.8995  17.1986  17.1988

          k =-0.5000 0.7217-0.0000 ( 23516 PWs)   bands (ev):

     3.9883   3.9884   4.0953   4.0954   4.2598   4.2598   4.2767   4.2768
     4.3527   4.3528   4.4515   4.4515   4.4679   4.4679   4.5564   4.5564
     4.5811   4.5811   4.6309   4.6310   4.6419   4.6419   4.6891   4.6891
     4.7601   4.7601   4.8054   4.8054   4.9356   4.9356   5.0420   5.0421
     5.0706   5.0706   5.2032   5.2032   5.4719   5.4720   5.7383   5.7383
     5.9221   5.9221   6.0758   6.0758   6.1812   6.1812   6.2628   6.2628
     6.3085   6.3085   6.3689   6.3689   6.3835   6.3835   6.4691   6.4691
     6.5289   6.5290   6.6113   6.6113   6.7377   6.7377   6.7964   6.7964
     6.9119   6.9119   7.0085   7.0085   7.0759   7.0759   7.2848   7.2849
     7.3352   7.3352   7.4233   7.4233   7.5817   7.5818   7.7537   7.7537
     7.8275   7.8276   7.8859   7.8859   8.1271   8.1271   8.1452   8.1453
     8.2467   8.2467   8.3966   8.3966   8.4601   8.4602   8.5519   8.5519
     8.5579   8.5579   8.5967   8.5967   8.6516   8.6516   8.6789   8.6790
     8.6947   8.6947   8.7182   8.7182   8.7227   8.7227   8.7369   8.7370
     8.7608   8.7608   8.7773   8.7773   8.7966   8.7967   8.8405   8.8405
     8.8713   8.8713   8.9228   8.9228   8.9965   8.9965   9.0655   9.0655
     9.0741   9.0741   9.5770   9.5770   9.8205   9.8205  10.0553  10.0553
    10.2204  10.2204  10.3116  10.3116  10.4669  10.4669  10.8310  10.8310
    11.3909  11.3909  12.0562  12.0562  12.7503  12.7503  13.3423  13.3423
    13.4723  13.4723  13.5614  13.5614  13.6829  13.6829  13.9435  13.9435
    14.2490  14.2491  14.5492  14.5492  14.8653  14.8653  15.2456  15.2456
    15.6020  15.6020  15.8996  15.8996

          k =-0.5000-0.8660-0.0000 ( 23552 PWs)   bands (ev):

     3.9594   3.9595   4.0670   4.0670   4.2077   4.2078   4.2319   4.2320
     4.2879   4.2880   4.4044   4.4045   4.4281   4.4281   4.4903   4.4903
     4.5342   4.5343   4.5673   4.5674   4.6029   4.6030   4.6594   4.6595
     4.6987   4.6988   4.7021   4.7021   4.8775   4.8776   4.9823   4.9823
     5.0041   5.0042   5.1575   5.1576   5.4399   5.4399   5.7306   5.7307
     5.9425   5.9426   6.0614   6.0614   6.1631   6.1631   6.2477   6.2477
     6.3178   6.3178   6.3240   6.3240   6.3357   6.3357   6.4263   6.4264
     6.5722   6.5723   6.7387   6.7387   6.7653   6.7653   6.7789   6.7789
     6.9969   6.9970   7.0615   7.0616   7.1338   7.1338   7.2611   7.2612
     7.4881   7.4882   7.5476   7.5477   7.5736   7.5737   7.8410   7.8411
     7.9509   7.9509   8.0434   8.0435   8.1248   8.1249   8.3794   8.3795
     8.3888   8.3889   8.4852   8.4853   8.5776   8.5777   8.6965   8.6966
     8.7013   8.7014   8.7413   8.7414   8.7954   8.7954   8.8046   8.8047
     8.8195   8.8196   8.8364   8.8364   8.8393   8.8394   8.8601   8.8602
     8.8821   8.8822   8.9079   8.9080   8.9391   8.9392   8.9760   8.9761
     9.0209   9.0210   9.0257   9.0258   9.0634   9.0635   9.2212   9.2213
     9.2215   9.2216  10.2045  10.2045  10.5610  10.5610  10.9321  10.9321
    11.2418  11.2418  11.4695  11.4695  11.6249  11.6249  11.7287  11.7287
    11.8000  11.8000  11.8513  11.8513  11.8895  11.8895  11.9170  11.9170
    12.1221  12.1221  12.1223  12.1223  13.5605  13.5605  13.7349  13.7350
    14.0023  14.0023  14.2904  14.2904  14.5555  14.5556  14.8884  14.8884
    15.3537  15.3537  15.8994  15.8995

     the Fermi energy is    10.7342 ev

!    total energy              =  -20153.52618977 Ry

     total all-electron energy =   -988623.524557 Ry
     estimated scf accuracy    <       0.00000095 Ry
     smearing contrib. (-TS)   =      -0.02215595 Ry
     internal energy E=F+TS    =  -20153.50403382 Ry

     The total energy is F=E-TS. E is the sum of the following terms:
     one-electron contribution =   -8803.77264015 Ry
     hartree contribution      =    4727.36408853 Ry
     xc contribution           =    -833.58508264 Ry
     ewald contribution        =    2761.82222384 Ry
     one-center paw contrib.   =  -18005.33262339 Ry

     convergence has been achieved in  28 iterations

     negative rho (up, down):  1.962E-03 0.000E+00

     Forces acting on atoms (cartesian axes, Ry/au):

     atom    1 type  1   force =    -0.00003795    0.00000000   -0.00296873
     atom    2 type  1   force =     0.00004180    0.00000000    0.00253765
     atom    3 type  1   force =     0.00004981    0.00000000    0.00041445
     atom    4 type  1   force =    -0.00000150    0.00000000   -0.00003098
     atom    5 type  1   force =    -0.00005147    0.00000000    0.00058802
     atom    6 type  1   force =     0.00011729    0.00000000    0.00476594
     atom    7 type  1   force =    -0.00003440    0.00000000    0.00159170
     atom    8 type  1   force =     0.00002449    0.00000000   -0.00012174
     atom    9 type  1   force =     0.00002023    0.00000000    0.00010942
     atom   10 type  1   force =     0.00002925    0.00000000   -0.00093817
     atom   11 type  1   force =    -0.00011485    0.00000000   -0.00502007
     atom   12 type  1   force =    -0.00001934    0.00000000   -0.00028825
     atom   13 type  1   force =    -0.00002528    0.00000000   -0.00065818
     atom   14 type  1   force =     0.00012151    0.00000000    0.00475712
     atom   15 type  1   force =    -0.00002764    0.00000000    0.00158471
     atom   16 type  1   force =     0.00002627    0.00000000   -0.00012228
     atom   17 type  1   force =     0.00001912    0.00000000    0.00011170
     atom   18 type  1   force =     0.00002914    0.00000000   -0.00094495
     atom   19 type  1   force =    -0.00012617    0.00000000   -0.00500554
     atom   20 type  1   force =    -0.00001974    0.00000000   -0.00027877
     atom   21 type  1   force =    -0.00001982    0.00000000   -0.00064575
     atom   22 type  1   force =    -0.00003540    0.00000000   -0.00296373
     atom   23 type  1   force =     0.00003564    0.00000000    0.00254579
     atom   24 type  1   force =     0.00005031    0.00000000    0.00041985
     atom   25 type  1   force =     0.00000067    0.00000000   -0.00004058
     atom   26 type  1   force =    -0.00005195    0.00000000    0.00060137

     Total force =     0.011625     Total SCF correction =     0.005714
     SCF correction compared to forces is large: reduce conv_thr to get better values

     Writing all to output data dir ./pwscf.save/
 
     init_run     :     18.93s CPU     19.94s WALL (       1 calls)
     electrons    :   1382.09s CPU   1396.16s WALL (       1 calls)
     forces       :      6.22s CPU      6.30s WALL (       1 calls)

     Called by init_run:
     wfcinit      :     18.21s CPU     18.63s WALL (       1 calls)
     potinit      :      0.35s CPU      0.46s WALL (       1 calls)
     hinit0       :      0.20s CPU      0.55s WALL (       1 calls)

     Called by electrons:
     c_bands      :   1253.65s CPU   1266.15s WALL (      29 calls)
     sum_band     :    119.67s CPU    120.73s WALL (      29 calls)
     v_of_rho     :      0.83s CPU      1.15s WALL (      29 calls)
     newd         :      1.53s CPU      1.74s WALL (      29 calls)
     PAW_pot      :      6.58s CPU      6.65s WALL (      29 calls)
     mix_rho      :      0.11s CPU      0.12s WALL (      29 calls)

     Called by c_bands:
     init_us_2    :      3.21s CPU      3.28s WALL (    2100 calls)
     init_us_2:cp :      3.20s CPU      3.27s WALL (    2100 calls)
     cegterg      :   1207.79s CPU   1219.75s WALL (    1015 calls)

     Called by *egterg:
     cdiaghg      :    141.82s CPU    143.92s WALL (    6382 calls)
     h_psi        :    697.22s CPU    703.21s WALL (    6452 calls)
     s_psi        :     78.65s CPU     79.02s WALL (    6452 calls)
     g_psi        :      1.57s CPU      1.58s WALL (    5402 calls)

     Called by h_psi:
     h_psi:calbec :     99.51s CPU     99.97s WALL (    6452 calls)
     vloc_psi     :    514.95s CPU    518.74s WALL (    6452 calls)
     add_vuspsi   :     81.72s CPU     82.03s WALL (    6452 calls)

     General routines
     calbec       :    140.43s CPU    141.07s WALL (    7607 calls)
     fft          :      0.85s CPU      1.42s WALL (     331 calls)
     ffts         :      0.03s CPU      0.05s WALL (      29 calls)
     fftw         :    573.53s CPU    577.67s WALL ( 1062902 calls)
 
     Parallel routines
 
     PWSCF        :  23m34.67s CPU  23m59.51s WALL

 
   This run was terminated on:  19:50:49  15Feb2024            

=------------------------------------------------------------------------------=
   JOB DONE.
=------------------------------------------------------------------------------=
