MPI startup(): Warning: I_MPI_PMI_LIBRARY will be ignored since the hydra process manager was found
MPI startup(): Warning: I_MPI_PMI_LIBRARY will be ignored since the hydra process manager was found
MPI startup(): Warning: I_MPI_PMI_LIBRARY will be ignored since the hydra process manager was found
MPI startup(): Warning: I_MPI_PMI_LIBRARY will be ignored since the hydra process manager was found
MPI startup(): Warning: I_MPI_PMI_LIBRARY will be ignored since the hydra process manager was found
MPI startup(): Warning: I_MPI_PMI_LIBRARY will be ignored since the hydra process manager was found
MPI startup(): Warning: I_MPI_PMI_LIBRARY will be ignored since the hydra process manager was found
MPI startup(): Warning: I_MPI_PMI_LIBRARY will be ignored since the hydra process manager was found
MPI startup(): Warning: I_MPI_PMI_LIBRARY will be ignored since the hydra process manager was found
MPI startup(): Warning: I_MPI_PMI_LIBRARY will be ignored since the hydra process manager was found

     Program PWSCF v.7.0 starts on 15Feb2024 at 22:44: 5 

     This program is part of the open-source Quantum ESPRESSO suite
     for quantum simulation of materials; please cite
         "P. Giannozzi et al., J. Phys.:Condens. Matter 21 395502 (2009);
         "P. Giannozzi et al., J. Phys.:Condens. Matter 29 465901 (2017);
         "P. Giannozzi et al., J. Chem. Phys. 152 154105 (2020);
          URL http://www.quantum-espresso.org", 
     in publications or presentations arising from this work. More details at
     http://www.quantum-espresso.org/quote

     Parallel version (MPI), running on    10 processors

     MPI processes distributed on     1 nodes
     R & G space division:  proc/nbgrp/npool/nimage =      10
     125183 MiB available memory on the printing compute node when the environment starts
 
     Reading input from GSF111_0.3.in
Warning: card &CELL ignored
Warning: card / ignored

     Current dimensions of program PWSCF are:
     Max number of different atomic species (ntypx) = 10
     Max number of k-points (npk) =  40000
     Max angular momentum in pseudopotentials (lmaxx) =  4

     File ./pwscf.bfgs deleted, as requested
     file Au.pbe-n-kjpaw_psl.1.0.0.UPF: wavefunction(s)  6S 5D renormalized
     Found identity + ( -0.5000  0.5000  0.0000) symmetry
     This is a supercell, fractional translations are disabled

     Subspace diagonalization in iterative solution of the eigenvalue problem:
     one sub-group per band group will be used
     scalapack distributed-memory algorithm (size of sub-group:  3*  3 procs)

 
     Parallelization info
     --------------------
     sticks:   dense  smooth     PW     G-vecs:    dense   smooth      PW
     Min          85      85     25                18799    18799    3045
     Max          87      87     26                18816    18816    3065
     Sum         859     859    251               188065   188065   30575
 
     Using Slab Decomposition
 


     bravais-lattice index     =            0
     lattice parameter (alat)  =       9.6360  a.u.
     unit-cell volume          =    3935.2145 (a.u.)^3
     number of atoms/cell      =           26
     number of atomic types    =            1
     number of electrons       =       286.00
     number of Kohn-Sham states=          172
     kinetic-energy cutoff     =      50.0000  Ry
     charge density cutoff     =     200.0000  Ry
     scf convergence threshold =      1.0E-06
     mixing beta               =       0.7000
     number of iterations used =            8  plain     mixing
     Exchange-correlation= SLA  PW   PBX  PBC
                           (   1   4   3   4   0   0   0)

     celldm(1)=   9.635999  celldm(2)=   0.000000  celldm(3)=   0.000000
     celldm(4)=   0.000000  celldm(5)=   0.000000  celldm(6)=   0.000000

     crystal axes: (cart. coord. in units of alat)
               a(1) = (   1.000000   0.000000   0.000000 )  
               a(2) = (   0.000000   0.577350   0.000000 )  
               a(3) = (  -0.000005   0.000000   7.617966 )  

     reciprocal axes: (cart. coord. in units 2 pi/alat)
               b(1) = (  1.000000  0.000000  0.000001 )  
               b(2) = (  0.000000  1.732052  0.000000 )  
               b(3) = (  0.000000  0.000000  0.131269 )  


     PseudoPot. # 1 for Au read from file:
     ./Au.pbe-n-kjpaw_psl.1.0.0.UPF
     MD5 check sum: 4db85c736373c707a97ce4c36c2a9d23
     Pseudo is Projector augmented-wave + core cor, Zval = 11.0
     Generated using &quot;atomic&quot; code by A. Dal Corso  v.6.3
     Shape of augmentation charge: PSQ
     Using radial grid of 1279 points,  6 beta functions with: 
                l(1) =   0
                l(2) =   0
                l(3) =   1
                l(4) =   1
                l(5) =   2
                l(6) =   2
     Q(r) pseudized with 0 coefficients 


     atomic species   valence    mass     pseudopotential
        Au            11.00   196.96657     Au( 1.00)

     No symmetry found



   Cartesian axes

     site n.     atom                  positions (alat units)
         1           Au  tau(   1) = (   0.0000000   0.0000000   0.0000000  )
         2           Au  tau(   2) = (   0.9999954   0.1732053   5.6568550  )
         3           Au  tau(   3) = (   0.9999966   0.1732053   4.2426411  )
         4           Au  tau(   4) = (   0.9999976   0.0000000   2.8284275  )
         5           Au  tau(   5) = (   0.9999988   0.0000000   1.4142138  )
         6           Au  tau(   6) = (   0.3333329   0.0000000   0.4714045  )
         7           Au  tau(   7) = (   0.3333296   0.1732053   4.7140455  )
         8           Au  tau(   8) = (   0.3333308   0.1732053   3.2998319  )
         9           Au  tau(   9) = (   0.3333318   0.0000000   1.8856185  )
        10           Au  tau(  10) = (   0.6666659   0.0000000   0.9428093  )
        11           Au  tau(  11) = (   0.6666625   0.1732053   5.1854506  )
        12           Au  tau(  12) = (   0.6666637   0.1732053   3.7712367  )
        13           Au  tau(  13) = (   0.6666649   0.0000000   2.3570234  )
        14           Au  tau(  14) = (   0.8333330   0.2886749   0.4714045  )
        15           Au  tau(  15) = (   0.8333294   0.4618802   4.7140455  )
        16           Au  tau(  16) = (   0.8333306   0.4618802   3.2998319  )
        17           Au  tau(  17) = (   0.8333318   0.2886749   1.8856185  )
        18           Au  tau(  18) = (   0.1666658   0.2886749   0.9428093  )
        19           Au  tau(  19) = (   0.1666624   0.4618802   5.1854506  )
        20           Au  tau(  20) = (   0.1666636   0.4618802   3.7712367  )
        21           Au  tau(  21) = (   0.1666648   0.2886749   2.3570234  )
        22           Au  tau(  22) = (   0.5000001   0.2886749   0.0000000  )
        23           Au  tau(  23) = (   0.4999955   0.4618802   5.6568550  )
        24           Au  tau(  24) = (   0.4999965   0.4618802   4.2426411  )
        25           Au  tau(  25) = (   0.4999977   0.2886749   2.8284275  )
        26           Au  tau(  26) = (   0.4999989   0.2886749   1.4142138  )

     number of k points=    50  Gaussian smearing, width (Ry)=  0.0200
                       cart. coord. in units 2pi/alat
        k(    1) = (   0.0000000   0.0000000   0.0000000), wk =   0.0208333
        k(    2) = (   0.0000000   0.1443376   0.0000000), wk =   0.0416667
        k(    3) = (   0.0000000   0.2886753   0.0000000), wk =   0.0416667
        k(    4) = (   0.0000000   0.4330129   0.0000000), wk =   0.0416667
        k(    5) = (   0.0000000   0.5773506   0.0000000), wk =   0.0416667
        k(    6) = (   0.0000000   0.7216882   0.0000000), wk =   0.0416667
        k(    7) = (   0.0000000  -0.8660259   0.0000000), wk =   0.0208333
        k(    8) = (   0.1250000   0.0000000   0.0000001), wk =   0.0416667
        k(    9) = (   0.1250000   0.1443376   0.0000001), wk =   0.0416667
        k(   10) = (   0.1250000   0.2886753   0.0000001), wk =   0.0416667
        k(   11) = (   0.1250000   0.4330129   0.0000001), wk =   0.0416667
        k(   12) = (   0.1250000   0.5773506   0.0000001), wk =   0.0416667
        k(   13) = (   0.1250000   0.7216882   0.0000001), wk =   0.0416667
        k(   14) = (   0.1250000  -0.8660259   0.0000001), wk =   0.0416667
        k(   15) = (   0.2500000   0.0000000   0.0000002), wk =   0.0416667
        k(   16) = (   0.2500000   0.1443376   0.0000002), wk =   0.0416667
        k(   17) = (   0.2500000   0.2886753   0.0000002), wk =   0.0416667
        k(   18) = (   0.2500000   0.4330129   0.0000002), wk =   0.0416667
        k(   19) = (   0.2500000   0.5773506   0.0000002), wk =   0.0416667
        k(   20) = (   0.2500000   0.7216882   0.0000002), wk =   0.0416667
        k(   21) = (   0.2500000  -0.8660259   0.0000002), wk =   0.0416667
        k(   22) = (   0.3750000   0.0000000   0.0000002), wk =   0.0416667
        k(   23) = (   0.3750000   0.1443376   0.0000002), wk =   0.0416667
        k(   24) = (   0.3750000   0.2886753   0.0000002), wk =   0.0416667
        k(   25) = (   0.3750000   0.4330129   0.0000002), wk =   0.0416667
        k(   26) = (   0.3750000   0.5773506   0.0000002), wk =   0.0416667
        k(   27) = (   0.3750000   0.7216882   0.0000002), wk =   0.0416667
        k(   28) = (   0.3750000  -0.8660259   0.0000002), wk =   0.0416667
        k(   29) = (  -0.5000000   0.0000000  -0.0000003), wk =   0.0208333
        k(   30) = (  -0.5000000   0.1443376  -0.0000003), wk =   0.0416667
        k(   31) = (  -0.5000000   0.2886753  -0.0000003), wk =   0.0416667
        k(   32) = (  -0.5000000   0.4330129  -0.0000003), wk =   0.0416667
        k(   33) = (  -0.5000000   0.5773506  -0.0000003), wk =   0.0416667
        k(   34) = (  -0.5000000   0.7216882  -0.0000003), wk =   0.0416667
        k(   35) = (  -0.5000000  -0.8660259  -0.0000003), wk =   0.0208333
        k(   36) = (  -0.1250000   0.1443376  -0.0000001), wk =   0.0416667
        k(   37) = (  -0.1250000   0.2886753  -0.0000001), wk =   0.0416667
        k(   38) = (  -0.1250000   0.4330129  -0.0000001), wk =   0.0416667
        k(   39) = (  -0.1250000   0.5773506  -0.0000001), wk =   0.0416667
        k(   40) = (  -0.1250000   0.7216882  -0.0000001), wk =   0.0416667
        k(   41) = (  -0.2500000   0.1443376  -0.0000002), wk =   0.0416667
        k(   42) = (  -0.2500000   0.2886753  -0.0000002), wk =   0.0416667
        k(   43) = (  -0.2500000   0.4330129  -0.0000002), wk =   0.0416667
        k(   44) = (  -0.2500000   0.5773506  -0.0000002), wk =   0.0416667
        k(   45) = (  -0.2500000   0.7216882  -0.0000002), wk =   0.0416667
        k(   46) = (  -0.3750000   0.1443376  -0.0000002), wk =   0.0416667
        k(   47) = (  -0.3750000   0.2886753  -0.0000002), wk =   0.0416667
        k(   48) = (  -0.3750000   0.4330129  -0.0000002), wk =   0.0416667
        k(   49) = (  -0.3750000   0.5773506  -0.0000002), wk =   0.0416667
        k(   50) = (  -0.3750000   0.7216882  -0.0000002), wk =   0.0416667

     Dense  grid:   188065 G-vectors     FFT dimensions: (  45,  25, 360)

     Estimated max dynamical RAM per process >     418.32 MB

     Estimated total dynamical RAM >       4.09 GB

     Initial potential from superposition of free atoms

     starting charge     285.9971, renormalised to     286.0000

     negative rho (up, down):  2.643E-03 0.000E+00
     Starting wfcs are  234 randomized atomic wfcs
     Checking if some PAW data can be deallocated... 

     total cpu time spent up to now is       24.4 secs

     Self-consistent Calculation

     iteration #  1     ecut=    50.00 Ry     beta= 0.70
     Davidson diagonalization with overlap
     ethr =  1.00E-02,  avg # of iterations =  4.9

     Threshold (ethr) on eigenvalues was too large:
     Diagonalizing with lowered threshold

     Davidson diagonalization with overlap
     ethr =  4.06E-04,  avg # of iterations =  4.6

     negative rho (up, down):  1.859E-03 0.000E+00

     total cpu time spent up to now is      173.5 secs

     total energy              =  -20152.80067045 Ry
     estimated scf accuracy    <       1.47194164 Ry

     iteration #  2     ecut=    50.00 Ry     beta= 0.70
     Davidson diagonalization with overlap
     ethr =  5.15E-04,  avg # of iterations = 16.1

     negative rho (up, down):  1.859E-03 0.000E+00

     total cpu time spent up to now is      324.3 secs

     total energy              =  -20132.56992661 Ry
     estimated scf accuracy    <    2801.32007996 Ry

     iteration #  3     ecut=    50.00 Ry     beta= 0.70
     Davidson diagonalization with overlap
     ethr =  5.15E-04,  avg # of iterations = 10.9

     negative rho (up, down):  2.057E-03 0.000E+00

     total cpu time spent up to now is      434.5 secs

     total energy              =  -20152.33385822 Ry
     estimated scf accuracy    <       5.25582283 Ry

     iteration #  4     ecut=    50.00 Ry     beta= 0.70
     Davidson diagonalization with overlap
     ethr =  5.15E-04,  avg # of iterations = 10.7

     negative rho (up, down):  2.142E-03 0.000E+00

     total cpu time spent up to now is      529.6 secs

     total energy              =  -20149.15866794 Ry
     estimated scf accuracy    <     181.29944349 Ry

     iteration #  5     ecut=    50.00 Ry     beta= 0.70
     Davidson diagonalization with overlap
     c_bands:  1 eigenvalues not converged
     c_bands:  1 eigenvalues not converged
     c_bands:  1 eigenvalues not converged
     ethr =  5.15E-04,  avg # of iterations = 13.2

     negative rho (up, down):  2.067E-03 0.000E+00

     total cpu time spent up to now is      654.5 secs

     total energy              =  -20140.37720760 Ry
     estimated scf accuracy    <    2250.99367960 Ry

     iteration #  6     ecut=    50.00 Ry     beta= 0.70
     Davidson diagonalization with overlap
     ethr =  5.15E-04,  avg # of iterations = 11.1

     negative rho (up, down):  2.027E-03 0.000E+00

     total cpu time spent up to now is      749.8 secs

     total energy              =  -20153.36982732 Ry
     estimated scf accuracy    <       1.59501471 Ry

     iteration #  7     ecut=    50.00 Ry     beta= 0.70
     Davidson diagonalization with overlap
     ethr =  5.15E-04,  avg # of iterations =  2.3

     negative rho (up, down):  2.049E-03 0.000E+00

     total cpu time spent up to now is      806.7 secs

     total energy              =  -20153.44267701 Ry
     estimated scf accuracy    <       1.28593688 Ry

     iteration #  8     ecut=    50.00 Ry     beta= 0.70
     Davidson diagonalization with overlap
     ethr =  4.50E-04,  avg # of iterations =  1.2

     negative rho (up, down):  2.095E-03 0.000E+00

     total cpu time spent up to now is      858.4 secs

     total energy              =  -20153.47105248 Ry
     estimated scf accuracy    <       1.03332161 Ry

     iteration #  9     ecut=    50.00 Ry     beta= 0.70
     Davidson diagonalization with overlap
     ethr =  3.61E-04,  avg # of iterations =  1.2

     negative rho (up, down):  2.215E-03 0.000E+00

     total cpu time spent up to now is      909.5 secs

     total energy              =  -20153.49021915 Ry
     estimated scf accuracy    <       0.37715622 Ry

     iteration # 10     ecut=    50.00 Ry     beta= 0.70
     Davidson diagonalization with overlap
     ethr =  1.32E-04,  avg # of iterations =  2.9

     negative rho (up, down):  2.423E-03 0.000E+00

     total cpu time spent up to now is      963.7 secs

     total energy              =  -20153.49716445 Ry
     estimated scf accuracy    <       0.09974603 Ry

     iteration # 11     ecut=    50.00 Ry     beta= 0.70
     Davidson diagonalization with overlap
     c_bands:  1 eigenvalues not converged
     c_bands:  1 eigenvalues not converged
     c_bands:  1 eigenvalues not converged
     c_bands:  1 eigenvalues not converged
     ethr =  3.49E-05,  avg # of iterations =  8.1

     negative rho (up, down):  2.494E-03 0.000E+00

     total cpu time spent up to now is     1028.3 secs

     total energy              =  -20153.49910307 Ry
     estimated scf accuracy    <       0.03827714 Ry

     iteration # 12     ecut=    50.00 Ry     beta= 0.70
     Davidson diagonalization with overlap
     c_bands:  1 eigenvalues not converged
     ethr =  1.34E-05,  avg # of iterations =  9.0

     negative rho (up, down):  2.455E-03 0.000E+00

     total cpu time spent up to now is     1096.5 secs

     total energy              =  -20153.49572418 Ry
     estimated scf accuracy    <       0.34231626 Ry

     iteration # 13     ecut=    50.00 Ry     beta= 0.70
     Davidson diagonalization with overlap
     c_bands:  1 eigenvalues not converged
     ethr =  1.34E-05,  avg # of iterations =  6.6

     negative rho (up, down):  2.538E-03 0.000E+00

     total cpu time spent up to now is     1161.1 secs

     total energy              =  -20153.50164848 Ry
     estimated scf accuracy    <       0.04755032 Ry

     iteration # 14     ecut=    50.00 Ry     beta= 0.70
     Davidson diagonalization with overlap
     ethr =  1.34E-05,  avg # of iterations =  2.4

     negative rho (up, down):  2.484E-03 0.000E+00

     total cpu time spent up to now is     1218.4 secs

     total energy              =  -20153.50188411 Ry
     estimated scf accuracy    <       0.04065208 Ry

     iteration # 15     ecut=    50.00 Ry     beta= 0.70
     Davidson diagonalization with overlap
     ethr =  1.34E-05,  avg # of iterations = 11.7

     negative rho (up, down):  2.489E-03 0.000E+00

     total cpu time spent up to now is     1287.8 secs

     total energy              =  -20153.48621311 Ry
     estimated scf accuracy    <       1.71858860 Ry

     iteration # 16     ecut=    50.00 Ry     beta= 0.70
     Davidson diagonalization with overlap
     c_bands:  1 eigenvalues not converged
     ethr =  1.34E-05,  avg # of iterations = 12.3

     negative rho (up, down):  2.497E-03 0.000E+00

     total cpu time spent up to now is     1361.1 secs

     total energy              =  -20153.50363772 Ry
     estimated scf accuracy    <       0.00534143 Ry

     iteration # 17     ecut=    50.00 Ry     beta= 0.70
     Davidson diagonalization with overlap
     c_bands:  1 eigenvalues not converged
     ethr =  1.87E-06,  avg # of iterations =  6.6

     negative rho (up, down):  2.499E-03 0.000E+00

     total cpu time spent up to now is     1422.2 secs

     total energy              =  -20153.50392147 Ry
     estimated scf accuracy    <       0.00007841 Ry

     iteration # 18     ecut=    50.00 Ry     beta= 0.70
     Davidson diagonalization with overlap
     ethr =  2.74E-08,  avg # of iterations =  6.8

     negative rho (up, down):  2.499E-03 0.000E+00

     total cpu time spent up to now is     1553.4 secs

     total energy              =  -20153.50399497 Ry
     estimated scf accuracy    <       0.00026354 Ry

     iteration # 19     ecut=    50.00 Ry     beta= 0.70
     Davidson diagonalization with overlap
     ethr =  2.74E-08,  avg # of iterations =  1.1

     negative rho (up, down):  2.503E-03 0.000E+00

     total cpu time spent up to now is     1603.2 secs

     total energy              =  -20153.50397410 Ry
     estimated scf accuracy    <       0.00016826 Ry

     iteration # 20     ecut=    50.00 Ry     beta= 0.70
     Davidson diagonalization with overlap
     ethr =  2.74E-08,  avg # of iterations =  2.0

     negative rho (up, down):  2.505E-03 0.000E+00

     total cpu time spent up to now is     1665.8 secs

     total energy              =  -20153.50395904 Ry
     estimated scf accuracy    <       0.00027873 Ry

     iteration # 21     ecut=    50.00 Ry     beta= 0.70
     Davidson diagonalization with overlap
     ethr =  2.74E-08,  avg # of iterations =  2.0

     negative rho (up, down):  2.507E-03 0.000E+00

     total cpu time spent up to now is     1724.7 secs

     total energy              =  -20153.50397502 Ry
     estimated scf accuracy    <       0.00014190 Ry

     iteration # 22     ecut=    50.00 Ry     beta= 0.70
     Davidson diagonalization with overlap
     ethr =  2.74E-08,  avg # of iterations =  2.0

     negative rho (up, down):  2.507E-03 0.000E+00

     total cpu time spent up to now is     1781.7 secs

     total energy              =  -20153.50397187 Ry
     estimated scf accuracy    <       0.00043380 Ry

     iteration # 23     ecut=    50.00 Ry     beta= 0.70
     Davidson diagonalization with overlap
     ethr =  2.74E-08,  avg # of iterations =  1.6

     negative rho (up, down):  2.507E-03 0.000E+00

     total cpu time spent up to now is     1836.1 secs

     total energy              =  -20153.50397544 Ry
     estimated scf accuracy    <       0.00060330 Ry

     iteration # 24     ecut=    50.00 Ry     beta= 0.70
     Davidson diagonalization with overlap
     ethr =  2.74E-08,  avg # of iterations =  1.6

     negative rho (up, down):  2.507E-03 0.000E+00

     total cpu time spent up to now is     1890.8 secs

     total energy              =  -20153.50397975 Ry
     estimated scf accuracy    <       0.00035496 Ry

     iteration # 25     ecut=    50.00 Ry     beta= 0.70
     Davidson diagonalization with overlap
     ethr =  2.74E-08,  avg # of iterations =  1.4

     negative rho (up, down):  2.507E-03 0.000E+00

     total cpu time spent up to now is     1942.6 secs

     total energy              =  -20153.50398892 Ry
     estimated scf accuracy    <       0.00001677 Ry

     iteration # 26     ecut=    50.00 Ry     beta= 0.70
     Davidson diagonalization with overlap
     ethr =  5.86E-09,  avg # of iterations =  1.9

     negative rho (up, down):  2.507E-03 0.000E+00

     total cpu time spent up to now is     1999.1 secs

     total energy              =  -20153.50398520 Ry
     estimated scf accuracy    <       0.00037350 Ry

     iteration # 27     ecut=    50.00 Ry     beta= 0.70
     Davidson diagonalization with overlap
     ethr =  5.86E-09,  avg # of iterations =  1.1

     negative rho (up, down):  2.507E-03 0.000E+00

     total cpu time spent up to now is     2050.2 secs

     total energy              =  -20153.50398875 Ry
     estimated scf accuracy    <       0.00008998 Ry

     iteration # 28     ecut=    50.00 Ry     beta= 0.70
     Davidson diagonalization with overlap
     ethr =  5.86E-09,  avg # of iterations =  1.1

     negative rho (up, down):  2.507E-03 0.000E+00

     total cpu time spent up to now is     2099.0 secs

     total energy              =  -20153.50399045 Ry
     estimated scf accuracy    <       0.00000239 Ry

     iteration # 29     ecut=    50.00 Ry     beta= 0.70
     Davidson diagonalization with overlap
     ethr =  8.35E-10,  avg # of iterations =  1.7

     negative rho (up, down):  2.507E-03 0.000E+00

     total cpu time spent up to now is     2152.6 secs

     total energy              =  -20153.50399032 Ry
     estimated scf accuracy    <       0.00001372 Ry

     iteration # 30     ecut=    50.00 Ry     beta= 0.70
     Davidson diagonalization with overlap
     ethr =  8.35E-10,  avg # of iterations =  1.0

     negative rho (up, down):  2.507E-03 0.000E+00

     total cpu time spent up to now is     2203.6 secs

     End of self-consistent calculation

          k = 0.0000 0.0000 0.0000 ( 23605 PWs)   bands (ev):

     1.5102   1.6497   1.8869   2.1895   2.5555   2.9460   3.3227   3.6244
     3.8193   3.8916   3.9389   3.9621   4.0642   4.0681   4.0705   4.2066
     4.2227   4.2834   4.4040   4.4268   4.4984   4.5453   4.5616   4.6000
     4.6452   4.6834   4.8118   4.8926   4.9850   5.0049   5.1712   5.4287
     5.4785   5.6027   5.7503   5.9685   6.1381   6.1449   6.1762   6.2272
     6.2491   6.2668   6.3041   6.3142   6.3178   6.3309   6.3356   6.3523
     6.3525   6.3782   6.3844   6.3908   6.4027   6.4043   6.4244   6.4319
     6.4358   6.4509   6.4691   6.4789   6.5076   6.5206   6.5339   6.5417
     6.5586   6.5595   6.5740   6.5897   6.6183   6.6553   6.6843   6.6923
     6.7547   6.7655   6.8668   6.8674   6.8692   6.8696   6.8702   7.0397
     7.0747   7.1441   7.1833   7.2891   7.4648   7.5159   7.5269   7.5598
     7.6375   7.6843   7.6847   7.6949   7.6972   7.7198   7.7219   7.7641
     7.7840   7.8208   7.8816   7.8862   7.8949   7.9352   8.0158   8.0245
     8.0271   8.1070   8.1796   8.1840   8.3386   8.3515   8.3798   8.3881
     8.5045   8.5102   8.5273   8.5521   8.5684   8.6292   8.6950   8.6993
     8.7072   8.7263   8.7571   8.7580   8.7735   8.7977   8.8046   8.8111
     8.8215   8.8341   8.8401   8.8611   8.8814   8.9035   8.9369   8.9617
     9.0159   9.0359   9.1208   9.2168   9.2194   9.4158  10.2081  10.5097
    10.5668  10.6288  10.9349  11.2524  11.4711  11.6277  11.7293  11.7924
    11.8550  11.8810  11.9333  12.1180  12.1203  13.5280  13.7325  13.9814
    13.9932  14.2893  14.5455  14.8661  14.8880  15.0583  15.3474  15.9000
    16.2465  16.3973  16.4557  16.4703

          k = 0.0000 0.1443 0.0000 ( 23551 PWs)   bands (ev):

     1.6620   1.8012   2.0359   2.3370   2.7010   3.0909   3.4677   3.7682
     3.9572   4.0225   4.0569   4.0861   4.1869   4.2038   4.2061   4.2973
     4.3406   4.3877   4.5120   4.5530   4.6040   4.6400   4.6537   4.7354
     4.7726   4.7956   4.8968   4.9685   5.1109   5.1279   5.2262   5.4597
     5.5008   5.5865   5.7575   5.9332   6.0465   6.0881   6.1162   6.1283
     6.1476   6.1830   6.2493   6.2537   6.2676   6.2805   6.3230   6.3243
     6.3568   6.3689   6.3957   6.4100   6.4209   6.4388   6.4467   6.4492
     6.4611   6.4707   6.4894   6.5064   6.5230   6.5368   6.5567   6.5734
     6.5910   6.6042   6.6202   6.6310   6.6486   6.6565   6.6767   6.7120
     6.7201   6.7492   6.8177   6.8376   6.8405   6.8760   6.9491   6.9494
     6.9529   6.9931   7.1735   7.2366   7.2813   7.3422   7.4544   7.4848
     7.4879   7.5689   7.5765   7.6157   7.6193   7.6638   7.6930   7.7247
     7.7571   7.7672   7.7815   7.8107   7.8357   7.9170   7.9440   7.9572
     8.0296   8.0547   8.0906   8.1398   8.1480   8.2460   8.2481   8.3049
     8.3115   8.4135   8.4594   8.4687   8.4774   8.4981   8.5300   8.5704
     8.6107   8.6108   8.6160   8.6989   8.7051   8.7226   8.7296   8.7415
     8.7502   8.7669   8.7682   8.8004   8.8459   8.8662   8.8933   8.9072
     8.9210   9.0358   9.0478   9.1382   9.4234  10.0106  10.8569  10.9198
    11.0740  11.1022  11.3177  11.5310  11.6824  11.8031  11.9035  11.9956
    12.1082  12.2304  12.3689  12.5026  12.5297  13.5291  13.7720  14.0249
    14.0555  14.3819  14.6484  14.9282  15.0212  15.1685  15.5042  16.0555
    16.1738  16.4872  16.5388  16.5591

          k = 0.0000 0.2887 0.0000 ( 23495 PWs)   bands (ev):

     2.1016   2.2391   2.4634   2.7573   3.1107   3.4945   3.8685   4.1647
     4.3352   4.3677   4.3811   4.4249   4.5059   4.5213   4.5773   4.5795
     4.6078   4.6446   4.7502   4.8620   4.8968   4.9207   4.9410   5.0492
     5.0786   5.1047   5.1710   5.2165   5.3670   5.4145   5.4533   5.5233
     5.5845   5.6113   5.7533   5.8102   5.8282   5.8848   5.9140   5.9576
     5.9826   5.9833   6.0429   6.0663   6.0798   6.0849   6.1324   6.1414
     6.1846   6.2008   6.2111   6.2598   6.3730   6.3868   6.3949   6.4652
     6.4864   6.4986   6.5685   6.5978   6.6052   6.6151   6.6178   6.6442
     6.6634   6.6813   6.6859   6.6953   6.7451   6.7472   6.7773   6.7967
     6.7972   6.8194   6.8439   6.8755   6.8797   6.8978   6.9336   6.9692
     6.9784   7.0032   7.0616   7.0993   7.1326   7.1774   7.2081   7.2187
     7.2322   7.3025   7.3388   7.3716   7.4290   7.4427   7.4628   7.4715
     7.5295   7.5825   7.6181   7.6710   7.7114   7.7680   7.7847   7.8015
     7.8643   7.9133   7.9303   7.9435   7.9730   7.9745   8.0560   8.0759
     8.1165   8.1827   8.2206   8.2325   8.3149   8.3202   8.3333   8.4665
     8.4854   8.5020   8.5296   8.5539   8.5733   8.5995   8.6123   8.6517
     8.6852   8.7063   8.7171   8.7180   8.7925   8.7961   8.8515   8.9313
     8.9447   9.0645   9.1434   9.5293  10.1893  10.8468  11.7529  11.9690
    11.9871  12.0070  12.0531  12.1279  12.1384  12.2261  12.3522  12.5156
    12.7043  12.9331  13.1383  13.3767  13.5762  13.6133  14.0067  14.1675
    14.3714  14.7042  14.9612  15.1459  15.4210  15.5015  15.7564  16.0499
    16.1872  16.6742  16.7706  16.8228

          k = 0.0000 0.4330 0.0000 ( 23423 PWs)   bands (ev):

     2.7786   2.9099   3.1059   3.3760   3.6921   4.0457   4.3997   4.6899
     4.7106   4.7758   4.8409   4.8537   4.8678   4.8807   4.9266   4.9683
     4.9980   5.0691   5.0710   5.1117   5.1687   5.2273   5.3368   5.3472
     5.3694   5.4076   5.4250   5.4520   5.4914   5.5535   5.5591   5.6028
     5.6480   5.6772   5.6876   5.7363   5.7514   5.7836   5.7896   5.7934
     5.8062   5.8077   5.8325   5.8410   5.8994   5.9067   5.9092   5.9374
     5.9913   6.0428   6.0635   6.0862   6.1225   6.1958   6.2577   6.2779
     6.3138   6.3317   6.4239   6.4599   6.4902   6.5396   6.5480   6.6062
     6.6086   6.6253   6.6765   6.6899   6.7043   6.7313   6.7319   6.7461
     6.7629   6.7931   6.8249   6.8734   6.9101   6.9564   7.0225   7.0259
     7.1230   7.1453   7.1781   7.1915   7.1965   7.2731   7.2852   7.3160
     7.3598   7.3846   7.3995   7.4001   7.4025   7.4274   7.4434   7.4596
     7.5013   7.5041   7.5251   7.5520   7.5971   7.6190   7.6641   7.6977
     7.7657   7.8248   7.8350   7.8378   7.9097   7.9187   7.9712   7.9834
     7.9996   8.0568   8.0796   8.1204   8.1853   8.2746   8.3372   8.4062
     8.4196   8.4445   8.4893   8.4958   8.5288   8.5670   8.6021   8.6152
     8.6571   8.6576   8.6700   8.7323   8.7757   8.7837   8.8035   8.8392
     8.9517   9.1939   9.6798  10.1863  10.9264  11.6410  12.5099  12.5423
    12.6012  12.6392  12.6500  12.8303  12.9041  13.1089  13.2050  13.4016
    13.4690  13.5469  13.8348  13.9960  14.2535  14.3455  14.5782  14.5987
    14.8475  15.2376  15.3291  15.5961  15.6090  15.6908  15.9540  16.0655
    16.1804  16.5026  16.7224  16.9406

          k = 0.0000 0.5774 0.0000 ( 23470 PWs)   bands (ev):

     3.5937   3.7105   3.8384   4.0447   4.2591   4.5131   4.7740   4.8076
     5.0181   5.0377   5.0605   5.1040   5.1098   5.1132   5.1765   5.2270
     5.2353   5.2505   5.2832   5.3022   5.3537   5.3623   5.3689   5.3863
     5.4160   5.4171   5.4398   5.4952   5.5009   5.5095   5.5428   5.5471
     5.5741   5.5794   5.6403   5.6495   5.6711   5.6794   5.6993   5.7115
     5.7668   5.7889   5.7891   5.7954   5.8067   5.8589   5.8717   5.9589
     5.9604   5.9608   6.0391   6.0652   6.1272   6.1878   6.2225   6.2536
     6.3258   6.3349   6.3741   6.3910   6.3979   6.4033   6.4204   6.4417
     6.4612   6.4754   6.5192   6.5441   6.5782   6.5828   6.5830   6.5873
     6.6609   6.6660   6.7979   6.9684   6.9959   7.0479   7.0505   7.0528
     7.0553   7.0556   7.1793   7.2074   7.2418   7.3123   7.3639   7.4456
     7.4688   7.5161   7.5218   7.5378   7.5459   7.5472   7.5540   7.5661
     7.5871   7.6067   7.6422   7.6937   7.8109   7.8197   7.8302   7.8304
     7.8439   7.9524   8.0310   8.0716   8.1865   8.2104   8.2532   8.2820
     8.3686   8.4056   8.4197   8.4378   8.4535   8.4577   8.4928   8.4992
     8.5077   8.5176   8.5405   8.5580   8.5962   8.5970   8.6239   8.6348
     8.6443   8.6780   8.6791   8.6817   8.6971   8.7047   8.8547   8.8666
     9.2579   9.7404  10.3283  10.9251  11.7030  12.4311  12.8828  13.1488
    13.2118  13.2618  13.2769  13.2935  13.3330  13.4070  13.5350  13.6176
    13.7235  13.8297  13.8696  14.0851  14.7645  14.9011  14.9359  15.0471
    15.3018  15.3241  15.3992  15.5583  15.8609  15.8774  16.1478  16.3226
    16.4070  16.5597  16.8599  16.9159

          k = 0.0000 0.7217 0.0000 ( 23446 PWs)   bands (ev):

     4.3288   4.4616   4.4836   4.5525   4.6222   4.7220   4.7281   4.8514
     4.8815   4.9585   4.9605   4.9743   5.0387   5.0700   5.1342   5.1838
     5.1901   5.2309   5.2342   5.2557   5.2751   5.2823   5.3556   5.3572
     5.4207   5.4500   5.4807   5.5153   5.5155   5.5658   5.5859   5.5976
     5.6089   5.6270   5.6364   5.6660   5.6912   5.7154   5.7277   5.7382
     5.7667   5.7724   5.7822   5.7987   5.8138   5.8580   5.8796   5.9201
     5.9998   6.0349   6.1096   6.1201   6.1528   6.1965   6.2098   6.2464
     6.2566   6.3130   6.3241   6.3439   6.3504   6.3548   6.3714   6.3960
     6.4102   6.4280   6.4971   6.5905   6.6133   6.6178   6.6578   6.7098
     6.7119   6.7585   6.9019   6.9699   6.9723   7.0099   7.0139   7.1294
     7.1718   7.1744   7.1813   7.2319   7.2501   7.2876   7.3715   7.3793
     7.3973   7.4314   7.4699   7.5170   7.5365   7.5726   7.6195   7.6399
     7.6533   7.6585   7.7211   7.7914   7.8293   7.8500   7.8818   7.8845
     7.9802   8.0601   8.1096   8.1307   8.2429   8.3113   8.3436   8.5096
     8.5216   8.5857   8.6763   8.6792   8.6964   8.6973   8.7104   8.7204
     8.7291   8.7449   8.7632   8.7694   8.8714   8.8735   8.8977   8.9030
     8.9115   8.9570   9.3193   9.3459   9.3642   9.4338   9.5564   9.8017
    10.1972  10.7076  11.3233  11.7175  11.8008  11.9533  12.0045  12.2571
    12.5836  12.7116  12.9873  13.4052  13.4069  13.7574  13.9933  14.0654
    14.1536  14.1750  14.3196  14.4196  14.6788  14.7717  14.9725  15.1528
    15.5127  15.6471  15.9407  16.1136  16.1685  16.4558  16.4644  16.6055
    16.6980  16.8159  17.0488  17.1189

          k = 0.0000-0.8660 0.0000 ( 23420 PWs)   bands (ev):

     4.6132   4.6133   4.7528   4.7528   4.8195   4.8195   4.8251   4.8251
     4.8934   4.8935   4.9265   4.9266   5.0227   5.0227   5.0479   5.0479
     5.1143   5.1143   5.1823   5.1823   5.2443   5.2444   5.2472   5.2473
     5.4591   5.4591   5.4865   5.4866   5.5185   5.5185   5.5387   5.5387
     5.6150   5.6150   5.6714   5.6714   5.7348   5.7349   5.7526   5.7527
     5.8463   5.8464   5.8886   5.8887   5.9225   5.9226   5.9934   5.9934
     6.0025   6.0025   6.0630   6.0630   6.1051   6.1051   6.1255   6.1255
     6.2221   6.2221   6.2906   6.2906   6.3416   6.3416   6.4335   6.4335
     6.5471   6.5471   6.5813   6.5813   6.6058   6.6058   6.7467   6.7468
     6.9805   6.9805   6.9826   6.9827   7.0264   7.0264   7.0305   7.0306
     7.0758   7.0758   7.2426   7.2426   7.2947   7.2947   7.3354   7.3355
     7.3780   7.3780   7.4435   7.4435   7.5371   7.5371   7.6524   7.6524
     7.6777   7.6778   7.7955   7.7956   7.8485   7.8485   7.8858   7.8859
     7.9703   7.9703   8.0393   8.0393   8.1927   8.1927   8.4271   8.4271
     8.5920   8.5921   8.7641   8.7642   8.8154   8.8155   8.8369   8.8370
     8.8682   8.8683   8.9052   8.9053   9.0081   9.0082   9.0420   9.0421
     9.0706   9.0707  10.4182  10.4182  10.4561  10.4561  10.5612  10.5612
    10.7102  10.7102  10.9446  10.9446  11.2768  11.2768  11.7018  11.7018
    12.2056  12.2056  12.7918  12.7918  13.3774  13.3775  14.0381  14.0382
    14.5836  14.5836  15.0359  15.0360  15.7497  15.7497  15.7672  15.7672
    15.8720  15.8720  15.9531  15.9532  16.1862  16.1862  16.2560  16.2561
    16.4473  16.4474  16.6000  16.6000

          k = 0.1250 0.0000 0.0000 ( 23563 PWs)   bands (ev):

     1.6247   1.7635   1.9992   2.3004   2.6652   3.0552   3.4323   3.7331
     3.9240   3.9356   3.9900   4.0596   4.0607   4.1702   4.1726   4.2190
     4.2500   4.3216   4.4160   4.4413   4.5212   4.5724   4.5983   4.6163
     4.6690   4.7312   4.8512   4.9338   5.0116   5.0372   5.2068   5.4563
     5.4931   5.5935   5.7623   5.9793   6.0708   6.1418   6.1537   6.1707
     6.2072   6.2124   6.2604   6.2857   6.2996   6.3324   6.3346   6.3397
     6.3580   6.3696   6.4078   6.4120   6.4152   6.4219   6.4379   6.4468
     6.4538   6.4677   6.4764   6.5034   6.5290   6.5475   6.5507   6.5624
     6.5855   6.5928   6.6152   6.6245   6.6295   6.6618   6.6743   6.7245
     6.7435   6.7681   6.8286   6.8486   6.8653   6.9277   6.9302   6.9330
     7.0202   7.0599   7.1206   7.2890   7.3728   7.3813   7.4433   7.5204
     7.5374   7.5868   7.5942   7.5963   7.6435   7.6670   7.7396   7.7484
     7.8077   7.8141   7.8157   7.8717   7.8828   7.9153   7.9406   7.9464
     8.0474   8.0785   8.1039   8.1826   8.2414   8.2496   8.3052   8.3519
     8.3989   8.4612   8.4763   8.4775   8.5573   8.5857   8.5929   8.6418
     8.6587   8.6743   8.6885   8.6965   8.7187   8.7331   8.7487   8.7628
     8.7756   8.7776   8.8035   8.8262   8.8461   8.8477   8.8680   8.9350
     8.9663   8.9942   9.1194   9.1218   9.2983   9.3463   9.6684   9.9318
     9.9450  10.1324  10.2083  10.3309  10.6908  10.8274  10.9981  11.2730
    11.9593  12.6644  13.2803  13.4575  13.5319  13.6608  13.9202  14.0160
    14.2086  14.5202  14.8262  14.9122  15.1407  15.2139  15.5945  15.9144
    16.3792  16.4631  16.5329  16.9291

          k = 0.1250 0.1443 0.0000 ( 23537 PWs)   bands (ev):

     1.7758   1.9129   2.1466   2.4450   2.8076   3.1966   3.5737   3.8731
     4.0578   4.0585   4.1157   4.1857   4.1898   4.3016   4.3040   4.3360
     4.3457   4.4269   4.5368   4.5570   4.6370   4.6719   4.6965   4.7403
     4.7879   4.8325   4.9409   5.0081   5.1351   5.1610   5.2620   5.4860
     5.5239   5.5418   5.7459   5.9238   5.9957   6.0295   6.0897   6.0919
     6.1196   6.1741   6.2039   6.2158   6.2403   6.2643   6.2800   6.3037
     6.3100   6.3421   6.3803   6.4156   6.4469   6.4599   6.4661   6.4836
     6.4928   6.4986   6.5073   6.5149   6.5310   6.5698   6.5818   6.6023
     6.6085   6.6245   6.6460   6.6581   6.6771   6.6848   6.6950   6.7161
     6.7365   6.7561   6.7747   6.8174   6.8280   6.8807   6.9147   6.9326
     7.0110   7.0143   7.1258   7.1665   7.1999   7.2602   7.3961   7.4267
     7.4503   7.5041   7.5310   7.5511   7.5602   7.5637   7.6047   7.6268
     7.7034   7.7233   7.7452   7.8029   7.8365   7.8580   7.8618   7.9247
     7.9445   7.9794   8.0413   8.0728   8.1462   8.1570   8.2042   8.2064
     8.3090   8.3255   8.3472   8.3512   8.4095   8.4546   8.4845   8.5188
     8.5353   8.5465   8.5590   8.5795   8.6271   8.6282   8.6577   8.7040
     8.7232   8.7417   8.7523   8.7691   8.7832   8.7931   8.8431   8.8870
     9.0066   9.0319   9.1299   9.1417   9.6707   9.9811  10.1401  10.3070
    10.3359  10.4413  10.5672  10.7870  11.1651  11.1685  11.4101  11.6949
    12.3279  12.9944  13.4765  13.5550  13.6456  13.7321  14.0140  14.0477
    14.3168  14.6284  14.9289  14.9787  15.2493  15.3351  15.7259  15.9694
    16.4266  16.5485  16.6359  16.9816

          k = 0.1250 0.2887 0.0000 ( 23467 PWs)   bands (ev):

     2.2097   2.3421   2.5655   2.8533   3.2031   3.5821   3.9532   4.2441
     4.3795   4.4084   4.4484   4.5162   4.5325   4.5546   4.6383   4.6502
     4.6539   4.6562   4.7732   4.8596   4.9266   4.9498   4.9796   5.0672
     5.0787   5.1413   5.1785   5.2455   5.3607   5.4140   5.4292   5.4785
     5.5905   5.6362   5.7355   5.7573   5.8135   5.8602   5.8624   5.9731
     5.9827   6.0196   6.0275   6.0399   6.0595   6.0775   6.0843   6.1291
     6.1521   6.1974   6.2164   6.2282   6.3175   6.3239   6.4497   6.4616
     6.4832   6.5258   6.5776   6.5928   6.6092   6.6209   6.6340   6.6438
     6.6461   6.6709   6.7230   6.7372   6.7740   6.7812   6.7889   6.7982
     6.8315   6.8497   6.8653   6.8876   6.8889   6.9009   6.9201   6.9754
     6.9928   7.0206   7.0257   7.0400   7.0763   7.0875   7.1421   7.1893
     7.1975   7.2231   7.2698   7.3122   7.3580   7.3817   7.4085   7.4793
     7.5174   7.5371   7.5733   7.6106   7.6776   7.6956   7.7376   7.7765
     7.7912   7.7954   7.8534   7.8635   7.9327   7.9617   7.9750   8.0550
     8.1009   8.1200   8.1391   8.2087   8.2263   8.2318   8.2460   8.2815
     8.3369   8.4036   8.4249   8.4963   8.5554   8.6290   8.6370   8.6958
     8.7451   8.7483   8.7784   8.7854   8.8182   8.8231   8.8770   8.9846
     9.0156   9.1590   9.2033   9.6732  10.3278  10.7524  10.8163  10.9364
    11.0362  11.0944  11.3282  11.6531  11.9093  12.0766  12.3661  12.5916
    13.1889  13.5939  13.7119  13.8276  13.9337  14.1733  14.2034  14.4387
    14.6787  14.9690  15.2079  15.2603  15.5823  15.6380  15.9984  16.1140
    16.4539  16.8186  16.9582  16.9786

          k = 0.1250 0.4330 0.0000 ( 23435 PWs)   bands (ev):

     2.8701   2.9891   3.1843   3.4392   3.7445   4.0789   4.4103   4.6635
     4.7403   4.7940   4.8039   4.8565   4.8594   4.8857   4.9371   4.9717
     4.9908   5.0856   5.0864   5.0932   5.1225   5.1776   5.2402   5.2916
     5.3458   5.3568   5.4025   5.4313   5.4617   5.5251   5.5665   5.6028
     5.6552   5.6753   5.6937   5.7270   5.7517   5.7743   5.7956   5.8119
     5.8368   5.8401   5.8593   5.8822   5.9049   5.9387   5.9475   5.9571
     6.0135   6.0352   6.0576   6.1263   6.1652   6.2409   6.2774   6.3184
     6.3768   6.4167   6.4526   6.4746   6.4993   6.5175   6.5506   6.5810
     6.5841   6.6354   6.6428   6.6478   6.6699   6.7047   6.7267   6.7395
     6.7420   6.8312   6.8757   6.8955   6.9497   6.9602   6.9818   7.0478
     7.1271   7.1360   7.1790   7.2023   7.2035   7.2231   7.2596   7.2979
     7.3130   7.3215   7.3384   7.3641   7.4102   7.4293   7.4526   7.4826
     7.4929   7.5268   7.5333   7.5674   7.5848   7.6208   7.6312   7.6663
     7.6855   7.7401   7.8038   7.8039   7.8486   7.9152   7.9206   7.9294
     7.9533   8.0417   8.0806   8.1229   8.1472   8.1977   8.2112   8.2853
     8.3743   8.4235   8.4986   8.5082   8.5908   8.5991   8.6758   8.7129
     8.7233   8.7401   8.7450   8.7712   8.8081   8.8385   8.8964   8.9377
     9.0921   9.2126   9.7306  10.2866  11.0143  11.3826  11.4579  11.6343
    11.7606  11.8636  12.1740  12.5630  12.6823  13.0091  13.4738  13.5683
    13.7673  13.9145  14.2023  14.2975  14.5132  14.6367  14.6745  14.8412
    15.1554  15.3609  15.5710  15.6427  15.6698  15.8724  16.1496  16.1595
    16.3606  16.6115  16.8038  17.2711

          k = 0.1250 0.5774 0.0000 ( 23447 PWs)   bands (ev):

     3.6402   3.7250   3.8653   4.0435   4.2430   4.4608   4.6792   4.8070
     4.8593   4.8703   4.9445   4.9747   4.9764   5.0118   5.0527   5.0607
     5.1073   5.1228   5.1773   5.1994   5.2273   5.2302   5.2715   5.3267
     5.3877   5.4044   5.4172   5.4525   5.4562   5.4862   5.5335   5.5382
     5.5897   5.6039   5.6560   5.6720   5.7007   5.7329   5.7431   5.7536
     5.7661   5.7814   5.7919   5.8698   5.8836   5.9116   5.9294   5.9750
     6.0120   6.0540   6.0664   6.1028   6.1496   6.1793   6.2102   6.2378
     6.3256   6.3730   6.3935   6.4547   6.5024   6.5402   6.5417   6.5662
     6.5878   6.5998   6.6065   6.6158   6.6446   6.6738   6.7146   6.7314
     6.7527   6.7608   6.8664   6.9053   6.9500   6.9620   6.9646   7.0955
     7.1709   7.2131   7.2530   7.2595   7.3050   7.3230   7.3652   7.4174
     7.4420   7.4662   7.4851   7.5373   7.5456   7.5547   7.6064   7.6291
     7.6649   7.6944   7.7219   7.7384   7.7899   7.7980   7.8969   7.9052
     7.9165   7.9864   8.0630   8.1248   8.1860   8.1987   8.2262   8.2271
     8.3348   8.3588   8.3880   8.4149   8.4304   8.4577   8.4842   8.4926
     8.5090   8.5454   8.5642   8.5943   8.6073   8.6252   8.6358   8.6616
     8.7022   8.7239   8.7358   8.7409   8.7866   8.8231   8.8333   8.9951
     9.2456   9.7532  10.3635  10.9965  11.7619  12.0818  12.1893  12.4029
    12.5128  12.6840  12.9998  13.2745  13.3728  13.3996  13.4468  13.6681
    13.9266  13.9793  14.1807  14.2654  14.4677  14.6672  14.8616  15.0430
    15.2561  15.4274  15.4528  15.5833  15.8986  16.0375  16.2262  16.3008
    16.3915  16.7091  16.9022  16.9420

          k = 0.1250 0.7217 0.0000 ( 23455 PWs)   bands (ev):

     4.2614   4.2967   4.4111   4.5151   4.6065   4.6563   4.6649   4.7225
     4.7533   4.8040   4.8182   4.8599   4.9035   4.9386   4.9840   5.0253
     5.0645   5.0905   5.1013   5.1104   5.1917   5.2046   5.2455   5.2550
     5.2613   5.2837   5.3012   5.3363   5.3999   5.4301   5.4412   5.4576
     5.4918   5.5704   5.5799   5.6237   5.6635   5.7022   5.7163   5.7276
     5.7835   5.8213   5.8280   5.8755   5.8985   5.9348   5.9567   5.9728
     5.9932   6.0494   6.1152   6.1410   6.2105   6.2228   6.2658   6.3043
     6.3323   6.3673   6.3716   6.4326   6.4600   6.5236   6.5605   6.6105
     6.6116   6.6301   6.7091   6.7644   6.7850   6.7857   6.8264   6.8449
     6.9011   6.9262   6.9501   6.9999   7.0235   7.0416   7.0646   7.1094
     7.1685   7.1954   7.2501   7.2567   7.3884   7.3942   7.4750   7.4848
     7.4955   7.5539   7.5651   7.6428   7.6677   7.6759   7.7206   7.7581
     7.7854   7.8285   7.8500   7.8701   7.9142   7.9529   8.0336   8.0479
     8.0751   8.1790   8.2277   8.2365   8.3342   8.3372   8.3983   8.5302
     8.5336   8.5781   8.6267   8.6474   8.6528   8.6630   8.6962   8.7347
     8.7517   8.7716   8.7835   8.7999   8.8531   8.8847   8.8975   8.9044
     8.9182   9.0076   9.2844   9.2982   9.3463   9.4073   9.5233   9.7615
    10.1671  10.7005  11.3368  11.7962  11.8747  12.0009  12.0704  12.3061
    12.6237  12.7528  13.0014  13.0930  13.2206  13.3915  13.4715  13.5207
    13.7171  13.9362  14.1126  14.2045  14.4764  14.5827  14.8504  15.0698
    15.3022  15.5653  15.7892  15.9282  15.9759  16.3018  16.3082  16.5083
    16.5329  16.6388  16.7985  16.9789

          k = 0.1250-0.8660 0.0000 ( 23492 PWs)   bands (ev):

     4.4557   4.5065   4.5534   4.5947   4.6283   4.6666   4.6930   4.7117
     4.7551   4.7772   4.8102   4.8427   4.9335   4.9350   4.9925   4.9929
     5.0604   5.0798   5.1042   5.1078   5.1358   5.1389   5.1523   5.1626
     5.2182   5.2436   5.2886   5.2890   5.3266   5.3319   5.3570   5.3711
     5.4705   5.4797   5.5674   5.5841   5.6333   5.6418   5.7276   5.7297
     5.8071   5.8292   5.8910   5.9165   5.9254   5.9393   5.9937   6.0007
     6.0510   6.0519   6.0893   6.0974   6.1430   6.1735   6.2459   6.2697
     6.4047   6.4064   6.4373   6.4640   6.5766   6.5773   6.6087   6.6251
     6.6964   6.7111   6.7627   6.7674   6.8447   6.8459   6.8528   6.8690
     6.8943   6.9100   7.0040   7.0045   7.0621   7.0669   7.1286   7.1697
     7.1967   7.2475   7.3328   7.3554   7.4207   7.4474   7.4825   7.4916
     7.5204   7.5559   7.5977   7.6579   7.6990   7.7300   7.7816   7.8136
     7.8465   7.8589   7.9116   7.9478   7.9955   8.0048   8.0298   8.0503
     8.0788   8.1116   8.1409   8.1845   8.2467   8.2522   8.4342   8.4402
     8.5798   8.5999   8.7363   8.7519   8.7818   8.7836   8.8018   8.8240
     8.8606   8.8781   8.9123   8.9193   9.0116   9.0167   9.0383   9.0442
     9.0572   9.0825  10.4103  10.4248  10.4538  10.4634  10.5628  10.5640
    10.6982  10.7154  10.9262  10.9363  11.2490  11.2638  11.6750  11.6868
    12.1914  12.1939  12.7937  12.7956  13.3695  13.4195  14.0045  14.0275
    14.4488  14.4648  14.6596  14.6674  14.7699  14.8408  14.9652  15.0198
    15.2736  15.3035  15.4146  15.4579  15.7974  15.8284  15.9183  15.9799
    16.2449  16.2544  16.5901  16.6206

          k = 0.2500 0.0000 0.0000 ( 23536 PWs)   bands (ev):

     1.9590   2.0952   2.3249   2.6199   2.9784   3.3644   3.7401   3.8878
     4.0089   4.0369   4.1646   4.2147   4.2647   4.3319   4.3473   4.3585
     4.4071   4.4559   4.4582   4.4751   4.5083   4.6035   4.7028   4.7367
     4.7816   4.8464   4.9586   5.0421   5.1064   5.1322   5.3113   5.5142
     5.5568   5.5671   5.8016   5.8593   5.9266   6.0129   6.0180   6.0552
     6.1088   6.1308   6.1546   6.1642   6.1956   6.2282   6.2663   6.2902
     6.2970   6.3438   6.3794   6.4074   6.4469   6.4667   6.5015   6.5046
     6.5284   6.5344   6.5646   6.5786   6.5942   6.6133   6.6179   6.6313
     6.6470   6.6674   6.6962   6.7025   6.7156   6.7324   6.7526   6.7591
     6.7947   6.8037   6.8236   6.8350   6.8662   6.8783   6.9117   6.9217
     6.9792   7.0302   7.1010   7.1059   7.1308   7.2440   7.2617   7.3218
     7.3578   7.3991   7.4055   7.4539   7.4797   7.5097   7.5654   7.5791
     7.6455   7.6494   7.6988   7.7334   7.7372   7.8340   7.8415   7.8532
     7.9394   7.9842   7.9849   8.0373   8.0564   8.1246   8.2203   8.2217
     8.2310   8.2904   8.3060   8.3295   8.3739   8.3919   8.4087   8.4184
     8.4561   8.4721   8.4972   8.5273   8.5314   8.5462   8.5685   8.6074
     8.6095   8.6140   8.6335   8.6432   8.6754   8.7075   8.7798   8.7898
     8.7927   8.8109   8.8377   8.8755   8.9152   8.9209   8.9321   8.9518
     9.1120   9.3805   9.7007   9.9713  10.3996  10.6608  11.1448  11.5136
    11.8398  11.8994  12.6707  13.3993  14.1107  14.1560  15.0682  15.1160
    15.3380  15.3905  15.5062  15.6131  15.9155  16.3533  16.6639  16.7709
    16.8142  17.1091  17.3999  17.7942

          k = 0.2500 0.1443 0.0000 ( 23484 PWs)   bands (ev):

     2.1060   2.2388   2.4663   2.7567   3.1119   3.4954   3.8714   4.0183
     4.1417   4.1677   4.2920   4.3395   4.3794   4.4505   4.4632   4.4873
     4.5177   4.5770   4.5794   4.5999   4.6376   4.7159   4.7922   4.8144
     4.8754   4.9427   5.0387   5.1267   5.2245   5.2364   5.3607   5.4795
     5.5309   5.5998   5.7584   5.8175   5.8857   5.9169   5.9456   5.9798
     6.0457   6.0585   6.0818   6.0895   6.1458   6.1674   6.2079   6.2366
     6.2432   6.3340   6.3424   6.3768   6.3935   6.3997   6.4345   6.4496
     6.5196   6.5276   6.5636   6.5772   6.5919   6.6034   6.6224   6.6247
     6.6452   6.6696   6.6783   6.6984   6.7323   6.7455   6.7579   6.7878
     6.8142   6.8235   6.8301   6.8420   6.8755   6.8867   6.8942   6.9381
     6.9584   7.0179   7.0592   7.1022   7.1189   7.1852   7.2146   7.2164
     7.2719   7.2933   7.3078   7.3499   7.4004   7.4378   7.4613   7.4747
     7.5292   7.5820   7.6223   7.6762   7.7041   7.7304   7.7522   7.8118
     7.8547   7.8696   7.8989   7.9168   7.9208   7.9989   8.0289   8.0338
     8.1416   8.1600   8.1829   8.2120   8.2166   8.2297   8.2505   8.3180
     8.3274   8.3890   8.4435   8.4705   8.5281   8.5472   8.5739   8.5829
     8.6235   8.6680   8.7065   8.7205   8.7353   8.7614   8.7982   8.8610
     8.9079   8.9729   9.1140   9.1356   9.2305   9.3202   9.3712   9.4538
     9.5877   9.6678  10.1010  10.1915  10.6973  10.9126  11.3844  11.7543
    12.1034  12.1620  12.8596  13.5653  14.1564  14.3210  15.1480  15.2897
    15.3871  15.4969  15.5658  15.7194  16.0045  16.4396  16.7554  16.8676
    16.9058  17.1947  17.4569  17.8259

          k = 0.2500 0.2887 0.0000 ( 23496 PWs)   bands (ev):

     2.5199   2.6442   2.8587   3.1317   3.4665   3.8301   4.1902   4.3600
     4.4687   4.4883   4.6033   4.6148   4.6532   4.6533   4.7166   4.7788
     4.7916   4.8251   4.8739   4.8771   4.9236   4.9816   5.0579   5.0731
     5.1211   5.1842   5.2608   5.2990   5.3285   5.3697   5.4425   5.5476
     5.6094   5.6525   5.6899   5.7136   5.7653   5.7814   5.8690   5.9141
     5.9153   5.9290   5.9552   5.9559   6.0048   6.0529   6.0871   6.0950
     6.1132   6.1257   6.1814   6.2005   6.2478   6.2623   6.3621   6.3644
     6.4179   6.4318   6.4698   6.4894   6.5331   6.5569   6.5643   6.6021
     6.6108   6.6652   6.6679   6.6814   6.6975   6.7232   6.7731   6.7748
     6.8234   6.8262   6.8571   6.8761   6.8926   6.9466   6.9597   6.9655
     6.9790   7.0117   7.0250   7.0531   7.1026   7.1177   7.1503   7.1650
     7.1771   7.2211   7.2532   7.3021   7.3152   7.3432   7.3550   7.3584
     7.4453   7.4595   7.4828   7.5258   7.5283   7.5917   7.6185   7.6793
     7.7083   7.7425   7.7470   7.8180   7.8190   7.8338   7.8920   7.9024
     7.9373   7.9693   7.9981   8.0765   8.0975   8.1550   8.1629   8.2528
     8.2571   8.3906   8.3990   8.4684   8.5928   8.5951   8.6629   8.6977
     8.7582   8.7588   8.7820   8.7916   8.8253   8.8664   8.9560   8.9896
     9.0055   9.1154   9.4620   9.8045   9.8505   9.9119   9.9993  10.0102
    10.1813  10.4616  10.6730  10.8697  11.3901  11.4267  12.0025  12.3082
    12.6491  12.9608  13.3658  14.0055  14.3655  14.7242  15.4075  15.5307
    15.6664  15.8319  15.8448  16.0036  16.2430  16.6389  17.0173  17.0616
    17.2011  17.2787  17.5668  17.6522

          k = 0.2500 0.4330 0.0000 ( 23431 PWs)   bands (ev):

     3.1212   3.2225   3.4051   3.6286   3.8990   4.1859   4.4628   4.6597
     4.6885   4.7821   4.7827   4.8084   4.8181   4.8712   4.8772   4.9378
     4.9993   5.0061   5.0104   5.0956   5.1008   5.1400   5.1423   5.2215
     5.2448   5.2481   5.3039   5.4102   5.4651   5.4992   5.5232   5.5570
     5.5700   5.6307   5.6720   5.6912   5.7407   5.7538   5.7992   5.8267
     5.8453   5.8809   5.9064   5.9322   5.9552   5.9789   6.0049   6.0340
     6.0687   6.0967   6.1023   6.1406   6.1593   6.1897   6.2572   6.2903
     6.3366   6.3607   6.4097   6.4385   6.5186   6.5316   6.5672   6.5731
     6.6143   6.6158   6.6635   6.6725   6.6979   6.7197   6.7480   6.7546
     6.8302   6.8832   6.8997   6.9462   6.9801   6.9832   6.9947   7.0245
     7.0307   7.0898   7.1450   7.1797   7.1838   7.2251   7.2677   7.2765
     7.3100   7.3470   7.3581   7.4007   7.4113   7.4319   7.4833   7.5067
     7.5392   7.5602   7.5733   7.6002   7.6322   7.6412   7.6623   7.6898
     7.7016   7.7092   7.7898   7.8241   7.8343   7.8743   7.8830   7.9502
     7.9591   8.0268   8.0485   8.0588   8.1076   8.1657   8.2418   8.2542
     8.3538   8.4189   8.4387   8.5779   8.5981   8.6515   8.7443   8.8040
     8.8162   8.8253   8.8364   8.8518   8.8552   8.8775   8.9817   9.0223
     9.1661   9.3261   9.9049  10.4145  10.4535  10.5202  10.5565  10.7124
    10.9501  11.2514  11.2822  11.7049  12.0239  12.2045  12.7799  12.9081
    13.3556  14.0069  14.0251  14.5389  14.8608  15.0957  15.6658  15.8216
    15.8884  15.8963  15.9851  16.1692  16.2889  16.4112  16.4736  16.7047
    16.9133  17.1018  17.4170  17.4453

          k = 0.2500 0.5774 0.0000 ( 23466 PWs)   bands (ev):

     3.7294   3.7861   3.9449   4.0818   4.2439   4.3918   4.5326   4.5878
     4.6498   4.6799   4.7217   4.7455   4.7682   4.8229   4.8674   4.8842
     4.9021   4.9907   5.0011   5.0389   5.0445   5.1210   5.1351   5.1718
     5.1790   5.2148   5.2160   5.2526   5.2905   5.3348   5.3470   5.3781
     5.4468   5.4835   5.5144   5.6080   5.6432   5.6580   5.7292   5.7471
     5.8197   5.8590   5.8837   5.8912   5.9519   5.9653   5.9938   6.0803
     6.1351   6.1561   6.2213   6.2239   6.2875   6.3984   6.4179   6.4571
     6.4618   6.5086   6.5272   6.5775   6.5924   6.6157   6.6171   6.6332
     6.6515   6.7081   6.7527   6.7970   6.8023   6.8437   6.8524   6.9175
     6.9507   6.9735   6.9969   7.0204   7.0789   7.1152   7.1789   7.1882
     7.2749   7.2922   7.3334   7.3591   7.3730   7.4894   7.4952   7.5117
     7.5218   7.5443   7.5617   7.6704   7.6774   7.7585   7.7776   7.8097
     7.8579   7.8646   7.9215   7.9309   7.9340   7.9651   8.0069   8.0535
     8.0589   8.0641   8.0957   8.1314   8.1342   8.1424   8.1921   8.2135
     8.2649   8.3212   8.3370   8.3481   8.3967   8.4248   8.4484   8.4910
     8.5080   8.5364   8.5790   8.5858   8.6626   8.7088   8.7393   8.7542
     8.7546   8.8209   8.8234   8.8485   8.8513   8.9471   8.9834   9.1373
     9.2327   9.8164  10.4845  11.0733  11.1377  11.1710  11.2847  11.4857
    11.7651  11.9356  12.1307  12.5684  12.7059  13.0582  13.5127  13.5535
    13.7971  13.8315  14.0478  14.2808  14.4451  14.7458  15.0253  15.0801
    15.1400  15.4568  15.6258  15.7421  15.9318  16.2227  16.4086  16.5611
    16.6760  17.0285  17.1497  17.4685

          k = 0.2500 0.7217 0.0000 ( 23545 PWs)   bands (ev):

     4.0867   4.1185   4.2901   4.3712   4.3786   4.4905   4.4972   4.5147
     4.5501   4.5792   4.5896   4.6463   4.6629   4.7436   4.7460   4.7665
     4.8215   4.8671   4.8720   4.8750   4.9192   4.9304   4.9310   5.0123
     5.0413   5.0786   5.0986   5.1233   5.1411   5.2229   5.2414   5.2576
     5.2827   5.3465   5.4038   5.4906   5.5130   5.5705   5.6507   5.6831
     5.7928   5.8241   5.8333   5.9235   5.9748   6.0027   6.0044   6.0998
     6.1202   6.2507   6.2851   6.3254   6.3614   6.3730   6.3988   6.4459
     6.5396   6.5449   6.5704   6.5928   6.6053   6.6593   6.7029   6.7205
     6.7646   6.7994   6.8197   6.8575   6.9110   6.9665   7.0461   7.0756
     7.1163   7.1235   7.2119   7.2169   7.2594   7.3134   7.3338   7.3534
     7.4299   7.4533   7.5770   7.6145   7.6537   7.6553   7.7011   7.8209
     7.8424   7.9002   7.9186   7.9193   7.9417   7.9787   8.0018   8.1192
     8.1257   8.1807   8.1918   8.1959   8.2218   8.2299   8.2769   8.3049
     8.3120   8.3241   8.3974   8.4150   8.4733   8.5360   8.5473   8.5542
     8.5768   8.5844   8.5989   8.6131   8.6573   8.6822   8.7098   8.7157
     8.7606   8.7821   8.8011   8.8252   8.8664   8.9096   8.9292   8.9313
     8.9395   9.0969   9.1556   9.2056   9.3097   9.3597   9.4524   9.6697
    10.1060  10.7006  11.3942  11.9109  11.9807  12.0061  12.0665  12.1177
    12.1502  12.2627  12.4151  12.5667  12.8070  12.8774  12.9649  13.0805
    13.2938  13.4208  13.6272  13.9406  14.0330  14.2810  14.3046  14.6723
    14.8498  15.2946  15.3075  15.3906  15.5509  15.7482  15.7642  16.0011
    16.0317  16.2176  16.4273  16.5497

          k = 0.2500-0.8660 0.0000 ( 23532 PWs)   bands (ev):

     4.1880   4.2643   4.2877   4.3183   4.3949   4.4434   4.4708   4.4914
     4.5467   4.5587   4.6039   4.6300   4.7228   4.7231   4.7407   4.7501
     4.7850   4.7931   4.8000   4.8016   4.8910   4.9012   4.9013   4.9217
     4.9476   4.9489   5.0377   5.0385   5.0942   5.1016   5.2059   5.2354
     5.2915   5.3009   5.3350   5.3362   5.4895   5.4962   5.6376   5.6690
     5.7849   5.8236   5.9196   5.9581   6.0340   6.0468   6.0790   6.1159
     6.1438   6.1446   6.2270   6.2424   6.3910   6.3986   6.4305   6.4360
     6.5149   6.5387   6.5705   6.5744   6.6411   6.6463   6.7146   6.7454
     6.7892   6.8209   6.8887   6.9048   6.9504   6.9788   7.1022   7.1391
     7.1790   7.1959   7.2832   7.2883   7.3834   7.3930   7.4449   7.4544
     7.5255   7.5262   7.6830   7.7057   7.7090   7.7319   7.8526   7.8869
     7.9279   7.9981   8.0566   8.0581   8.0727   8.0760   8.0966   8.1660
     8.2180   8.2421   8.2893   8.3431   8.3545   8.3664   8.3864   8.3929
     8.3988   8.4101   8.4271   8.4398   8.4647   8.4801   8.5241   8.5311
     8.6062   8.6356   8.7203   8.7312   8.7499   8.7552   8.7779   8.8007
     8.8410   8.8770   8.9022   8.9360   9.0104   9.0196   9.0410   9.0419
     9.0532   9.0976  10.3857  10.4320  10.4638  10.4852  10.6035  10.6116
    10.7191  10.7568  10.9147  10.9365  11.1956  11.2314  11.5976  11.6326
    12.1090  12.1329  12.7105  12.7537  13.3111  13.3230  13.5257  13.5576
    13.6420  13.6428  13.7315  13.7889  13.9849  14.0785  14.2029  14.2740
    14.3635  14.5984  14.7097  14.8223  14.9689  15.1278  15.4046  15.4164
    15.7299  15.7686  15.9918  16.0023

          k = 0.3750 0.0000 0.0000 ( 23492 PWs)   bands (ev):

     2.4806   2.6096   2.8235   3.0996   3.4355   3.6519   3.7596   3.7993
     3.9070   4.0771   4.1572   4.2384   4.3671   4.4345   4.4935   4.5833
     4.6192   4.6393   4.7038   4.7285   4.8431   4.8452   4.8468   4.9265
     4.9702   5.0122   5.1236   5.1805   5.2391   5.3242   5.4731   5.4771
     5.5754   5.6131   5.6729   5.6994   5.7847   5.8741   5.8792   5.9207
     5.9363   5.9745   6.0122   6.0685   6.0733   6.1175   6.1388   6.1681
     6.2067   6.2495   6.3313   6.4142   6.4198   6.4521   6.4899   6.5139
     6.5140   6.5575   6.5591   6.5858   6.5873   6.6139   6.6404   6.6449
     6.6553   6.6860   6.6980   6.7001   6.7424   6.7759   6.8086   6.8184
     6.8444   6.8519   6.8920   6.9174   6.9269   6.9271   6.9437   6.9738
     7.0030   7.0186   7.0199   7.0656   7.1205   7.1485   7.1615   7.1900
     7.2052   7.2055   7.2802   7.3135   7.3314   7.3528   7.4037   7.4611
     7.4850   7.5077   7.5228   7.5289   7.6142   7.6280   7.6472   7.6829
     7.6878   7.7428   7.7717   7.7907   7.8711   7.8957   7.9592   7.9596
     7.9757   7.9771   8.0131   8.0270   8.0379   8.0538   8.0675   8.0750
     8.1184   8.1250   8.1782   8.1943   8.2352   8.2575   8.2769   8.3129
     8.3336   8.3371   8.3739   8.4352   8.4507   8.5362   8.5697   8.5879
     8.6407   8.6439   8.6866   8.7982   8.8111   8.8487   8.8634   8.9495
     9.1743   9.4110   9.7753   9.9434  10.4360  10.6138  11.1239  11.3541
    11.8792  12.2627  12.6338  12.8788  13.4860  14.3640  14.9653  15.3779
    15.6294  15.8182  16.4921  16.9938  17.1942  17.2676  17.4362  17.6056
    17.7931  17.9652  18.2555  18.7133

          k = 0.3750 0.1443 0.0000 ( 23495 PWs)   bands (ev):

     2.6224   2.7463   2.9569   3.2262   3.5572   3.7892   3.8996   3.9177
     4.0350   4.2007   4.2793   4.3509   4.4767   4.5671   4.6069   4.7132
     4.7385   4.7562   4.8323   4.8463   4.9463   4.9556   4.9575   5.0011
     5.0511   5.1019   5.2067   5.2803   5.3529   5.4073   5.4179   5.5054
     5.5616   5.6332   5.6645   5.7116   5.7658   5.8007   5.8118   5.8510
     5.8659   5.9070   5.9439   5.9837   6.0139   6.0389   6.0687   6.0741
     6.1277   6.1569   6.1991   6.2447   6.2834   6.3195   6.3322   6.4169
     6.4252   6.4472   6.4542   6.5008   6.5204   6.5475   6.5594   6.5815
     6.5932   6.6452   6.6758   6.6834   6.6914   6.6978   6.7077   6.7389
     6.7683   6.7946   6.8251   6.8447   6.8820   6.9291   6.9537   7.0027
     7.0122   7.0472   7.0711   7.0980   7.1385   7.1535   7.1731   7.2062
     7.2432   7.2665   7.2893   7.2982   7.3341   7.3681   7.3784   7.3980
     7.4166   7.4606   7.4746   7.4746   7.5361   7.5778   7.6734   7.6741
     7.6961   7.7306   7.7509   7.7670   7.7843   7.8604   7.8639   7.9232
     7.9512   7.9856   8.0137   8.0335   8.1070   8.1199   8.1575   8.1710
     8.2340   8.2672   8.2908   8.3153   8.3953   8.4068   8.4439   8.4840
     8.4899   8.5171   8.5330   8.5537   8.6051   8.6302   8.6438   8.6912
     8.7042   8.7159   8.7427   8.7609   8.7916   8.8098   8.9583   9.1136
     9.3933   9.5603   9.9469  10.0998  10.5827  10.7718  11.2575  11.5289
    12.0176  12.4262  12.7622  13.1427  13.6183  14.4423  15.1788  15.4785
    15.7929  15.9200  16.6180  17.1068  17.2722  17.3562  17.4727  17.6365
    17.8966  18.0420  18.2915  18.7636

          k = 0.3750 0.2887 0.0000 ( 23497 PWs)   bands (ev):

     3.0082   3.1191   3.3112   3.5544   3.8541   4.1478   4.1824   4.2655
     4.3400   4.4596   4.5192   4.5583   4.6746   4.7970   4.8117   4.9306
     4.9518   4.9674   5.0968   5.1088   5.1765   5.1784   5.1868   5.2398
     5.2660   5.2914   5.3117   5.3629   5.4213   5.4840   5.5017   5.5719
     5.5874   5.6144   5.6193   5.6954   5.7031   5.7324   5.7436   5.7694
     5.7801   5.8231   5.8459   5.8605   5.9044   5.9078   5.9499   5.9679
     5.9818   5.9840   6.0410   6.0671   6.0778   6.1654   6.1750   6.2106
     6.2710   6.2993   6.3077   6.3597   6.3899   6.3979   6.4247   6.4257
     6.4868   6.5048   6.5404   6.5638   6.5915   6.6037   6.6320   6.6983
     6.7086   6.7332   6.7364   6.7399   6.8294   6.8469   6.8834   6.9475
     6.9614   6.9841   7.0315   7.1414   7.1643   7.2306   7.2393   7.2506
     7.2951   7.3272   7.3334   7.3691   7.3728   7.4208   7.4401   7.4526
     7.4840   7.5180   7.5484   7.5733   7.6022   7.6251   7.6429   7.6588
     7.6881   7.7187   7.7604   7.7677   7.8923   7.9128   7.9534   7.9565
     7.9690   8.0528   8.1046   8.1241   8.1479   8.1627   8.1918   8.2271
     8.2977   8.3299   8.4035   8.4622   8.5078   8.5638   8.5960   8.6153
     8.6371   8.6689   8.6778   8.6903   8.6938   8.7816   8.8301   8.8981
     8.9349   9.0542   9.0999   9.1100   9.1678   9.2741   9.3486   9.4935
     9.8540   9.8911  10.4068  10.4394  11.0131  11.1452  11.6599  11.9187
    12.4177  12.8070  13.1331  13.8115  13.9630  14.7399  15.7487  15.7828
    16.2205  16.2494  16.9354  17.3948  17.4956  17.5321  17.5762  17.7748
    18.0575  18.1497  18.3447  18.6614

          k = 0.3750 0.4330 0.0000 ( 23475 PWs)   bands (ev):

     3.5139   3.5910   3.7506   3.9277   4.1422   4.3632   4.3900   4.5192
     4.5787   4.5834   4.6770   4.7111   4.7410   4.7503   4.8562   4.8653
     4.9402   4.9563   4.9994   5.0727   5.1165   5.1281   5.1702   5.2164
     5.2262   5.2399   5.2888   5.3215   5.3237   5.3500   5.4052   5.4579
     5.5112   5.5859   5.5901   5.6303   5.6718   5.7030   5.7065   5.7453
     5.8127   5.8534   5.8817   5.9348   5.9698   5.9753   6.0553   6.0676
     6.0887   6.1171   6.1685   6.1781   6.2224   6.2332   6.2738   6.2826
     6.2927   6.3233   6.3611   6.3925   6.4168   6.4383   6.5126   6.5331
     6.5949   6.6170   6.6333   6.6404   6.6861   6.7114   6.7829   6.7852
     6.8338   6.8711   6.8785   6.9031   6.9187   6.9443   6.9551   6.9771
     7.0113   7.0253   7.1295   7.1403   7.1864   7.2429   7.2799   7.3601
     7.3822   7.4270   7.4568   7.5021   7.5106   7.5414   7.5574   7.5864
     7.6267   7.6526   7.6619   7.7048   7.7288   7.7805   7.8023   7.8350
     7.8796   7.9029   7.9280   7.9838   7.9879   8.0105   8.0537   8.0971
     8.1719   8.1755   8.1886   8.2317   8.2839   8.3483   8.3679   8.3953
     8.4131   8.4232   8.4943   8.5333   8.5875   8.6971   8.7043   8.7514
     8.7715   8.7757   8.7874   8.7889   8.8183   8.9079   8.9469   9.0585
     9.1226   9.5667   9.5900   9.6253   9.6406   9.7155   9.8677  10.1345
    10.2483  10.5295  10.9028  11.0318  11.6327  11.6436  12.2582  12.4223
    13.0067  13.2549  13.6783  14.4534  14.6781  15.2917  16.2390  16.2774
    16.5208  16.6172  16.7192  16.8245  17.0159  17.1100  17.4396  17.5105
    17.6989  17.7876  17.9624  18.0388

          k = 0.3750 0.5774 0.0000 ( 23521 PWs)   bands (ev):

     3.8753   3.9149   4.0937   4.1951   4.2751   4.3252   4.4021   4.4030
     4.4778   4.5221   4.5676   4.5738   4.6407   4.6896   4.7109   4.7616
     4.8057   4.8137   4.8539   4.8657   4.8913   4.9264   4.9396   4.9634
     5.0262   5.0282   5.0512   5.1035   5.1346   5.1678   5.2043   5.2222
     5.3018   5.3685   5.3784   5.4135   5.5110   5.5584   5.6510   5.6767
     5.7927   5.8705   5.8930   6.0075   6.0753   6.1075   6.1458   6.1764
     6.1772   6.3107   6.3207   6.3551   6.4023   6.4585   6.4791   6.5315
     6.5323   6.5431   6.5629   6.5780   6.6124   6.6347   6.7000   6.7352
     6.7505   6.7981   6.8229   6.8455   6.8956   6.8973   6.9734   7.0166
     7.0211   7.0810   7.1072   7.1357   7.1455   7.3063   7.3233   7.3239
     7.3766   7.3953   7.4908   7.5390   7.5787   7.6879   7.6944   7.7342
     7.7595   7.7599   7.7756   7.8540   7.9170   7.9254   7.9453   7.9722
     8.0079   8.0745   8.0859   8.1156   8.1530   8.1835   8.1995   8.2026
     8.2355   8.2524   8.2602   8.2672   8.3112   8.3147   8.3253   8.3292
     8.3478   8.3617   8.4175   8.4400   8.4671   8.5023   8.5371   8.5645
     8.5734   8.6100   8.6228   8.6840   8.7162   8.7168   8.7558   8.7796
     8.8392   8.8611   8.8720   8.8907   8.8923   8.9833   9.0168   9.1471
     9.4252  10.0743  10.0752  10.1365  10.2249  10.3548  10.5402  10.7871
    10.8407  11.2510  11.5167  11.7620  12.2829  12.3819  12.9949  13.0606
    13.7006  13.8038  14.2574  14.4966  14.5994  14.8757  14.9802  15.2820
    15.3436  15.5253  15.7529  15.8319  16.2322  16.4055  16.4747  16.7077
    16.8074  16.9320  17.1648  17.2732

          k = 0.3750 0.7217 0.0000 ( 23544 PWs)   bands (ev):

     3.9966   4.0320   4.1148   4.2054   4.2394   4.2746   4.3674   4.3742
     4.3883   4.3911   4.4640   4.4745   4.5317   4.5516   4.6075   4.6215
     4.6315   4.6579   4.6778   4.7002   4.7072   4.7115   4.7932   4.7933
     4.8179   4.8611   4.8692   4.9556   4.9734   4.9996   5.0559   5.0822
     5.1396   5.1968   5.2362   5.2577   5.4421   5.4558   5.6242   5.6830
     5.8525   5.8600   5.9086   6.0351   6.0413   6.1158   6.1590   6.1728
     6.2764   6.2860   6.3471   6.3698   6.4224   6.4361   6.4473   6.4573
     6.4978   6.5027   6.6181   6.6588   6.6799   6.7115   6.7645   6.7906
     6.8739   6.8790   6.9140   7.0240   7.0713   7.0899   7.1761   7.1987
     7.3002   7.3085   7.4026   7.4405   7.4903   7.5462   7.6189   7.6542
     7.7498   7.7799   7.7887   7.8724   7.9468   7.9842   8.0464   8.0711
     8.1514   8.2261   8.2351   8.3114   8.3240   8.3484   8.3908   8.3930
     8.4515   8.4530   8.4892   8.4916   8.5388   8.5467   8.5625   8.5728
     8.5924   8.6082   8.6082   8.6175   8.6384   8.6546   8.6925   8.6932
     8.6945   8.7090   8.7103   8.7242   8.7412   8.7461   8.7692   8.7735
     8.7971   8.8513   8.8681   8.8919   8.9049   8.9648   8.9913   9.0019
     9.0298   9.0362   9.1531   9.1668   9.3821   9.4563   9.5557   9.7216
    10.1887  10.7329  10.8476  10.8829  11.0369  11.2186  11.3862  11.5893
    11.6346  11.9526  12.2951  12.3625  12.6239  12.7573  12.9760  13.0216
    13.0443  13.1268  13.6635  13.8019  13.8953  14.0170  14.2836  14.3469
    14.4408  14.5067  14.6693  14.6702  14.9454  15.0683  15.2851  15.4888
    15.5972  16.0097  16.0212  16.2872

          k = 0.3750-0.8660 0.0000 ( 23556 PWs)   bands (ev):

     3.9929   4.0668   4.1022   4.1214   4.2303   4.2559   4.2962   4.3104
     4.3647   4.3762   4.4167   4.4426   4.5232   4.5314   4.5594   4.5598
     4.5896   4.6032   4.6134   4.6135   4.6767   4.6997   4.7053   4.7165
     4.7274   4.7591   4.8323   4.8502   4.9286   4.9290   5.0451   5.0570
     5.0780   5.0797   5.1826   5.1934   5.4030   5.4304   5.6064   5.6912
     5.8479   5.8608   5.9953   6.0007   6.1082   6.1264   6.1494   6.1723
     6.2422   6.2878   6.3066   6.3405   6.3948   6.4043   6.4252   6.4314
     6.4888   6.4913   6.6664   6.6976   6.7111   6.7186   6.7818   6.7948
     6.9132   6.9202   7.0286   7.0541   7.1385   7.1395   7.1972   7.2420
     7.3891   7.3965   7.4767   7.4972   7.5844   7.6077   7.7445   7.7662
     7.8390   7.8581   7.9279   7.9508   8.1058   8.1190   8.1965   8.1978
     8.2472   8.2831   8.3830   8.4038   8.4458   8.4920   8.5328   8.5507
     8.5591   8.5817   8.5998   8.6194   8.6290   8.6419   8.6498   8.6712
     8.6948   8.7061   8.7350   8.7416   8.7551   8.7618   8.7721   8.7822
     8.7928   8.8130   8.8243   8.8489   8.8498   8.8642   8.8731   8.8924
     8.9264   8.9357   8.9519   8.9837   9.0058   9.0585   9.0830   9.0832
     9.0900   9.1269  10.3022  10.4099  10.4873  10.5194  10.7477  10.7955
    10.9065  10.9693  11.0836  11.1127  11.2503  11.3003  11.5114  11.5765
    11.8695  11.9180  12.2402  12.3456  12.5115  12.5476  12.6271  12.7662
    12.7850  12.7974  12.8110  12.9812  13.4596  13.6954  13.7512  13.8226
    13.9206  14.2432  14.3413  14.4547  14.5579  14.8200  14.9432  15.1601
    15.2899  15.3372  15.7136  15.8740

          k =-0.5000 0.0000-0.0000 ( 23442 PWs)   bands (ev):

     3.1099   3.1099   3.2237   3.2237   3.4032   3.4032   3.6320   3.6320
     3.9035   3.9035   4.1880   4.1881   4.4608   4.4608   4.6639   4.6639
     4.7821   4.7821   4.8925   4.8925   4.9838   4.9838   5.1248   5.1249
     5.1509   5.1509   5.2455   5.2455   5.3105   5.3106   5.4487   5.4487
     5.5521   5.5521   5.6589   5.6589   5.7313   5.7314   5.8247   5.8247
     5.9299   5.9300   5.9669   5.9670   6.0354   6.0354   6.0679   6.0680
     6.1688   6.1688   6.2384   6.2384   6.3341   6.3341   6.4177   6.4177
     6.5285   6.5285   6.5818   6.5819   6.6242   6.6242   6.6647   6.6648
     6.6827   6.6827   6.7004   6.7004   6.7098   6.7098   6.7418   6.7418
     6.8006   6.8006   6.8787   6.8787   6.9007   6.9008   6.9480   6.9480
     7.0067   7.0067   7.1644   7.1645   7.1812   7.1812   7.1873   7.1873
     7.2473   7.2474   7.2829   7.2829   7.3689   7.3689   7.4043   7.4043
     7.4293   7.4293   7.5199   7.5199   7.5475   7.5475   7.5579   7.5580
     7.6116   7.6116   7.6266   7.6266   7.6824   7.6824   7.7322   7.7322
     7.7859   7.7859   7.8462   7.8462   7.8917   7.8917   7.9559   7.9559
     8.0271   8.0271   8.0824   8.0825   8.1015   8.1016   8.1563   8.1563
     8.2411   8.2412   8.3435   8.3435   8.4226   8.4226   8.5700   8.5700
     8.6447   8.6447   8.8157   8.8157   8.8298   8.8298   8.8550   8.8550
     9.3317   9.3317   9.8926   9.8926  10.5054  10.5054  11.2285  11.2285
    11.9901  11.9901  12.9089  12.9089  13.9785  13.9786  14.8900  14.8900
    15.8723  15.8724  16.4456  16.4465  17.4228  17.4232  17.8149  17.8153
    19.1435  19.1437  19.3185  19.3187

          k =-0.5000 0.1443-0.0000 ( 23476 PWs)   bands (ev):

     3.2412   3.2497   3.3578   3.3589   3.5273   3.5306   3.7506   3.7542
     4.0154   4.0171   4.2972   4.3010   4.5790   4.5805   4.7982   4.8075
     4.9199   4.9232   5.0174   5.0255   5.0999   5.1131   5.2141   5.2252
     5.2623   5.2654   5.2969   5.3185   5.3715   5.3715   5.4706   5.4890
     5.5594   5.5649   5.6416   5.6457   5.6974   5.7022   5.7582   5.7655
     5.8315   5.8384   5.8638   5.8684   5.9267   5.9417   5.9557   5.9562
     6.0383   6.0559   6.0696   6.0723   6.1514   6.2030   6.2805   6.3079
     6.3894   6.4478   6.4514   6.4754   6.5033   6.5125   6.5508   6.5651
     6.5927   6.5954   6.6192   6.6278   6.6603   6.6640   6.6806   6.6819
     6.6970   6.7030   6.7190   6.7217   6.7653   6.8051   6.9169   6.9186
     6.9834   6.9878   7.0973   7.0976   7.1782   7.1801   7.2378   7.2988
     7.3505   7.3626   7.3669   7.3749   7.3880   7.3986   7.4119   7.4316
     7.4603   7.4780   7.5357   7.5622   7.5861   7.5882   7.6604   7.6879
     7.7149   7.7175   7.7558   7.7561   7.7710   7.8122   7.8454   7.8501
     7.8707   7.8962   7.9954   7.9971   8.0563   8.0775   8.0894   8.0929
     8.1077   8.1203   8.2080   8.2083   8.2237   8.2414   8.2796   8.2856
     8.3030   8.3039   8.3572   8.3739   8.4282   8.4431   8.4960   8.5301
     8.6498   8.6862   8.7092   8.7167   8.7323   8.7331   9.0206   9.0227
     9.4550   9.4862   9.9979  10.0355  10.6022  10.6485  11.3437  11.3692
    12.0979  12.1348  13.0265  13.0319  14.1905  14.2125  15.0077  15.0288
    15.9898  15.9940  16.5386  16.5518  17.5534  17.5807  17.8693  17.8822
    19.1981  19.2105  19.3893  19.4234

          k =-0.5000 0.2887-0.0000 ( 23540 PWs)   bands (ev):

     3.5859   3.6159   3.7069   3.7104   3.8396   3.8482   4.0334   4.0460
     4.2557   4.2652   4.5013   4.5201   4.7619   4.7832   5.0223   5.0239
     5.2143   5.2256   5.2599   5.3083   5.3212   5.3234   5.3536   5.3638
     5.3912   5.3944   5.4178   5.4179   5.4480   5.4646   5.4895   5.4911
     5.5164   5.5281   5.5343   5.5529   5.5996   5.6058   5.6608   5.6668
     5.7009   5.7285   5.7671   5.7883   5.8103   5.8103   5.8301   5.8644
     5.9478   5.9988   6.0242   6.0407   6.0724   6.0754   6.1052   6.1111
     6.1620   6.1750   6.2060   6.2166   6.2915   6.3008   6.3746   6.3761
     6.4380   6.4421   6.5066   6.5088   6.5320   6.5321   6.5798   6.5824
     6.5848   6.5862   6.6234   6.6828   6.8878   6.9342   6.9411   6.9826
     6.9948   7.0083   7.0287   7.0572   7.1655   7.1669   7.1998   7.2215
     7.2545   7.2745   7.3322   7.3461   7.4141   7.4645   7.5402   7.5516
     7.6008   7.6065   7.6369   7.6448   7.6753   7.7130   7.7647   7.7712
     7.8630   7.8779   7.9348   7.9611   8.0207   8.0240   8.0607   8.0758
     8.1247   8.1855   8.2298   8.2361   8.2526   8.2834   8.3486   8.3569
     8.3854   8.3949   8.4210   8.4388   8.4594   8.4755   8.4856   8.4954
     8.5069   8.5149   8.5345   8.5392   8.5955   8.5976   8.6235   8.6314
     8.6791   8.6802   8.6913   8.6958   8.8615   8.8721   9.2629   9.2871
     9.7344   9.7851  10.3003  10.3580  10.9100  10.9902  11.6790  11.7207
    12.4169  12.4864  13.3241  13.3400  14.7537  14.8076  15.3792  15.4154
    16.3194  16.3433  16.8346  16.8756  17.8899  17.9691  18.0490  18.0689
    19.2482  19.2781  19.3607  19.4480

          k =-0.5000 0.4330-0.0000 ( 23522 PWs)   bands (ev):

     3.9157   4.0018   4.0484   4.0604   4.1573   4.1728   4.2922   4.3297
     4.4276   4.4611   4.5682   4.6004   4.7188   4.7515   4.8590   4.8680
     4.9617   4.9904   5.0184   5.0380   5.0825   5.1110   5.1338   5.1503
     5.1994   5.2075   5.2696   5.3001   5.3196   5.3356   5.4329   5.4346
     5.4928   5.5144   5.5615   5.5738   5.5860   5.6387   5.7138   5.7166
     5.8118   5.8228   5.9157   5.9184   5.9750   6.0095   6.0339   6.0381
     6.0738   6.1081   6.1488   6.1577   6.2197   6.2281   6.2665   6.2790
     6.3460   6.3699   6.3744   6.3977   6.4566   6.4626   6.4893   6.4937
     6.5484   6.5579   6.6304   6.6605   6.6996   6.7022   6.7293   6.7465
     6.7747   6.8100   6.8541   6.8590   6.8676   6.9241   6.9402   6.9554
     7.0092   7.0398   7.1230   7.1240   7.2125   7.2306   7.3718   7.3805
     7.4231   7.4549   7.5106   7.5246   7.5403   7.5617   7.5951   7.5972
     7.6060   7.6152   7.7198   7.7260   7.8340   7.8371   7.8573   7.8629
     7.9967   8.0133   8.1084   8.1498   8.2046   8.2181   8.2706   8.2724
     8.3738   8.3792   8.4514   8.4576   8.4870   8.4932   8.5437   8.5520
     8.5815   8.5843   8.6189   8.6214   8.6382   8.6916   8.7658   8.7745
     8.7879   8.7886   8.8125   8.8323   8.8548   8.8641   8.8685   8.8733
     8.9315   8.9322   9.0053   9.0081   9.2067   9.2075   9.6133   9.6414
    10.1305  10.1875  10.7528  10.8132  11.3861  11.4861  12.1769  12.2248
    12.8897  12.9855  13.7387  13.7650  15.4072  15.5066  15.9142  15.9682
    16.7508  16.8024  17.2051  17.3225  17.5436  17.6241  17.6696  17.7179
    17.9340  17.9783  18.1355  18.1465

          k =-0.5000 0.5774-0.0000 ( 23534 PWs)   bands (ev):

     3.9899   4.0847   4.1177   4.1342   4.2608   4.2856   4.3697   4.4355
     4.4978   4.5060   4.5153   4.5161   4.5787   4.6065   4.6368   4.6457
     4.7222   4.7444   4.7629   4.7746   4.8225   4.8267   4.8618   4.8699
     4.9348   4.9409   5.0119   5.0267   5.0913   5.0960   5.2226   5.2261
     5.2393   5.2448   5.3097   5.3346   5.4897   5.4954   5.6186   5.6819
     5.8153   5.8376   5.9948   5.9952   6.0975   6.1288   6.2129   6.2807
     6.3202   6.3350   6.3702   6.3715   6.4264   6.4438   6.4795   6.4813
     6.5137   6.5152   6.5733   6.5762   6.6265   6.6311   6.7086   6.7202
     6.7655   6.7696   6.8459   6.8740   6.9433   6.9520   7.0452   7.0499
     7.0955   7.0960   7.2027   7.2042   7.2489   7.2650   7.3564   7.3718
     7.4378   7.4446   7.5716   7.5775   7.6470   7.6998   7.7009   7.7899
     7.8319   7.8526   7.8949   7.9090   7.9095   7.9315   7.9928   8.0242
     8.0721   8.1177   8.1822   8.1901   8.2115   8.2195   8.2217   8.2241
     8.2557   8.2591   8.2905   8.3229   8.4197   8.4344   8.4496   8.4577
     8.5413   8.5576   8.5831   8.5835   8.5987   8.6067   8.6753   8.6924
     8.7233   8.7401   8.7578   8.7758   8.7951   8.8468   8.9054   8.9073
     8.9200   8.9831   9.1406   9.1412   9.2175   9.2188   9.3128   9.3206
     9.3568   9.3807   9.4535   9.4677   9.6787   9.6970  10.1166  10.1235
    10.6793  10.7217  11.3678  11.4084  12.0328  12.1369  12.8349  12.8818
    13.5191  13.6429  14.2861  14.3101  15.2882  15.3080  15.3713  15.3948
    15.5503  15.5760  15.7586  15.7644  15.9386  16.0039  16.3824  16.4194
    16.8725  16.8757  17.1833  17.1936

          k =-0.5000 0.7217-0.0000 ( 23516 PWs)   bands (ev):

     3.9488   4.0284   4.0653   4.0817   4.2137   4.2175   4.2883   4.2936
     4.3559   4.3623   4.3954   4.4159   4.4991   4.5019   4.5462   4.5468
     4.5640   4.5842   4.6179   4.6190   4.6545   4.6634   4.6872   4.6885
     4.7385   4.7648   4.8221   4.8421   4.9393   4.9395   5.0364   5.0404
     5.0630   5.0645   5.1833   5.1975   5.4057   5.4313   5.5990   5.6895
     5.8393   5.8859   6.0163   6.0237   6.1107   6.1685   6.1923   6.2206
     6.3023   6.3168   6.3308   6.3396   6.3946   6.4110   6.4493   6.4521
     6.4759   6.4875   6.6709   6.6812   6.7484   6.7595   6.8169   6.8497
     6.8916   6.9202   7.0301   7.0450   7.1223   7.1272   7.2087   7.2357
     7.3424   7.3508   7.4815   7.5213   7.5761   7.5868   7.7003   7.7439
     7.8390   7.8671   7.9028   7.9536   8.0580   8.0876   8.1595   8.1676
     8.2654   8.2947   8.3983   8.4071   8.4422   8.4496   8.4987   8.5344
     8.5705   8.5706   8.5916   8.5933   8.6233   8.6300   8.6732   8.6734
     8.6923   8.6970   8.7092   8.7107   8.7284   8.7326   8.7463   8.7497
     8.7561   8.7733   8.7810   8.7963   8.8036   8.8183   8.8283   8.8337
     8.8632   8.8752   8.9240   8.9286   8.9572   9.0332   9.0617   9.0629
     9.0651   9.1030   9.6020   9.6626   9.7874   9.7961  10.0276  10.0650
    10.1581  10.2093  10.2959  10.3251  10.4690  10.5201  10.8393  10.8897
[...]
     5.1336   5.2055   5.2295   5.2937   5.3771   5.4861   5.4908   5.5095
     5.6127   5.6134   5.6900   5.7082   5.7874   5.8085   5.8609   5.9032
     5.9188   5.9297   5.9503   5.9782   5.9995   6.0516   6.0949   6.1044
     6.1164   6.1406   6.1741   6.2398   6.2801   6.2833   6.3317   6.3590
     6.4183   6.4309   6.4688   6.4761   6.5171   6.5603   6.5763   6.6113
     6.6151   6.6579   6.6862   6.6966   6.7083   6.7353   6.7684   6.7746
     6.8141   6.8298   6.8692   6.8744   6.9210   6.9329   6.9648   6.9790
     6.9885   7.0081   7.0157   7.0679   7.0928   7.1373   7.1406   7.1740
     7.1837   7.2251   7.2538   7.2928   7.3249   7.3413   7.3647   7.3664
     7.4484   7.4534   7.5115   7.5353   7.5635   7.6161   7.6247   7.6911
     7.6949   7.7587   7.7824   7.7842   7.8127   7.8600   7.8834   7.9030
     7.9571   7.9855   7.9879   8.0323   8.1015   8.1757   8.1778   8.2001
     8.2628   8.3846   8.3896   8.4604   8.5917   8.6066   8.6717   8.6893
     8.7593   8.7596   8.7890   8.7940   8.8321   8.8680   8.9313   8.9679
     8.9957   9.0075   9.4260   9.8151   9.8511   9.8989   9.9101  10.0001
    10.1748  10.4644  10.6342  10.8869  11.3231  11.4213  12.0374  12.3035
    12.6934  12.9089  13.3776  14.0348  14.4010  14.6625  15.3956  15.4886
    15.6715  15.8317  15.8498  16.0081  16.2006  16.5956  17.0251  17.0499
    17.2171  17.2664  17.5577  17.6254

          k =-0.2500 0.4330-0.0000 ( 23431 PWs)   bands (ev):

     3.0815   3.2256   3.3868   3.6392   3.9015   4.1963   4.4668   4.5641
     4.6491   4.7286   4.7436   4.8129   4.8249   4.8625   4.8796   4.9147
     4.9521   5.0083   5.0641   5.0996   5.1289   5.1484   5.2018   5.2360
     5.2448   5.2507   5.3124   5.4542   5.4837   5.4911   5.5098   5.5602
     5.5745   5.6242   5.6719   5.6943   5.7133   5.7892   5.7911   5.8471
     5.8486   5.9098   5.9206   5.9307   5.9769   5.9902   6.0024   6.0255
     6.0471   6.1026   6.1037   6.1549   6.1584   6.2348   6.2431   6.2805
     6.3543   6.3643   6.4047   6.4497   6.4948   6.5359   6.5694   6.5897
     6.6140   6.6148   6.6646   6.6739   6.7025   6.7204   6.7257   6.7531
     6.8409   6.8955   6.9021   6.9781   6.9808   6.9838   7.0210   7.0294
     7.0826   7.0908   7.1772   7.1812   7.2020   7.2381   7.2630   7.2877
     7.2968   7.3329   7.3774   7.3806   7.3958   7.4347   7.4659   7.4936
     7.5559   7.5722   7.5964   7.5986   7.6255   7.6573   7.6596   7.6829
     7.7143   7.7462   7.7979   7.8428   7.8724   7.8892   7.9026   7.9217
     7.9699   8.0152   8.0469   8.0590   8.0967   8.1577   8.1883   8.2445
     8.3698   8.4223   8.4302   8.5628   8.6249   8.6889   8.7491   8.7927
     8.8104   8.8238   8.8555   8.8574   8.8641   8.8931   8.9496   9.0320
     9.0436   9.2658   9.8590  10.4120  10.4178  10.4476  10.5535  10.7009
    10.9462  11.2090  11.2827  11.7196  11.9141  12.2373  12.8139  12.9085
    13.4206  13.9260  14.0237  14.5886  14.9011  14.9104  15.5858  15.7840
    15.8525  15.8862  15.9733  16.1519  16.2815  16.4454  16.4470  16.6396
    16.9856  17.1945  17.4520  17.5182

          k =-0.2500 0.5774-0.0000 ( 23466 PWs)   bands (ev):

     3.6417   3.7949   3.9119   4.1130   4.2660   4.4157   4.5282   4.5501
     4.6407   4.6420   4.7207   4.7280   4.7496   4.8366   4.8526   4.8622
     4.9060   4.9894   5.0093   5.0380   5.0509   5.1250   5.1408   5.1783
     5.1894   5.1899   5.2291   5.2642   5.2963   5.3482   5.3627   5.3870
     5.4469   5.4688   5.5273   5.5732   5.6300   5.6741   5.7536   5.7923
     5.8119   5.8482   5.8967   5.9273   5.9480   5.9776   6.0356   6.0582
     6.1439   6.1590   6.2288   6.2489   6.2975   6.3721   6.4226   6.4433
     6.4926   6.5058   6.5414   6.5793   6.6009   6.6090   6.6274   6.6401
     6.6697   6.6944   6.7520   6.7541   6.8249   6.8460   6.8755   6.9245
     6.9439   6.9657   6.9977   7.0176   7.1025   7.1165   7.1423   7.2129
     7.2302   7.2932   7.3381   7.3402   7.4667   7.4759   7.5121   7.5193
     7.5334   7.5398   7.6226   7.6234   7.7219   7.7323   7.7710   7.8252
     7.8324   7.8744   7.9135   7.9256   7.9671   7.9967   8.0013   8.0554
     8.0630   8.0839   8.0876   8.1168   8.1173   8.1504   8.1884   8.2172
     8.2516   8.3124   8.3320   8.3482   8.3994   8.4398   8.4614   8.4971
     8.5018   8.5369   8.5841   8.6291   8.6742   8.7072   8.7397   8.7466
     8.7911   8.8279   8.8508   8.8601   8.8689   8.9193   8.9963   9.0023
     9.2042   9.7655  10.4456  11.0708  11.0734  11.1308  11.2822  11.4702
    11.7587  11.8957  12.1203  12.5676  12.6002  13.0771  13.5162  13.5990
    13.7479  13.8599  14.0061  14.3034  14.4511  14.6953  14.9692  15.0303
    15.0981  15.4874  15.6641  15.7000  15.9005  16.2609  16.4257  16.5000
    16.7184  17.1928  17.2581  17.5241

          k =-0.2500 0.7217-0.0000 ( 23545 PWs)   bands (ev):

     3.9866   4.1343   4.2601   4.4045   4.4367   4.4434   4.5050   4.5154
     4.5319   4.5943   4.6072   4.6396   4.6885   4.7115   4.7125   4.7694
     4.8314   4.8541   4.8734   4.8894   4.9195   4.9240   4.9342   5.0153
     5.0275   5.0942   5.1039   5.1098   5.1541   5.2266   5.2410   5.2417
     5.3163   5.3219   5.3996   5.4701   5.5111   5.5757   5.6637   5.6996
     5.7971   5.8117   5.8420   5.9350   5.9868   6.0098   6.0265   6.1038
     6.1468   6.2551   6.2974   6.3095   6.3608   6.3855   6.4233   6.4773
     6.5224   6.5327   6.5769   6.5813   6.6003   6.6668   6.7068   6.7206
     6.7885   6.7947   6.8255   6.8741   6.9482   6.9685   7.0273   7.0290
     7.1122   7.1166   7.1757   7.2256   7.2615   7.2821   7.3308   7.3977
     7.4525   7.5039   7.5588   7.5933   7.6506   7.6560   7.7292   7.7699
     7.8654   7.8957   7.8963   7.9415   7.9478   7.9789   8.0338   8.0586
     8.0994   8.1663   8.1698   8.2034   8.2231   8.2554   8.2611   8.3108
     8.3164   8.3467   8.4170   8.4686   8.4760   8.5326   8.5443   8.5524
     8.5716   8.5894   8.6071   8.6361   8.6678   8.6743   8.6749   8.7387
     8.7496   8.7619   8.8445   8.8552   8.9041   8.9060   8.9201   8.9302
     8.9447   8.9626   9.1350   9.2217   9.3174   9.3887   9.4637   9.6883
    10.1116  10.6813  11.3805  11.9286  11.9865  12.0187  12.0381  12.0816
    12.1739  12.2877  12.3261  12.4780  12.6341  12.8428  12.8909  13.0553
    13.3466  13.4744  13.5201  13.8391  14.0659  14.3041  14.5204  14.7523
    15.0936  15.2454  15.2886  15.3908  15.5745  15.5939  15.7652  15.9349
    16.1191  16.2068  16.3803  16.6000

          k =-0.3750 0.1443-0.0000 ( 23495 PWs)   bands (ev):

     2.6144   2.7469   2.9527   3.2279   3.5567   3.7899   3.8985   3.9179
     4.0347   4.1971   4.2765   4.3479   4.4720   4.5599   4.6046   4.7106
     4.7446   4.7525   4.7874   4.8484   4.9388   4.9556   4.9575   4.9996
     5.0548   5.1057   5.1951   5.2689   5.3417   5.4113   5.4876   5.4914
     5.5929   5.6214   5.6714   5.6875   5.7505   5.7960   5.8286   5.8373
     5.8785   5.9133   5.9380   5.9880   6.0146   6.0376   6.0893   6.1028
     6.1482   6.1502   6.1987   6.2392   6.2842   6.2908   6.3855   6.4062
     6.4257   6.4415   6.4659   6.5098   6.5216   6.5348   6.5599   6.5755
     6.6132   6.6331   6.6605   6.6816   6.6907   6.6955   6.7177   6.7413
     6.7884   6.8065   6.8109   6.8536   6.8880   6.9469   6.9499   7.0084
     7.0428   7.0517   7.0710   7.0772   7.1261   7.1486   7.1754   7.2184
     7.2405   7.2863   7.3049   7.3183   7.3586   7.3742   7.3892   7.4072
     7.4297   7.4638   7.4901   7.4950   7.5538   7.5721   7.6104   7.6902
     7.7068   7.7323   7.7420   7.7722   7.7997   7.8203   7.8447   7.9382
     7.9499   7.9715   7.9814   8.0364   8.0847   8.1022   8.1598   8.1900
     8.2318   8.2526   8.2800   8.3037   8.3770   8.3848   8.4566   8.4768
     8.4810   8.5219   8.5351   8.5448   8.5835   8.6240   8.6597   8.6866
     8.6990   8.7157   8.7359   8.7833   8.7999   8.8059   8.9502   9.0931
     9.4109   9.5284   9.9783  10.0423  10.6178  10.7437  11.2927  11.4753
    12.0373  12.4243  12.7863  13.1161  13.6034  14.4663  15.1914  15.4746
    15.7757  15.9306  16.6156  17.1335  17.2789  17.3458  17.4486  17.6365
    17.8682  18.0338  18.2923  18.7477

          k =-0.3750 0.2887-0.0000 ( 23497 PWs)   bands (ev):

     2.9842   3.1211   3.2997   3.5611   3.8553   4.1469   4.1887   4.2647
     4.3406   4.4559   4.5203   4.5466   4.6530   4.7820   4.7873   4.8878
     4.9464   4.9621   5.0331   5.0944   5.1729   5.1834   5.1877   5.2317
     5.2959   5.3137   5.3510   5.3959   5.4269   5.5112   5.5128   5.5876
     5.6015   5.6439   5.6590   5.6803   5.6903   5.7313   5.7416   5.7435
     5.7819   5.7955   5.8622   5.8658   5.8689   5.8980   5.9437   5.9675
     5.9697   5.9812   6.0271   6.0944   6.1078   6.1618   6.2129   6.2605
     6.2628   6.3030   6.3184   6.3409   6.3720   6.4038   6.4345   6.4544
     6.5020   6.5115   6.5548   6.5575   6.5981   6.6068   6.6485   6.7030
     6.7136   6.7352   6.7375   6.7532   6.8123   6.8610   6.8802   6.9558
     6.9594   6.9888   7.0312   7.1295   7.1340   7.1997   7.2535   7.2716
     7.2790   7.3225   7.3513   7.3704   7.3747   7.4228   7.4320   7.4645
     7.4880   7.4982   7.5833   7.5844   7.6092   7.6324   7.6474   7.6584
     7.7148   7.7380   7.8097   7.8243   7.8881   7.9345   7.9401   7.9540
     7.9680   8.0459   8.1043   8.1272   8.1313   8.1535   8.1848   8.2302
     8.2599   8.3147   8.4004   8.4731   8.4772   8.5530   8.5989   8.6107
     8.6336   8.6669   8.6721   8.6990   8.7070   8.7244   8.8306   8.8438
     8.9241   9.0625   9.0956   9.1172   9.1628   9.2688   9.3001   9.4969
     9.8010   9.9140  10.3439  10.4486  11.0624  11.1004  11.7211  11.8274
    12.4483  12.8085  13.1821  13.7531  13.9277  14.7804  15.7633  15.7858
    16.1871  16.2770  16.9352  17.3981  17.4424  17.5080  17.5969  17.7484
    18.0142  18.1332  18.3228  18.7005

          k =-0.3750 0.4330-0.0000 ( 23475 PWs)   bands (ev):

     3.4507   3.5971   3.7273   3.9485   4.1543   4.3851   4.4283   4.4957
     4.5470   4.5936   4.6500   4.7097   4.7226   4.7353   4.8099   4.8297
     4.9403   4.9434   5.0359   5.0736   5.1053   5.1510   5.1713   5.2232
     5.2407   5.2692   5.2904   5.2920   5.3263   5.3565   5.4223   5.4660
     5.5072   5.5804   5.5880   5.6173   5.6860   5.6909   5.7073   5.7996
     5.8093   5.8859   5.9012   5.9320   5.9670   6.0111   6.0219   6.0633
     6.1074   6.1285   6.1685   6.1704   6.2208   6.2432   6.2803   6.2900
     6.3038   6.3433   6.3746   6.3893   6.4069   6.4652   6.5014   6.5026
     6.5914   6.6177   6.6400   6.6438   6.6835   6.6881   6.7235   6.7800
     6.8652   6.8705   6.8779   6.8836   6.9068   6.9369   6.9748   6.9955
     7.0101   7.1051   7.1290   7.1481   7.2046   7.2299   7.2975   7.3315
     7.4028   7.4049   7.4665   7.4954   7.5040   7.5431   7.5653   7.6089
     7.6261   7.6761   7.6769   7.7011   7.7268   7.7795   7.8048   7.8747
     7.9039   7.9243   7.9322   7.9802   7.9851   8.0282   8.1033   8.1141
     8.1460   8.1738   8.2093   8.2515   8.2797   8.3291   8.3404   8.3659
     8.4083   8.4215   8.4985   8.5754   8.5904   8.6775   8.7092   8.7500
     8.7736   8.7808   8.8012   8.8022   8.8279   8.8645   8.9519   8.9624
     9.0884   9.5693   9.5720   9.5899   9.6243   9.7023   9.8595  10.1317
    10.1864  10.5453  10.7877  11.0711  11.5928  11.6787  12.3103  12.3367
    13.0407  13.2644  13.7552  14.3894  14.5794  15.3395  16.2260  16.2903
    16.3845  16.6370  16.7127  16.8791  16.9469  17.0920  17.3842  17.5310
    17.7317  17.7534  17.9831  18.1447

          k =-0.3750 0.5774-0.0000 ( 23521 PWs)   bands (ev):

     3.7737   3.9272   4.0481   4.2419   4.3452   4.3584   4.3643   4.4167
     4.4641   4.4953   4.5573   4.5778   4.6479   4.6573   4.6910   4.7713
     4.7902   4.8085   4.8568   4.8691   4.8972   4.9319   4.9335   4.9865
     5.0126   5.0197   5.0622   5.0952   5.1369   5.1779   5.2062   5.2265
     5.3133   5.3593   5.3609   5.4135   5.5220   5.5510   5.6279   5.7529
     5.7776   5.8991   5.9269   6.0405   6.0803   6.1190   6.1524   6.1557
     6.2228   6.2803   6.3091   6.3705   6.3898   6.4526   6.4763   6.5249
     6.5393   6.5475   6.5657   6.5749   6.6199   6.6206   6.6823   6.7259
     6.7638   6.7748   6.8227   6.8767   6.9090   6.9183   6.9559   7.0098
     7.0153   7.0779   7.0988   7.1463   7.1793   7.2318   7.3065   7.3479
     7.3814   7.4479   7.4526   7.5038   7.5722   7.6431   7.6992   7.7298
     7.7388   7.7834   7.8232   7.8684   7.9246   7.9573   7.9732   8.0207
     8.0208   8.0832   8.0873   8.1129   8.1420   8.1578   8.1980   8.2100
     8.2426   8.2474   8.2593   8.2784   8.3026   8.3182   8.3285   8.3370
     8.3674   8.3936   8.4239   8.4430   8.4677   8.4992   8.5353   8.5630
     8.5866   8.6261   8.6446   8.6852   8.7220   8.7543   8.7557   8.8007
     8.8579   8.8723   8.8736   8.8989   8.9095   8.9429   9.0248   9.0320
     9.3909  10.0112  10.0863  10.1275  10.2290  10.3305  10.5267  10.7370
    10.8217  11.2464  11.4011  11.7831  12.2340  12.4044  12.9372  13.0829
    13.7404  13.8118  14.2831  14.5011  14.6248  14.8106  14.9959  15.2306
    15.2422  15.5789  15.7684  15.8782  16.2113  16.3886  16.5369  16.7011
    16.7078  16.9303  17.2167  17.2306

          k =-0.3750 0.7217-0.0000 ( 23544 PWs)   bands (ev):

     3.9062   4.0466   4.1804   4.1822   4.2122   4.3147   4.3205   4.3734
     4.3967   4.4113   4.4795   4.4935   4.5229   4.5264   4.5686   4.6337
     4.6472   4.6537   4.6829   4.6976   4.7006   4.7198   4.7726   4.8078
     4.8293   4.8661   4.8685   4.9432   4.9781   5.0016   5.0572   5.0793
     5.1625   5.1956   5.2167   5.2541   5.4357   5.4592   5.6075   5.7075
     5.8276   5.8722   5.9605   6.0514   6.0801   6.1131   6.1411   6.2000
     6.2338   6.3021   6.3507   6.3671   6.4054   6.4096   6.4623   6.4638
     6.5063   6.5117   6.5858   6.6910   6.6940   6.7436   6.7504   6.7726
     6.8568   6.8822   6.9490   7.0084   7.0688   7.0984   7.1696   7.1997
     7.2882   7.3124   7.4225   7.4582   7.4806   7.5182   7.6289   7.6535
     7.7124   7.7940   7.8157   7.8814   7.9549   7.9685   8.0269   8.0715
     8.0941   8.2155   8.2614   8.3109   8.3119   8.3447   8.3665   8.3747
     8.4651   8.4757   8.5142   8.5184   8.5408   8.5456   8.5721   8.5812
     8.5875   8.5934   8.6072   8.6246   8.6506   8.6629   8.6644   8.6949
     8.6971   8.7103   8.7277   8.7300   8.7464   8.7540   8.7733   8.8019
     8.8272   8.8701   8.8838   8.8899   8.9432   8.9640   8.9705   8.9871
     9.0260   9.0373   9.0408   9.1463   9.3659   9.5065   9.5842   9.7655
    10.2132  10.7984  10.8315  10.8596  11.0643  11.1796  11.3667  11.5880
    11.5905  11.8979  12.2514  12.2747  12.5287  12.7028  12.7993  13.0085
    13.0555  13.0958  13.7360  13.7591  13.8893  14.2720  14.3381  14.3948
    14.4496  14.5512  14.7257  14.9307  14.9483  15.0775  15.2195  15.3595
    15.5315  15.8612  16.0107  16.3014

     the Fermi energy is    10.7296 ev

!    total energy              =  -20153.50399051 Ry

     total all-electron energy =   -988623.502358 Ry
     estimated scf accuracy    <       0.00000040 Ry
     smearing contrib. (-TS)   =      -0.02240282 Ry
     internal energy E=F+TS    =  -20153.48158769 Ry

     The total energy is F=E-TS. E is the sum of the following terms:
     one-electron contribution =   -8804.82669179 Ry
     hartree contribution      =    4727.89113445 Ry
     xc contribution           =    -833.62271140 Ry
     ewald contribution        =    2762.42029749 Ry
     one-center paw contrib.   =  -18005.34361644 Ry

     convergence has been achieved in  30 iterations

     negative rho (up, down):  2.507E-03 0.000E+00

     Forces acting on atoms (cartesian axes, Ry/au):

     atom    1 type  1   force =    -0.00002502    0.00003576   -0.00331866
     atom    2 type  1   force =     0.00000668   -0.00003771    0.00305111
     atom    3 type  1   force =     0.00007388   -0.00002543    0.00070868
     atom    4 type  1   force =     0.01454757    0.01173473   -0.03324288
     atom    5 type  1   force =    -0.00002443    0.00003522   -0.00035104
     atom    6 type  1   force =     0.00013140    0.00000735    0.00487076
     atom    7 type  1   force =    -0.00006734   -0.00001393    0.00086361
     atom    8 type  1   force =    -0.01451135   -0.01173109    0.03415380
     atom    9 type  1   force =    -0.00000100   -0.00000305   -0.00050433
     atom   10 type  1   force =     0.00005366    0.00000279   -0.00100752
     atom   11 type  1   force =    -0.00014046   -0.00000183   -0.00525754
     atom   12 type  1   force =    -0.00017084    0.00091370    0.00162166
     atom   13 type  1   force =     0.00011825   -0.00091320   -0.00160365
     atom   14 type  1   force =     0.00012849    0.00000689    0.00487978
     atom   15 type  1   force =    -0.00006240   -0.00001989    0.00087485
     atom   16 type  1   force =    -0.01451053   -0.01173312    0.03415596
     atom   17 type  1   force =     0.00000479   -0.00000132   -0.00050584
     atom   18 type  1   force =     0.00005197    0.00000531   -0.00101582
     atom   19 type  1   force =    -0.00014314    0.00000262   -0.00526470
     atom   20 type  1   force =    -0.00016711    0.00091098    0.00162640
     atom   21 type  1   force =     0.00012083   -0.00091348   -0.00159546
     atom   22 type  1   force =    -0.00001151    0.00004151   -0.00330482
     atom   23 type  1   force =     0.00000583   -0.00004745    0.00305055
     atom   24 type  1   force =     0.00007385   -0.00002423    0.00071478
     atom   25 type  1   force =     0.01454576    0.01173664   -0.03325015
     atom   26 type  1   force =    -0.00002785    0.00003223   -0.00034954

     Total force =     0.078112     Total SCF correction =     0.003889

     Writing all to output data dir ./pwscf.save/
 
     init_run     :     23.56s CPU     24.07s WALL (       1 calls)
     electrons    :   2158.22s CPU   2179.23s WALL (       1 calls)
     forces       :      8.37s CPU      8.46s WALL (       1 calls)

     Called by init_run:
     wfcinit      :     22.94s CPU     23.36s WALL (       1 calls)
     potinit      :      0.34s CPU      0.39s WALL (       1 calls)
     hinit0       :      0.19s CPU      0.22s WALL (       1 calls)

     Called by electrons:
     c_bands      :   1965.99s CPU   1985.01s WALL (      31 calls)
     sum_band     :    182.92s CPU    184.39s WALL (      31 calls)
     v_of_rho     :      0.75s CPU      1.02s WALL (      31 calls)
     newd         :      1.66s CPU      1.86s WALL (      31 calls)
     PAW_pot      :      7.06s CPU      7.10s WALL (      31 calls)
     mix_rho      :      0.11s CPU      0.12s WALL (      31 calls)

     Called by c_bands:
     init_us_2    :      4.91s CPU      4.99s WALL (    3200 calls)
     init_us_2:cp :      4.90s CPU      4.98s WALL (    3200 calls)
     cegterg      :   1895.51s CPU   1913.61s WALL (    1550 calls)

     Called by *egterg:
     cdiaghg      :    213.73s CPU    216.67s WALL (    9546 calls)
     h_psi        :   1117.53s CPU   1127.13s WALL (    9646 calls)
     s_psi        :    118.31s CPU    118.99s WALL (    9646 calls)
     g_psi        :      2.40s CPU      2.41s WALL (    8046 calls)

     Called by h_psi:
     h_psi:calbec :    153.45s CPU    154.14s WALL (    9646 calls)
     vloc_psi     :    838.49s CPU    844.54s WALL (    9646 calls)
     add_vuspsi   :    124.01s CPU    124.48s WALL (    9646 calls)

     General routines
     calbec       :    215.52s CPU    216.47s WALL (   11396 calls)
     fft          :      0.95s CPU      1.31s WALL (     353 calls)
     ffts         :      0.04s CPU      0.05s WALL (      31 calls)
     fftw         :    928.70s CPU    935.34s WALL ( 1620758 calls)
 
     Parallel routines
 
     PWSCF        :  36m38.29s CPU  37m23.47s WALL

 
   This run was terminated on:  23:21:28  15Feb2024            

=------------------------------------------------------------------------------=
   JOB DONE.
=------------------------------------------------------------------------------=
