MPI startup(): Warning: I_MPI_PMI_LIBRARY will be ignored since the hydra process manager was found
MPI startup(): Warning: I_MPI_PMI_LIBRARY will be ignored since the hydra process manager was found
MPI startup(): Warning: I_MPI_PMI_LIBRARY will be ignored since the hydra process manager was found
MPI startup(): Warning: I_MPI_PMI_LIBRARY will be ignored since the hydra process manager was found
MPI startup(): Warning: I_MPI_PMI_LIBRARY will be ignored since the hydra process manager was found
MPI startup(): Warning: I_MPI_PMI_LIBRARY will be ignored since the hydra process manager was found
MPI startup(): Warning: I_MPI_PMI_LIBRARY will be ignored since the hydra process manager was found
MPI startup(): Warning: I_MPI_PMI_LIBRARY will be ignored since the hydra process manager was found
MPI startup(): Warning: I_MPI_PMI_LIBRARY will be ignored since the hydra process manager was found
MPI startup(): Warning: I_MPI_PMI_LIBRARY will be ignored since the hydra process manager was found

     Program PWSCF v.7.0 starts on 15Feb2024 at  7:39:35 

     This program is part of the open-source Quantum ESPRESSO suite
     for quantum simulation of materials; please cite
         "P. Giannozzi et al., J. Phys.:Condens. Matter 21 395502 (2009);
         "P. Giannozzi et al., J. Phys.:Condens. Matter 29 465901 (2017);
         "P. Giannozzi et al., J. Chem. Phys. 152 154105 (2020);
          URL http://www.quantum-espresso.org", 
     in publications or presentations arising from this work. More details at
     http://www.quantum-espresso.org/quote

     Parallel version (MPI), running on    10 processors

     MPI processes distributed on     1 nodes
     R & G space division:  proc/nbgrp/npool/nimage =      10
     115795 MiB available memory on the printing compute node when the environment starts
 
     Reading input from GSF111R_0.3.in
Warning: card &CELL ignored
Warning: card / ignored

     Current dimensions of program PWSCF are:
     Max number of different atomic species (ntypx) = 10
     Max number of k-points (npk) =  40000
     Max angular momentum in pseudopotentials (lmaxx) =  4
     file Au.pbe-n-kjpaw_psl.1.0.0.UPF: wavefunction(s)  6S 5D renormalized
     Found identity + ( -0.5000  0.5000  0.0000) symmetry
     This is a supercell, fractional translations are disabled

     Subspace diagonalization in iterative solution of the eigenvalue problem:
     one sub-group per band group will be used
     scalapack distributed-memory algorithm (size of sub-group:  3*  3 procs)

 
     Parallelization info
     --------------------
     sticks:   dense  smooth     PW     G-vecs:    dense   smooth      PW
     Min          85      85     25                18799    18799    3045
     Max          87      87     26                18816    18816    3065
     Sum         859     859    251               188065   188065   30575
 
     Using Slab Decomposition
 


     bravais-lattice index     =            0
     lattice parameter (alat)  =       9.6360  a.u.
     unit-cell volume          =    3935.2145 (a.u.)^3
     number of atoms/cell      =           26
     number of atomic types    =            1
     number of electrons       =       286.00
     number of Kohn-Sham states=          172
     kinetic-energy cutoff     =      50.0000  Ry
     charge density cutoff     =     200.0000  Ry
     scf convergence threshold =      1.0E-06
     mixing beta               =       0.1000
     number of iterations used =            8  plain     mixing
     energy convergence thresh.=      1.0E-04
     force convergence thresh. =      1.0E-03
     Exchange-correlation= SLA  PW   PBX  PBC
                           (   1   4   3   4   0   0   0)
     nstep                     =           50


     celldm(1)=   9.635999  celldm(2)=   0.000000  celldm(3)=   0.000000
     celldm(4)=   0.000000  celldm(5)=   0.000000  celldm(6)=   0.000000

     crystal axes: (cart. coord. in units of alat)
               a(1) = (   1.000000   0.000000   0.000000 )  
               a(2) = (   0.000000   0.577350   0.000000 )  
               a(3) = (  -0.000005   0.000000   7.617966 )  

     reciprocal axes: (cart. coord. in units 2 pi/alat)
               b(1) = (  1.000000  0.000000  0.000001 )  
               b(2) = (  0.000000  1.732052  0.000000 )  
               b(3) = (  0.000000  0.000000  0.131269 )  


     PseudoPot. # 1 for Au read from file:
     ./Au.pbe-n-kjpaw_psl.1.0.0.UPF
     MD5 check sum: 4db85c736373c707a97ce4c36c2a9d23
     Pseudo is Projector augmented-wave + core cor, Zval = 11.0
     Generated using &quot;atomic&quot; code by A. Dal Corso  v.6.3
     Shape of augmentation charge: PSQ
     Using radial grid of 1279 points,  6 beta functions with: 
                l(1) =   0
                l(2) =   0
                l(3) =   1
                l(4) =   1
                l(5) =   2
                l(6) =   2
     Q(r) pseudized with 0 coefficients 


     atomic species   valence    mass     pseudopotential
        Au            11.00   196.96657     Au( 1.00)

     No symmetry found



   Cartesian axes

     site n.     atom                  positions (alat units)
         1           Au  tau(   1) = (   0.0000000   0.0000000   0.0000000  )
         2           Au  tau(   2) = (   0.9999954   0.1732053   5.6568550  )
         3           Au  tau(   3) = (   0.9999966   0.1732053   4.2426411  )
         4           Au  tau(   4) = (   0.9999976   0.0000000   2.8284275  )
         5           Au  tau(   5) = (   0.9999988   0.0000000   1.4142138  )
         6           Au  tau(   6) = (   0.3333329   0.0000000   0.4714045  )
         7           Au  tau(   7) = (   0.3333296   0.1732053   4.7140455  )
         8           Au  tau(   8) = (   0.3333308   0.1732053   3.2998319  )
         9           Au  tau(   9) = (   0.3333318   0.0000000   1.8856185  )
        10           Au  tau(  10) = (   0.6666659   0.0000000   0.9428093  )
        11           Au  tau(  11) = (   0.6666625   0.1732053   5.1854506  )
        12           Au  tau(  12) = (   0.6666637   0.1732053   3.7712367  )
        13           Au  tau(  13) = (   0.6666649   0.0000000   2.3570234  )
        14           Au  tau(  14) = (   0.8333330   0.2886749   0.4714045  )
        15           Au  tau(  15) = (   0.8333294   0.4618802   4.7140455  )
        16           Au  tau(  16) = (   0.8333306   0.4618802   3.2998319  )
        17           Au  tau(  17) = (   0.8333318   0.2886749   1.8856185  )
        18           Au  tau(  18) = (   0.1666658   0.2886749   0.9428093  )
        19           Au  tau(  19) = (   0.1666624   0.4618802   5.1854506  )
        20           Au  tau(  20) = (   0.1666636   0.4618802   3.7712367  )
        21           Au  tau(  21) = (   0.1666648   0.2886749   2.3570234  )
        22           Au  tau(  22) = (   0.5000001   0.2886749   0.0000000  )
        23           Au  tau(  23) = (   0.4999955   0.4618802   5.6568550  )
        24           Au  tau(  24) = (   0.4999965   0.4618802   4.2426411  )
        25           Au  tau(  25) = (   0.4999977   0.2886749   2.8284275  )
        26           Au  tau(  26) = (   0.4999989   0.2886749   1.4142138  )

     number of k points=    50  Gaussian smearing, width (Ry)=  0.0020
                       cart. coord. in units 2pi/alat
        k(    1) = (   0.0000000   0.0000000   0.0000000), wk =   0.0208333
        k(    2) = (   0.0000000   0.1443376   0.0000000), wk =   0.0416667
        k(    3) = (   0.0000000   0.2886753   0.0000000), wk =   0.0416667
        k(    4) = (   0.0000000   0.4330129   0.0000000), wk =   0.0416667
        k(    5) = (   0.0000000   0.5773506   0.0000000), wk =   0.0416667
        k(    6) = (   0.0000000   0.7216882   0.0000000), wk =   0.0416667
        k(    7) = (   0.0000000  -0.8660259   0.0000000), wk =   0.0208333
        k(    8) = (   0.1250000   0.0000000   0.0000001), wk =   0.0416667
        k(    9) = (   0.1250000   0.1443376   0.0000001), wk =   0.0416667
        k(   10) = (   0.1250000   0.2886753   0.0000001), wk =   0.0416667
        k(   11) = (   0.1250000   0.4330129   0.0000001), wk =   0.0416667
        k(   12) = (   0.1250000   0.5773506   0.0000001), wk =   0.0416667
        k(   13) = (   0.1250000   0.7216882   0.0000001), wk =   0.0416667
        k(   14) = (   0.1250000  -0.8660259   0.0000001), wk =   0.0416667
        k(   15) = (   0.1250000  -0.7216882   0.0000001), wk =   0.0416667
        k(   16) = (   0.1250000  -0.5773506   0.0000001), wk =   0.0416667
        k(   17) = (   0.1250000  -0.4330129   0.0000001), wk =   0.0416667
        k(   18) = (   0.1250000  -0.2886753   0.0000001), wk =   0.0416667
        k(   19) = (   0.1250000  -0.1443376   0.0000001), wk =   0.0416667
        k(   20) = (   0.2500000   0.0000000   0.0000002), wk =   0.0416667
        k(   21) = (   0.2500000   0.1443376   0.0000002), wk =   0.0416667
        k(   22) = (   0.2500000   0.2886753   0.0000002), wk =   0.0416667
        k(   23) = (   0.2500000   0.4330129   0.0000002), wk =   0.0416667
        k(   24) = (   0.2500000   0.5773506   0.0000002), wk =   0.0416667
        k(   25) = (   0.2500000   0.7216882   0.0000002), wk =   0.0416667
        k(   26) = (   0.2500000  -0.8660259   0.0000002), wk =   0.0416667
        k(   27) = (   0.2500000  -0.7216882   0.0000002), wk =   0.0416667
        k(   28) = (   0.2500000  -0.5773506   0.0000002), wk =   0.0416667
        k(   29) = (   0.2500000  -0.4330129   0.0000002), wk =   0.0416667
        k(   30) = (   0.2500000  -0.2886753   0.0000002), wk =   0.0416667
        k(   31) = (   0.2500000  -0.1443376   0.0000002), wk =   0.0416667
        k(   32) = (   0.3750000   0.0000000   0.0000002), wk =   0.0416667
        k(   33) = (   0.3750000   0.1443376   0.0000002), wk =   0.0416667
        k(   34) = (   0.3750000   0.2886753   0.0000002), wk =   0.0416667
        k(   35) = (   0.3750000   0.4330129   0.0000002), wk =   0.0416667
        k(   36) = (   0.3750000   0.5773506   0.0000002), wk =   0.0416667
        k(   37) = (   0.3750000   0.7216882   0.0000002), wk =   0.0416667
        k(   38) = (   0.3750000  -0.8660259   0.0000002), wk =   0.0416667
        k(   39) = (   0.3750000  -0.7216882   0.0000002), wk =   0.0416667
        k(   40) = (   0.3750000  -0.5773506   0.0000002), wk =   0.0416667
        k(   41) = (   0.3750000  -0.4330129   0.0000002), wk =   0.0416667
        k(   42) = (   0.3750000  -0.2886753   0.0000002), wk =   0.0416667
        k(   43) = (   0.3750000  -0.1443376   0.0000002), wk =   0.0416667
        k(   44) = (  -0.5000000   0.0000000  -0.0000003), wk =   0.0208333
        k(   45) = (  -0.5000000   0.1443376  -0.0000003), wk =   0.0416667
        k(   46) = (  -0.5000000   0.2886753  -0.0000003), wk =   0.0416667
        k(   47) = (  -0.5000000   0.4330129  -0.0000003), wk =   0.0416667
        k(   48) = (  -0.5000000   0.5773506  -0.0000003), wk =   0.0416667
        k(   49) = (  -0.5000000   0.7216882  -0.0000003), wk =   0.0416667
        k(   50) = (  -0.5000000  -0.8660259  -0.0000003), wk =   0.0208333

     Dense  grid:   188065 G-vectors     FFT dimensions: (  45,  25, 360)

     Estimated max dynamical RAM per process >     418.32 MB

     Estimated total dynamical RAM >       4.09 GB

     Initial potential from superposition of free atoms

     starting charge     285.9971, renormalised to     286.0000

     negative rho (up, down):  2.643E-03 0.000E+00
     Starting wfcs are  234 randomized atomic wfcs
     Checking if some PAW data can be deallocated... 

     total cpu time spent up to now is       27.6 secs

     Self-consistent Calculation

     iteration #  1     ecut=    50.00 Ry     beta= 0.10
     Davidson diagonalization with overlap
     ethr =  1.00E-02,  avg # of iterations =  5.0

     Threshold (ethr) on eigenvalues was too large:
     Diagonalizing with lowered threshold

     Davidson diagonalization with overlap
     ethr =  3.92E-04,  avg # of iterations =  4.8

     negative rho (up, down):  2.507E-03 0.000E+00

     total cpu time spent up to now is      175.5 secs

     total energy              =  -20153.64694090 Ry
     estimated scf accuracy    <       1.43434144 Ry

     iteration #  2     ecut=    50.00 Ry     beta= 0.10
     Davidson diagonalization with overlap
     ethr =  5.02E-04,  avg # of iterations =  5.5

     negative rho (up, down):  2.507E-03 0.000E+00

     total cpu time spent up to now is      235.6 secs

     total energy              =  -20153.55342307 Ry
     estimated scf accuracy    <      11.03400619 Ry

     iteration #  3     ecut=    50.00 Ry     beta= 0.10
     Davidson diagonalization with overlap
     ethr =  5.02E-04,  avg # of iterations =  1.7

     negative rho (up, down):  2.445E-03 0.000E+00

     total cpu time spent up to now is      285.7 secs

     total energy              =  -20153.55753744 Ry
     estimated scf accuracy    <       1.14863697 Ry

     iteration #  4     ecut=    50.00 Ry     beta= 0.10
     Davidson diagonalization with overlap
     ethr =  4.02E-04,  avg # of iterations =  1.0

     negative rho (up, down):  2.385E-03 0.000E+00

     total cpu time spent up to now is      331.9 secs

     total energy              =  -20153.42869152 Ry
     estimated scf accuracy    <       1.49796562 Ry

     iteration #  5     ecut=    50.00 Ry     beta= 0.10
     Davidson diagonalization with overlap
     ethr =  4.02E-04,  avg # of iterations =  4.6

     negative rho (up, down):  2.283E-03 0.000E+00

     total cpu time spent up to now is      390.0 secs

     total energy              =  -20153.28768301 Ry
     estimated scf accuracy    <      14.00898521 Ry

     iteration #  6     ecut=    50.00 Ry     beta= 0.10
     Davidson diagonalization with overlap
     ethr =  4.02E-04,  avg # of iterations =  1.4

     negative rho (up, down):  2.316E-03 0.000E+00

     total cpu time spent up to now is      438.9 secs

     total energy              =  -20153.46050112 Ry
     estimated scf accuracy    <       0.06394626 Ry

     iteration #  7     ecut=    50.00 Ry     beta= 0.10
     Davidson diagonalization with overlap
     c_bands:  1 eigenvalues not converged
     c_bands:  3 eigenvalues not converged
     c_bands:  1 eigenvalues not converged
     c_bands:  1 eigenvalues not converged
     c_bands:  1 eigenvalues not converged
     ethr =  2.24E-05,  avg # of iterations = 14.0

     negative rho (up, down):  2.334E-03 0.000E+00

     total cpu time spent up to now is      563.5 secs

     total energy              =  -20153.49367767 Ry
     estimated scf accuracy    <       0.04315203 Ry

     iteration #  8     ecut=    50.00 Ry     beta= 0.10
     Davidson diagonalization with overlap
     ethr =  1.51E-05,  avg # of iterations =  2.3

     negative rho (up, down):  2.327E-03 0.000E+00

     total cpu time spent up to now is      618.3 secs

     total energy              =  -20153.49690120 Ry
     estimated scf accuracy    <       0.02381279 Ry

     iteration #  9     ecut=    50.00 Ry     beta= 0.10
     Davidson diagonalization with overlap
     ethr =  8.33E-06,  avg # of iterations =  2.1

     negative rho (up, down):  2.478E-03 0.000E+00

     total cpu time spent up to now is      670.6 secs

     total energy              =  -20153.49727057 Ry
     estimated scf accuracy    <       0.02786772 Ry

     iteration # 10     ecut=    50.00 Ry     beta= 0.10
     Davidson diagonalization with overlap
     ethr =  8.33E-06,  avg # of iterations =  5.4

     negative rho (up, down):  2.488E-03 0.000E+00

     total cpu time spent up to now is      729.6 secs

     total energy              =  -20153.49347262 Ry
     estimated scf accuracy    <       0.01534684 Ry

     iteration # 11     ecut=    50.00 Ry     beta= 0.10
     Davidson diagonalization with overlap
     ethr =  5.37E-06,  avg # of iterations =  1.9

     negative rho (up, down):  2.505E-03 0.000E+00

     total cpu time spent up to now is      780.9 secs

     total energy              =  -20153.49173294 Ry
     estimated scf accuracy    <       0.00632926 Ry

     iteration # 12     ecut=    50.00 Ry     beta= 0.10
     Davidson diagonalization with overlap
     ethr =  2.21E-06,  avg # of iterations =  5.3

     negative rho (up, down):  2.516E-03 0.000E+00

     total cpu time spent up to now is      842.3 secs

     total energy              =  -20153.49220038 Ry
     estimated scf accuracy    <       0.00249272 Ry

     iteration # 13     ecut=    50.00 Ry     beta= 0.10
     Davidson diagonalization with overlap
     ethr =  8.72E-07,  avg # of iterations =  1.5

     negative rho (up, down):  2.536E-03 0.000E+00

     total cpu time spent up to now is      891.9 secs

     total energy              =  -20153.49229672 Ry
     estimated scf accuracy    <       0.00240801 Ry

     iteration # 14     ecut=    50.00 Ry     beta= 0.10
     Davidson diagonalization with overlap
     ethr =  8.42E-07,  avg # of iterations =  1.1

     negative rho (up, down):  2.530E-03 0.000E+00

     total cpu time spent up to now is      939.0 secs

     total energy              =  -20153.49235545 Ry
     estimated scf accuracy    <       0.00015317 Ry

     iteration # 15     ecut=    50.00 Ry     beta= 0.10
     Davidson diagonalization with overlap
     ethr =  5.36E-08,  avg # of iterations =  7.3

     negative rho (up, down):  2.530E-03 0.000E+00

     total cpu time spent up to now is     1087.6 secs

     total energy              =  -20153.49257385 Ry
     estimated scf accuracy    <       0.00015596 Ry

     iteration # 16     ecut=    50.00 Ry     beta= 0.10
     Davidson diagonalization with overlap
     ethr =  5.36E-08,  avg # of iterations =  2.0

     negative rho (up, down):  2.525E-03 0.000E+00

     total cpu time spent up to now is     1137.3 secs

     total energy              =  -20153.49255474 Ry
     estimated scf accuracy    <       0.00020174 Ry

     iteration # 17     ecut=    50.00 Ry     beta= 0.10
     Davidson diagonalization with overlap
     ethr =  5.36E-08,  avg # of iterations =  2.0

     negative rho (up, down):  2.524E-03 0.000E+00

     total cpu time spent up to now is     1193.8 secs

     total energy              =  -20153.49257421 Ry
     estimated scf accuracy    <       0.00002061 Ry

     iteration # 18     ecut=    50.00 Ry     beta= 0.10
     Davidson diagonalization with overlap
     ethr =  7.21E-09,  avg # of iterations =  2.2

     negative rho (up, down):  2.527E-03 0.000E+00

     total cpu time spent up to now is     1255.6 secs

     total energy              =  -20153.49257366 Ry
     estimated scf accuracy    <       0.00001152 Ry

     iteration # 19     ecut=    50.00 Ry     beta= 0.10
     Davidson diagonalization with overlap
     ethr =  4.03E-09,  avg # of iterations =  2.8

     negative rho (up, down):  2.528E-03 0.000E+00

     total cpu time spent up to now is     1327.0 secs

     total energy              =  -20153.49257836 Ry
     estimated scf accuracy    <       0.00000403 Ry

     iteration # 20     ecut=    50.00 Ry     beta= 0.10
     Davidson diagonalization with overlap
     ethr =  1.41E-09,  avg # of iterations =  2.0

     negative rho (up, down):  2.528E-03 0.000E+00

     total cpu time spent up to now is     1383.7 secs

     total energy              =  -20153.49257844 Ry
     estimated scf accuracy    <       0.00000349 Ry

     iteration # 21     ecut=    50.00 Ry     beta= 0.10
     Davidson diagonalization with overlap
     ethr =  1.22E-09,  avg # of iterations =  1.0

     negative rho (up, down):  2.527E-03 0.000E+00

     total cpu time spent up to now is     1429.9 secs

     total energy              =  -20153.49257775 Ry
     estimated scf accuracy    <       0.00000164 Ry

     iteration # 22     ecut=    50.00 Ry     beta= 0.10
     Davidson diagonalization with overlap
     ethr =  5.75E-10,  avg # of iterations =  3.9

     negative rho (up, down):  2.529E-03 0.000E+00

     total cpu time spent up to now is     1506.8 secs

     End of self-consistent calculation

          k = 0.0000 0.0000 0.0000 ( 23605 PWs)   bands (ev):

     1.5110   1.6519   1.8910   2.1937   2.5571   2.9484   3.3250   3.6283
     3.8200   3.8912   3.9408   3.9636   4.0672   4.0745   4.0769   4.2078
     4.2282   4.2861   4.4091   4.4329   4.5028   4.5488   4.5665   4.6038
     4.6474   4.6882   4.8161   4.8980   4.9901   5.0096   5.1737   5.4314
     5.4814   5.6058   5.7533   5.9715   6.1400   6.1472   6.1768   6.2291
     6.2490   6.2705   6.3115   6.3197   6.3212   6.3323   6.3405   6.3546
     6.3549   6.3800   6.3874   6.3929   6.4061   6.4070   6.4292   6.4362
     6.4404   6.4565   6.4758   6.4844   6.5130   6.5251   6.5368   6.5464
     6.5635   6.5649   6.5772   6.5925   6.6228   6.6588   6.6869   6.6956
     6.7597   6.7681   6.8726   6.8729   6.8734   6.8742   6.8744   7.0420
     7.0779   7.1468   7.1862   7.2937   7.4679   7.5190   7.5293   7.5631
     7.6407   7.6834   7.6843   7.6974   7.7001   7.7255   7.7276   7.7695
     7.7898   7.8244   7.8858   7.8906   7.8999   7.9387   8.0200   8.0282
     8.0296   8.1094   8.1837   8.1892   8.3413   8.3532   8.3833   8.3914
     8.5083   8.5122   8.5297   8.5562   8.5700   8.6329   8.6988   8.7050
     8.7119   8.7295   8.7619   8.7634   8.7783   8.7970   8.8062   8.8139
     8.8241   8.8381   8.8472   8.8646   8.8866   8.9052   8.9426   8.9673
     9.0203   9.0388   9.1230   9.2223   9.2234   9.4168  10.2088  10.5116
    10.5690  10.6307  10.9370  11.2543  11.4737  11.6295  11.7316  11.7933
    11.8574  11.8821  11.9338  12.1229  12.1250  13.5289  13.7346  13.9853
    13.9946  14.2917  14.5471  14.8679  14.8905  15.0533  15.3502  15.9027
    16.2485  16.3983  16.4538  16.4720

          k = 0.0000 0.1443 0.0000 ( 23551 PWs)   bands (ev):

     1.6627   1.8033   2.0399   2.3411   2.7026   3.0933   3.4699   3.7720
     3.9579   4.0221   4.0587   4.0875   4.1898   4.2101   4.2125   4.2984
     4.3457   4.3901   4.5169   4.5589   4.6062   4.6440   4.6603   4.7393
     4.7760   4.7993   4.9014   4.9737   5.1156   5.1326   5.2291   5.4625
     5.5037   5.5894   5.7606   5.9362   6.0482   6.0913   6.1182   6.1313
     6.1498   6.1864   6.2534   6.2561   6.2698   6.2832   6.3265   6.3287
     6.3613   6.3726   6.4009   6.4148   6.4235   6.4416   6.4493   6.4548
     6.4638   6.4754   6.4927   6.5111   6.5260   6.5392   6.5613   6.5787
     6.5955   6.6081   6.6251   6.6355   6.6533   6.6613   6.6801   6.7168
     6.7239   6.7518   6.8220   6.8405   6.8452   6.8793   6.9526   6.9545
     6.9581   6.9969   7.1767   7.2405   7.2849   7.3455   7.4568   7.4870
     7.4922   7.5714   7.5790   7.6197   7.6233   7.6683   7.6960   7.7280
     7.7616   7.7700   7.7841   7.8144   7.8399   7.9203   7.9482   7.9605
     8.0332   8.0575   8.0933   8.1420   8.1513   8.2488   8.2513   8.3079
     8.3142   8.4174   8.4643   8.4719   8.4818   8.5025   8.5333   8.5748
     8.6144   8.6159   8.6199   8.7015   8.7106   8.7237   8.7318   8.7439
     8.7548   8.7710   8.7718   8.8034   8.8524   8.8703   8.8978   8.9107
     8.9242   9.0402   9.0523   9.1403   9.4255  10.0121  10.8577  10.9223
    11.0761  11.1045  11.3201  11.5330  11.6849  11.8051  11.9061  11.9976
    12.1108  12.2324  12.3707  12.5067  12.5330  13.5301  13.7741  14.0262
    14.0592  14.3842  14.6500  14.9299  15.0237  15.1636  15.5072  16.0583
    16.1756  16.4896  16.5408  16.6216

          k = 0.0000 0.2887 0.0000 ( 23495 PWs)   bands (ev):

     2.1023   2.2411   2.4673   2.7614   3.1124   3.4967   3.8707   4.1683
     4.3359   4.3695   4.3805   4.4262   4.5071   4.5234   4.5835   4.5858
     4.6096   4.6494   4.7542   4.8666   4.8993   4.9255   4.9463   5.0535
     5.0835   5.1096   5.1755   5.2206   5.3696   5.4177   5.4576   5.5258
     5.5889   5.6154   5.7566   5.8118   5.8311   5.8867   5.9165   5.9631
     5.9870   5.9881   6.0467   6.0678   6.0823   6.0879   6.1350   6.1443
     6.1891   6.2062   6.2141   6.2658   6.3751   6.3909   6.3991   6.4676
     6.4892   6.5035   6.5698   6.6005   6.6076   6.6192   6.6204   6.6478
     6.6673   6.6853   6.6895   6.6987   6.7496   6.7523   6.7820   6.8005
     6.8018   6.8244   6.8496   6.8793   6.8864   6.9025   6.9366   6.9727
     6.9816   7.0063   7.0657   7.1033   7.1367   7.1820   7.2132   7.2214
     7.2358   7.3057   7.3410   7.3740   7.4313   7.4457   7.4658   7.4754
     7.5335   7.5861   7.6226   7.6735   7.7160   7.7709   7.7881   7.8047
     7.8672   7.9178   7.9344   7.9482   7.9770   7.9785   8.0573   8.0793
     8.1198   8.1851   8.2231   8.2356   8.3181   8.3268   8.3392   8.4688
     8.4880   8.5059   8.5317   8.5575   8.5767   8.6032   8.6159   8.6548
     8.6893   8.7112   8.7208   8.7209   8.7974   8.7996   8.8542   8.9358
     8.9485   9.0665   9.1479   9.5323  10.1916  10.8489  11.7558  11.9689
    11.9882  12.0085  12.0548  12.1310  12.1408  12.2298  12.3564  12.5194
    12.7074  12.9357  13.1412  13.3796  13.5777  13.6146  14.0092  14.1689
    14.3748  14.7065  14.9632  15.1475  15.4235  15.4970  15.7584  16.0523
    16.1901  16.6764  16.7719  16.8258

          k = 0.0000 0.4330 0.0000 ( 23423 PWs)   bands (ev):

     2.7792   2.9118   3.1096   3.3799   3.6941   4.0479   4.4018   4.6932
     4.7126   4.7767   4.8418   4.8556   4.8672   4.8818   4.9280   4.9719
     5.0018   5.0754   5.0775   5.1151   5.1728   5.2321   5.3397   5.3492
     5.3729   5.4107   5.4272   5.4575   5.4985   5.5550   5.5627   5.6069
     5.6503   5.6797   5.6931   5.7400   5.7551   5.7861   5.7923   5.7969
     5.8102   5.8106   5.8360   5.8435   5.9034   5.9110   5.9143   5.9418
     5.9944   6.0485   6.0672   6.0911   6.1267   6.1977   6.2611   6.2809
     6.3182   6.3351   6.4260   6.4635   6.4932   6.5432   6.5519   6.6099
     6.6114   6.6272   6.6796   6.6929   6.7072   6.7335   6.7359   6.7511
     6.7658   6.7952   6.8277   6.8775   6.9142   6.9612   7.0270   7.0290
     7.1254   7.1482   7.1820   7.1953   7.1992   7.2775   7.2900   7.3210
     7.3635   7.3880   7.4039   7.4060   7.4061   7.4313   7.4470   7.4649
     7.5063   7.5088   7.5293   7.5535   7.6010   7.6223   7.6672   7.7017
     7.7670   7.8290   7.8365   7.8425   7.9136   7.9225   7.9740   7.9901
     8.0056   8.0608   8.0836   8.1241   8.1894   8.2782   8.3396   8.4088
     8.4219   8.4476   8.4917   8.4995   8.5332   8.5711   8.6052   8.6193
     8.6604   8.6617   8.6746   8.7354   8.7786   8.7885   8.8078   8.8432
     8.9542   9.1974   9.6839  10.1892  10.9291  11.6435  12.5105  12.5434
    12.6038  12.6408  12.6527  12.8341  12.9083  13.1125  13.2094  13.4039
    13.4708  13.5486  13.8369  13.9987  14.2563  14.3481  14.5796  14.6008
    14.8503  15.2391  15.3314  15.5975  15.6110  15.6936  15.9566  16.0616
    16.1839  16.5062  16.7251  16.9433

          k = 0.0000 0.5774 0.0000 ( 23470 PWs)   bands (ev):

     3.5943   3.7121   3.8420   4.0485   4.2622   4.5158   4.7769   4.8100
     5.0211   5.0393   5.0616   5.1063   5.1124   5.1158   5.1808   5.2294
     5.2393   5.2544   5.2848   5.3032   5.3577   5.3647   5.3735   5.3900
     5.4188   5.4219   5.4438   5.4986   5.5044   5.5130   5.5477   5.5517
     5.5765   5.5822   5.6423   5.6529   5.6740   5.6820   5.7014   5.7137
     5.7695   5.7932   5.7949   5.7993   5.8113   5.8607   5.8738   5.9628
     5.9669   5.9700   6.0431   6.0687   6.1295   6.1907   6.2248   6.2563
     6.3285   6.3356   6.3751   6.3931   6.4011   6.4068   6.4248   6.4454
     6.4637   6.4763   6.5226   6.5467   6.5840   6.5876   6.5889   6.5916
     6.6635   6.6674   6.7993   6.9709   7.0008   7.0526   7.0537   7.0571
     7.0582   7.0593   7.1828   7.2107   7.2461   7.3151   7.3673   7.4491
     7.4714   7.5196   7.5257   7.5372   7.5466   7.5509   7.5597   7.5703
     7.5913   7.6082   7.6453   7.6969   7.8158   7.8258   7.8337   7.8345
     7.8477   7.9581   8.0354   8.0758   8.1885   8.2148   8.2564   8.2842
     8.3740   8.4107   8.4246   8.4402   8.4562   8.4623   8.4960   8.5031
     8.5096   8.5211   8.5453   8.5623   8.6017   8.6034   8.6297   8.6391
     8.6467   8.6814   8.6855   8.6872   8.7014   8.7090   8.8582   8.8695
     9.2617   9.7439  10.3318  10.9281  11.7060  12.4338  12.8846  13.1505
    13.2132  13.2634  13.2800  13.2957  13.3351  13.4119  13.5399  13.6216
    13.7274  13.8333  13.8728  14.0870  14.7666  14.9030  14.9372  15.0498
    15.3052  15.3267  15.4006  15.5615  15.8634  15.8808  16.1517  16.3237
    16.4105  16.5625  16.8569  16.9195

          k = 0.0000 0.7217 0.0000 ( 23446 PWs)   bands (ev):

     4.3303   4.4619   4.4867   4.5551   4.6268   4.7257   4.7305   4.8561
     4.8835   4.9610   4.9631   4.9776   5.0437   5.0744   5.1383   5.1869
     5.1939   5.2349   5.2367   5.2581   5.2783   5.2862   5.3614   5.3639
     5.4227   5.4517   5.4846   5.5170   5.5173   5.5658   5.5895   5.5986
     5.6124   5.6294   5.6409   5.6681   5.6953   5.7181   5.7332   5.7413
     5.7732   5.7791   5.7841   5.8007   5.8171   5.8598   5.8836   5.9242
     6.0020   6.0385   6.1132   6.1230   6.1564   6.1993   6.2122   6.2496
     6.2591   6.3149   6.3270   6.3466   6.3541   6.3579   6.3747   6.3989
     6.4126   6.4289   6.5012   6.5919   6.6146   6.6214   6.6607   6.7142
     6.7153   6.7602   6.9037   6.9748   6.9765   7.0156   7.0194   7.1305
     7.1766   7.1779   7.1840   7.2356   7.2522   7.2897   7.3732   7.3821
     7.3997   7.4352   7.4734   7.5207   7.5399   7.5750   7.6225   7.6420
     7.6563   7.6588   7.7225   7.7934   7.8340   7.8559   7.8845   7.8881
     7.9827   8.0644   8.1146   8.1324   8.2458   8.3155   8.3476   8.5129
     8.5256   8.5895   8.6789   8.6832   8.7014   8.7020   8.7150   8.7250
     8.7332   8.7501   8.7685   8.7746   8.8755   8.8794   8.9039   8.9077
     8.9167   8.9611   9.3224   9.3488   9.3695   9.4416   9.5615   9.8063
    10.2010  10.7115  11.3263  11.7200  11.8048  11.9564  12.0100  12.2625
    12.5863  12.7151  12.9908  13.4086  13.4097  13.7605  13.9951  14.0672
    14.1573  14.1769  14.3237  14.4225  14.6817  14.7742  14.9752  15.1568
    15.5159  15.6508  15.9438  16.1155  16.1712  16.4570  16.4663  16.6085
    16.7012  16.8194  17.0504  17.1219

          k = 0.0000-0.8660 0.0000 ( 23420 PWs)   bands (ev):

     4.6155   4.6155   4.7547   4.7547   4.8217   4.8218   4.8278   4.8279
     4.8977   4.8978   4.9307   4.9307   5.0268   5.0268   5.0514   5.0515
     5.1174   5.1174   5.1845   5.1846   5.2497   5.2498   5.2535   5.2535
     5.4606   5.4606   5.4880   5.4880   5.5228   5.5228   5.5397   5.5397
     5.6196   5.6197   5.6751   5.6751   5.7386   5.7386   5.7570   5.7571
     5.8494   5.8494   5.8917   5.8918   5.9251   5.9251   5.9956   5.9957
     6.0061   6.0061   6.0659   6.0659   6.1088   6.1088   6.1281   6.1281
     6.2254   6.2254   6.2934   6.2935   6.3443   6.3443   6.4367   6.4367
     6.5490   6.5491   6.5838   6.5839   6.6075   6.6075   6.7477   6.7477
     6.9858   6.9859   6.9879   6.9879   7.0307   7.0307   7.0339   7.0341
     7.0778   7.0779   7.2444   7.2444   7.2968   7.2968   7.3390   7.3391
     7.3808   7.3809   7.4462   7.4463   7.5396   7.5396   7.6550   7.6551
     7.6782   7.6782   7.7981   7.7982   7.8525   7.8526   7.8890   7.8890
     7.9736   7.9736   8.0433   8.0433   8.1968   8.1969   8.4309   8.4309
     8.5959   8.5960   8.7678   8.7679   8.8210   8.8211   8.8409   8.8410
     8.8722   8.8723   8.9105   8.9105   9.0139   9.0140   9.0470   9.0471
     9.0755   9.0756  10.4209  10.4209  10.4605  10.4605  10.5672  10.5673
    10.7166  10.7167  10.9480  10.9480  11.2810  11.2810  11.7054  11.7054
    12.2096  12.2096  12.7944  12.7945  13.3806  13.3806  14.0417  14.0417
    14.5863  14.5863  15.0372  15.0372  15.7516  15.7516  15.7696  15.7696
    15.8768  15.8768  15.9567  15.9568  16.1910  16.1911  16.2596  16.2597
    16.4505  16.4507  16.6037  16.6038

          k = 0.1250 0.0000 0.0000 ( 23563 PWs)   bands (ev):

     1.6255   1.7658   2.0033   2.3046   2.6668   3.0577   3.4346   3.7369
     3.9248   3.9376   3.9898   4.0612   4.0637   4.1766   4.1791   4.2242
     4.2514   4.3243   4.4220   4.4461   4.5269   4.5756   4.6012   4.6191
     4.6739   4.7351   4.8556   4.9390   5.0168   5.0420   5.2092   5.4588
     5.4963   5.5965   5.7651   5.9825   6.0729   6.1444   6.1560   6.1724
     6.2103   6.2133   6.2632   6.2893   6.3024   6.3380   6.3389   6.3467
     6.3630   6.3744   6.4086   6.4142   6.4194   6.4252   6.4408   6.4512
     6.4579   6.4718   6.4802   6.5075   6.5331   6.5516   6.5538   6.5676
     6.5886   6.5964   6.6194   6.6291   6.6330   6.6662   6.6786   6.7284
     6.7451   6.7730   6.8334   6.8537   6.8698   6.9302   6.9356   6.9372
     7.0237   7.0629   7.1231   7.2935   7.3759   7.3844   7.4455   7.5237
     7.5400   7.5890   7.5968   7.5996   7.6472   7.6710   7.7438   7.7527
     7.8120   7.8185   7.8189   7.8742   7.8879   7.9190   7.9430   7.9496
     8.0510   8.0810   8.1079   8.1843   8.2440   8.2536   8.3080   8.3557
     8.4018   8.4654   8.4799   8.4812   8.5613   8.5885   8.5973   8.6460
     8.6642   8.6781   8.6889   8.6984   8.7215   8.7368   8.7560   8.7686
     8.7805   8.7806   8.8084   8.8276   8.8501   8.8507   8.8737   8.9398
     8.9700   8.9966   9.1248   9.1259   9.2997   9.3476   9.6706   9.9331
     9.9476  10.1344  10.2096  10.3338  10.6933  10.8297  11.0001  11.2756
    11.9608  12.6669  13.2837  13.4586  13.5327  13.6635  13.9237  14.0174
    14.2120  14.5225  14.8283  14.9139  15.1358  15.2158  15.5964  15.9165
    16.3807  16.4641  16.5310  16.9316

          k = 0.1250 0.1443 0.0000 ( 23537 PWs)   bands (ev):

     1.7766   1.9151   2.1506   2.4492   2.8093   3.1990   3.5760   3.8769
     4.0593   4.0597   4.1154   4.1885   4.1914   4.3080   4.3105   4.3389
     4.3491   4.4293   4.5420   4.5621   4.6406   4.6760   4.7017   4.7427
     4.7930   4.8362   4.9456   5.0131   5.1400   5.1659   5.2647   5.4885
     5.5272   5.5445   5.7488   5.9269   5.9975   6.0312   6.0929   6.0953
     6.1233   6.1771   6.2064   6.2186   6.2440   6.2683   6.2833   6.3082
     6.3140   6.3480   6.3851   6.4202   6.4523   6.4648   6.4694   6.4847
     6.4943   6.5021   6.5094   6.5177   6.5343   6.5727   6.5849   6.6056
     6.6132   6.6297   6.6507   6.6639   6.6827   6.6890   6.6998   6.7187
     6.7400   6.7592   6.7782   6.8218   6.8322   6.8840   6.9182   6.9363
     7.0166   7.0189   7.1290   7.1702   7.2035   7.2635   7.3986   7.4290
     7.4545   7.5069   7.5334   7.5543   7.5638   7.5667   7.6081   7.6308
     7.7062   7.7279   7.7487   7.8063   7.8407   7.8604   7.8633   7.9278
     7.9474   7.9833   8.0445   8.0760   8.1484   8.1607   8.2077   8.2101
     8.3128   8.3301   8.3518   8.3541   8.4133   8.4574   8.4888   8.5231
     8.5380   8.5482   8.5629   8.5817   8.6305   8.6332   8.6642   8.7069
     8.7255   8.7471   8.7555   8.7735   8.7861   8.7977   8.8478   8.8905
     9.0120   9.0366   9.1327   9.1440   9.6725   9.9823  10.1425  10.3102
    10.3377  10.4442  10.5695  10.7899  11.1677  11.1711  11.4124  11.6977
    12.3295  12.9969  13.4783  13.5576  13.6461  13.7355  14.0176  14.0490
    14.3198  14.6308  14.9311  14.9804  15.2445  15.3370  15.7276  15.9715
    16.4281  16.5493  16.6341  16.9841

          k = 0.1250 0.2887 0.0000 ( 23467 PWs)   bands (ev):

     2.2104   2.3442   2.5694   2.8574   3.2048   3.5844   3.9555   4.2476
     4.3813   4.4092   4.4481   4.5186   4.5340   4.5556   4.6412   4.6539
     4.6601   4.6625   4.7770   4.8644   4.9299   4.9538   4.9841   5.0717
     5.0834   5.1447   5.1849   5.2499   5.3636   5.4172   5.4316   5.4823
     5.5944   5.6408   5.7391   5.7591   5.8164   5.8633   5.8653   5.9776
     5.9861   6.0215   6.0311   6.0431   6.0629   6.0816   6.0878   6.1316
     6.1566   6.2026   6.2234   6.2311   6.3213   6.3266   6.4527   6.4646
     6.4876   6.5288   6.5787   6.5958   6.6117   6.6232   6.6380   6.6480
     6.6499   6.6757   6.7268   6.7402   6.7773   6.7854   6.7930   6.8029
     6.8357   6.8552   6.8688   6.8907   6.8944   6.9057   6.9269   6.9784
     6.9959   7.0235   7.0292   7.0434   7.0796   7.0910   7.1449   7.1912
     7.2018   7.2285   7.2731   7.3154   7.3610   7.3847   7.4118   7.4826
     7.5211   7.5411   7.5760   7.6144   7.6813   7.6988   7.7414   7.7810
     7.7952   7.7983   7.8565   7.8676   7.9364   7.9656   7.9765   8.0582
     8.1030   8.1214   8.1429   8.2135   8.2303   8.2372   8.2505   8.2857
     8.3397   8.4080   8.4282   8.5001   8.5586   8.6318   8.6402   8.6977
     8.7497   8.7522   8.7807   8.7894   8.8224   8.8273   8.8798   8.9902
     9.0200   9.1614   9.2076   9.6760  10.3300  10.7532  10.8183  10.9403
    11.0384  11.0989  11.3305  11.6559  11.9120  12.0792  12.3684  12.5945
    13.1907  13.5948  13.7140  13.8299  13.9373  14.1767  14.2048  14.4412
    14.6815  14.9715  15.2094  15.2627  15.5779  15.6399  16.0005  16.1154
    16.4554  16.8188  16.9569  16.9815

          k = 0.1250 0.4330 0.0000 ( 23435 PWs)   bands (ev):

     2.8707   2.9910   3.1881   3.4432   3.7465   4.0812   4.4126   4.6665
     4.7423   4.7953   4.8049   4.8572   4.8613   4.8873   4.9409   4.9734
     4.9942   5.0898   5.0917   5.0988   5.1260   5.1823   5.2431   5.2934
     5.3514   5.3613   5.4047   5.4353   5.4637   5.5297   5.5704   5.6082
     5.6580   5.6776   5.6974   5.7303   5.7551   5.7788   5.7981   5.8151
     5.8407   5.8418   5.8625   5.8862   5.9092   5.9433   5.9530   5.9612
     6.0182   6.0390   6.0615   6.1304   6.1681   6.2447   6.2813   6.3209
     6.3806   6.4204   6.4550   6.4771   6.5020   6.5214   6.5533   6.5843
     6.5869   6.6397   6.6448   6.6521   6.6724   6.7065   6.7295   6.7427
     6.7465   6.8338   6.8787   6.8992   6.9541   6.9652   6.9862   7.0513
     7.1296   7.1399   7.1811   7.2061   7.2071   7.2277   7.2632   7.3011
     7.3186   7.3265   7.3418   7.3682   7.4148   7.4337   7.4563   7.4871
     7.4971   7.5311   7.5369   7.5705   7.5876   7.6243   7.6352   7.6708
     7.6870   7.7418   7.8066   7.8084   7.8529   7.9217   7.9238   7.9352
     7.9564   8.0460   8.0852   8.1254   8.1506   8.2013   8.2152   8.2895
     8.3787   8.4261   8.5022   8.5112   8.5939   8.6022   8.6779   8.7169
     8.7284   8.7432   8.7492   8.7740   8.8106   8.8423   8.9026   8.9422
     9.0947   9.2160   9.7344  10.2894  11.0169  11.3836  11.4603  11.6386
    11.7631  11.8681  12.1760  12.5657  12.6848  13.0119  13.4767  13.5705
    13.7689  13.9163  14.2048  14.3007  14.5163  14.6382  14.6772  14.8425
    15.1581  15.3630  15.5744  15.6457  15.6710  15.8746  16.1459  16.1616
    16.3639  16.6143  16.8059  17.2808

          k = 0.1250 0.5774 0.0000 ( 23447 PWs)   bands (ev):

     3.6409   3.7268   3.8687   4.0474   4.2460   4.4636   4.6820   4.8093
     4.8622   4.8724   4.9474   4.9757   4.9785   5.0151   5.0539   5.0646
     5.1105   5.1264   5.1811   5.2035   5.2316   5.2351   5.2749   5.3295
     5.3929   5.4086   5.4211   5.4564   5.4570   5.4876   5.5364   5.5414
     5.5934   5.6066   5.6598   5.6745   5.7040   5.7360   5.7465   5.7574
     5.7713   5.7846   5.7945   5.8728   5.8873   5.9145   5.9330   5.9785
     6.0170   6.0564   6.0702   6.1054   6.1533   6.1829   6.2126   6.2413
     6.3294   6.3756   6.3976   6.4584   6.5052   6.5423   6.5452   6.5668
     6.5923   6.6024   6.6105   6.6187   6.6481   6.6766   6.7176   6.7345
     6.7568   6.7641   6.8692   6.9082   6.9546   6.9656   6.9688   7.0987
     7.1748   7.2144   7.2572   7.2635   7.3069   7.3254   7.3689   7.4215
     7.4448   7.4703   7.4890   7.5403   7.5493   7.5568   7.6113   7.6323
     7.6685   7.6970   7.7232   7.7415   7.7923   7.8022   7.9033   7.9114
     7.9214   7.9910   8.0679   8.1281   8.1907   8.2007   8.2290   8.2300
     8.3388   8.3653   8.3947   8.4194   8.4347   8.4612   8.4879   8.4948
     8.5120   8.5502   8.5676   8.6005   8.6127   8.6278   8.6399   8.6649
     8.7054   8.7294   8.7388   8.7452   8.7932   8.8279   8.8367   8.9979
     9.2493   9.7567  10.3669  10.9994  11.7649  12.0830  12.1919  12.4073
    12.5154  12.6884  13.0019  13.2763  13.3749  13.4024  13.4508  13.6718
    13.9293  13.9829  14.1842  14.2684  14.4704  14.6689  14.8637  15.0459
    15.2583  15.4301  15.4543  15.5864  15.9012  16.0404  16.2288  16.3042
    16.3923  16.7123  16.9057  16.9395

          k = 0.1250 0.7217 0.0000 ( 23455 PWs)   bands (ev):

     4.2624   4.2990   4.4141   4.5184   4.6099   4.6585   4.6675   4.7246
     4.7578   4.8070   4.8200   4.8635   4.9079   4.9434   4.9869   5.0262
     5.0690   5.0938   5.1050   5.1155   5.1968   5.2055   5.2485   5.2598
     5.2637   5.2866   5.3049   5.3407   5.4037   5.4335   5.4459   5.4602
     5.4954   5.5736   5.5825   5.6263   5.6665   5.7053   5.7203   5.7297
     5.7863   5.8240   5.8294   5.8793   5.9028   5.9385   5.9603   5.9753
     5.9961   6.0528   6.1184   6.1431   6.2129   6.2260   6.2692   6.3086
     6.3349   6.3699   6.3752   6.4356   6.4639   6.5254   6.5625   6.6145
     6.6151   6.6340   6.7115   6.7683   6.7877   6.7890   6.8301   6.8475
     6.9056   6.9278   6.9532   7.0016   7.0257   7.0449   7.0686   7.1109
     7.1709   7.1987   7.2534   7.2597   7.3923   7.3967   7.4781   7.4890
     7.4998   7.5570   7.5687   7.6453   7.6692   7.6806   7.7242   7.7603
     7.7882   7.8310   7.8519   7.8707   7.9156   7.9562   8.0400   8.0536
     8.0784   8.1828   8.2298   8.2403   8.3370   8.3419   8.4026   8.5338
     8.5369   8.5820   8.6308   8.6509   8.6577   8.6680   8.7007   8.7393
     8.7566   8.7764   8.7889   8.8039   8.8574   8.8909   8.9037   8.9093
     8.9227   9.0111   9.2870   9.3030   9.3504   9.4148   9.5285   9.7660
    10.1709  10.7043  11.3398  11.7986  11.8786  12.0041  12.0758  12.3115
    12.6264  12.7562  13.0049  13.0945  13.2235  13.3955  13.4742  13.5246
    13.7214  13.9395  14.1151  14.2064  14.4791  14.5850  14.8531  15.0729
    15.3056  15.5681  15.7918  15.9301  15.9786  16.3046  16.3111  16.5122
    16.5342  16.6424  16.8014  16.9835

          k = 0.1250-0.8660 0.0000 ( 23492 PWs)   bands (ev):

     4.4575   4.5085   4.5550   4.5965   4.6311   4.6691   4.6963   4.7143
     4.7592   4.7811   4.8147   4.8472   4.9385   4.9395   4.9968   4.9970
     5.0612   5.0813   5.1064   5.1103   5.1393   5.1421   5.1550   5.1661
     5.2232   5.2479   5.2927   5.2933   5.3299   5.3347   5.3618   5.3757
     5.4729   5.4821   5.5697   5.5868   5.6359   5.6444   5.7316   5.7337
     5.8102   5.8324   5.8938   5.9197   5.9287   5.9427   5.9960   6.0034
     6.0539   6.0540   6.0930   6.1010   6.1465   6.1774   6.2481   6.2720
     6.4080   6.4095   6.4408   6.4675   6.5804   6.5810   6.6125   6.6281
     6.6995   6.7142   6.7655   6.7694   6.8480   6.8483   6.8555   6.8713
     6.8977   6.9134   7.0063   7.0069   7.0652   7.0699   7.1313   7.1719
     7.1985   7.2501   7.3358   7.3589   7.4242   7.4509   7.4862   7.4955
     7.5239   7.5592   7.6008   7.6621   7.7022   7.7324   7.7835   7.8148
     7.8467   7.8588   7.9131   7.9500   7.9999   8.0088   8.0347   8.0545
     8.0828   8.1156   8.1444   8.1881   8.2507   8.2559   8.4381   8.4442
     8.5838   8.6035   8.7395   8.7556   8.7867   8.7890   8.8065   8.8288
     8.8654   8.8822   8.9169   8.9242   9.0172   9.0231   9.0433   9.0496
     9.0616   9.0865  10.4131  10.4273  10.4582  10.4677  10.5685  10.5700
    10.7048  10.7216  10.9297  10.9398  11.2532  11.2680  11.6785  11.6904
    12.1953  12.1979  12.7963  12.7981  13.3725  13.4226  14.0076  14.0304
    14.4510  14.4674  14.6621  14.6699  14.7733  14.8440  14.9692  15.0244
    15.2784  15.3065  15.4179  15.4594  15.8003  15.8311  15.9207  15.9823
    16.2474  16.2570  16.5937  16.6242

          k = 0.1250-0.7217 0.0000 ( 23455 PWs)   bands (ev):

     4.1612   4.3143   4.4120   4.5698   4.5931   4.6429   4.6714   4.7421
     4.7768   4.8068   4.8248   4.8569   4.9047   4.9282   4.9803   5.0075
     5.0784   5.0818   5.1104   5.1134   5.1775   5.2303   5.2341   5.2562
     5.2603   5.2998   5.3219   5.3665   5.3939   5.4318   5.4521   5.4606
     5.5038   5.5509   5.5866   5.6032   5.6663   5.6911   5.7268   5.7330
     5.8031   5.8037   5.8220   5.8779   5.9019   5.9181   5.9482   6.0108
     6.0256   6.0657   6.1022   6.1603   6.2223   6.2558   6.2810   6.3253
     6.3397   6.3689   6.3782   6.4158   6.4510   6.5050   6.5423   6.5856
     6.6909   6.6968   6.7344   6.7631   6.7911   6.7923   6.8477   6.8602
     6.9000   6.9214   6.9866   6.9901   7.0351   7.0651   7.1107   7.1204
     7.1288   7.2107   7.2109   7.2805   7.3711   7.4035   7.4712   7.4872
     7.4980   7.5152   7.5797   7.6131   7.6385   7.6849   7.7120   7.7150
     7.7640   7.8141   7.8524   7.8697   7.9594   8.0086   8.0412   8.0491
     8.0899   8.1715   8.2353   8.2622   8.3405   8.3618   8.4068   8.5026
     8.5331   8.6033   8.6250   8.6468   8.6570   8.6625   8.7205   8.7406
     8.7493   8.7781   8.7923   8.8124   8.8716   8.8869   8.9050   8.9143
     8.9149   8.9485   9.2660   9.3188   9.3639   9.4267   9.5322   9.7735
    10.1721  10.6938  11.3305  11.7961  11.8743  11.9589  12.0645  12.3006
    12.6065  12.7360  12.9901  13.0940  13.2073  13.3878  13.4173  13.5254
    13.7177  13.9324  14.1698  14.2076  14.4260  14.6009  14.8253  15.0772
    15.3095  15.5911  15.7740  15.8753  16.0596  16.3128  16.3277  16.5072
    16.5473  16.6638  16.9455  16.9973

          k = 0.1250-0.5774 0.0000 ( 23447 PWs)   bands (ev):

     3.5890   3.7312   3.8531   4.0640   4.2572   4.4815   4.6773   4.6969
     4.8624   4.8921   4.9347   4.9450   4.9890   5.0090   5.0515   5.0559
     5.0935   5.1413   5.2008   5.2026   5.2382   5.2445   5.3142   5.3251
     5.3830   5.3945   5.4460   5.4624   5.4756   5.4911   5.5502   5.5569
     5.5896   5.6068   5.6294   5.6605   5.6846   5.7409   5.7532   5.7665
     5.7789   5.7939   5.8115   5.8659   5.8733   5.9097   5.9312   5.9615
     6.0052   6.0755   6.0937   6.0968   6.1263   6.1610   6.2337   6.2882
     6.3334   6.3811   6.4278   6.4702   6.4835   6.5187   6.5729   6.5761
     6.5927   6.5943   6.6290   6.6489   6.6986   6.7047   6.7381   6.7535
     6.7753   6.8043   6.8453   6.9426   6.9538   6.9579   7.0036   7.1251
     7.1334   7.1910   7.2566   7.2607   7.3029   7.3129   7.3450   7.4183
     7.4451   7.4490   7.4775   7.5136   7.5255   7.5726   7.5932   7.6182
     7.6530   7.6888   7.7145   7.7253   7.8390   7.8811   7.9029   7.9054
     7.9541   7.9774   8.0871   8.1032   8.1815   8.1956   8.2008   8.2580
     8.3413   8.3511   8.3930   8.4168   8.4364   8.4524   8.4857   8.5027
     8.5201   8.5599   8.5977   8.5988   8.6121   8.6281   8.6340   8.7030
     8.7211   8.7308   8.7427   8.7458   8.8126   8.8328   8.8447   8.8789
     9.2368   9.7333  10.3480  10.9418  11.7427  12.0847  12.1889  12.4154
    12.4532  12.6866  13.0180  13.2550  13.3762  13.4023  13.4717  13.6414
    13.8746  13.9770  14.1576  14.2520  14.3618  14.7554  14.8003  15.0119
    15.2470  15.4387  15.4755  15.6172  15.8757  15.9539  16.2933  16.3505
    16.4992  16.8265  16.8884  16.9754

          k = 0.1250-0.4330 0.0000 ( 23435 PWs)   bands (ev):

     2.8516   2.9922   3.1783   3.4475   3.7464   4.0850   4.4125   4.6470
     4.6640   4.7544   4.7740   4.8503   4.8647   4.8912   4.9075   4.9491
     4.9886   5.0938   5.0990   5.1014   5.1491   5.2017   5.2768   5.3573
     5.3717   5.3781   5.4187   5.4299   5.4764   5.5291   5.5774   5.6027
     5.6602   5.6851   5.6933   5.7222   5.7530   5.7690   5.7845   5.7923
     5.8482   5.8491   5.8697   5.8890   5.9382   5.9453   5.9606   5.9690
     6.0150   6.0565   6.0728   6.1208   6.1462   6.2406   6.2984   6.3350
     6.4008   6.4096   6.4476   6.4796   6.4968   6.5406   6.5575   6.5799
     6.5862   6.6386   6.6480   6.6497   6.6802   6.7106   6.7250   6.7458
     6.7516   6.8536   6.8956   6.9286   6.9645   6.9812   6.9939   7.0650
     7.1227   7.1527   7.1760   7.2036   7.2114   7.2281   7.2879   7.2927
     7.3111   7.3297   7.3396   7.3638   7.4287   7.4357   7.4474   7.4822
     7.5035   7.5140   7.5283   7.5699   7.5867   7.6213   7.6370   7.6759
     7.6945   7.7460   7.8215   7.8510   7.8820   7.9248   7.9327   7.9466
     7.9766   8.0293   8.0453   8.0823   8.1533   8.1896   8.2109   8.2834
     8.3352   8.4429   8.5069   8.5227   8.5974   8.6273   8.6818   8.7274
     8.7289   8.7520   8.7709   8.7908   8.8211   8.8297   8.9005   8.9550
     8.9771   9.1871   9.7136  10.2224  10.9929  11.3848  11.4558  11.6406
    11.6915  11.8633  12.1848  12.5766  12.6829  13.0369  13.5099  13.5244
    13.7274  13.9308  14.2009  14.2410  14.5133  14.6616  14.6742  14.7338
    15.1444  15.2729  15.5786  15.6525  15.6566  15.9290  16.1638  16.2109
    16.4289  16.5918  16.9636  17.2279

          k = 0.1250-0.2887 0.0000 ( 23467 PWs)   bands (ev):

     2.2028   2.3445   2.5649   2.8583   3.2037   3.5840   3.9525   4.2445
     4.3589   4.3996   4.4488   4.4817   4.5170   4.5477   4.6376   4.6513
     4.6600   4.6623   4.7787   4.8625   4.9277   4.9499   4.9954   5.0586
     5.0920   5.1307   5.2073   5.2424   5.3580   5.4140   5.4500   5.5611
     5.5744   5.6462   5.7312   5.7765   5.7951   5.8746   5.9286   5.9629
     5.9932   6.0176   6.0252   6.0365   6.0522   6.0703   6.1152   6.1424
     6.1604   6.1989   6.2275   6.2721   6.3172   6.3316   6.4297   6.4497
     6.5027   6.5140   6.5810   6.6013   6.6037   6.6231   6.6269   6.6428
     6.6614   6.7000   6.7096   6.7455   6.7695   6.7868   6.7899   6.8108
     6.8404   6.8570   6.8615   6.8914   6.9025   6.9225   6.9425   6.9721
     6.9972   7.0092   7.0275   7.0463   7.0593   7.1217   7.1246   7.2060
     7.2110   7.2264   7.2662   7.3239   7.3842   7.4149   7.4214   7.4740
     7.5007   7.5686   7.5956   7.6065   7.6942   7.7111   7.7434   7.7883
     7.7929   7.8343   7.8545   7.8833   7.9441   7.9661   7.9806   8.0605
     8.0812   8.1393   8.1606   8.1733   8.2105   8.2334   8.2458   8.2879
     8.3532   8.3541   8.4553   8.5104   8.5439   8.6522   8.6526   8.7033
     8.7514   8.7607   8.7850   8.7870   8.8111   8.8449   8.8859   8.9902
     9.0276   9.0492   9.1949   9.6019  10.3074  10.7650  10.8122  10.9398
    10.9583  11.0887  11.3288  11.6594  11.9084  12.0933  12.3372  12.6194
    13.2155  13.5761  13.7098  13.8549  13.9138  14.1767  14.2249  14.4404
    14.6708  14.9541  15.2041  15.2678  15.5869  15.6311  15.8976  16.0936
    16.4571  16.8374  16.9425  16.9647

          k = 0.1250-0.1443 0.0000 ( 23537 PWs)   bands (ev):

     1.7738   1.9151   2.1489   2.4493   2.8086   3.1983   3.5743   3.8751
     4.0550   4.0559   4.1158   4.1713   4.1879   4.3079   4.3103   4.3396
     4.3461   4.4293   4.5394   4.5646   4.6412   4.6716   4.7039   4.7390
     4.7930   4.8477   4.9317   5.0107   5.1373   5.1609   5.2548   5.4659
     5.5151   5.6057   5.7688   5.9558   5.9779   6.0454   6.0869   6.1196
     6.1385   6.1673   6.2041   6.2127   6.2368   6.2801   6.2835   6.2985
     6.3236   6.3531   6.3684   6.3937   6.4363   6.4676   6.4765   6.4907
     6.4974   6.5001   6.5137   6.5229   6.5422   6.5532   6.5882   6.6070
     6.6269   6.6310   6.6480   6.6672   6.6891   6.7010   6.7196   6.7316
     6.7385   6.7680   6.8058   6.8128   6.8405   6.8956   6.8995   6.9287
     7.0164   7.0195   7.1102   7.1589   7.1805   7.2696   7.3553   7.4669
     7.4736   7.5033   7.5361   7.5538   7.5551   7.5722   7.6276   7.6399
     7.7124   7.7225   7.7485   7.7824   7.8320   7.8710   7.8941   7.8957
     7.9448   8.0138   8.0440   8.0884   8.1645   8.1659   8.2096   8.2468
     8.3079   8.3187   8.3643   8.3947   8.4163   8.4505   8.4630   8.5198
     8.5466   8.5485   8.5640   8.5807   8.6300   8.6546   8.6641   8.7025
     8.7225   8.7457   8.7486   8.7661   8.7986   8.8305   8.8589   8.8910
     8.9936   9.0363   9.0607   9.0654   9.6567   9.9956  10.1424  10.2585
    10.3153  10.4343  10.5604  10.7881  11.1690  11.1758  11.3961  11.7124
    12.3463  13.0117  13.4810  13.5569  13.6578  13.7255  14.0128  14.0600
    14.3146  14.6286  14.9316  14.9797  15.2482  15.3381  15.6923  15.9358
    16.4309  16.5606  16.6365  16.9724

          k = 0.2500 0.0000 0.0000 ( 23536 PWs)   bands (ev):

     1.9599   2.0975   2.3290   2.6242   2.9802   3.3669   3.7426   3.8897
     4.0119   4.0410   4.1698   4.2159   4.2647   4.3338   4.3507   4.3620
     4.4097   4.4624   4.4648   4.4781   4.5144   4.6083   4.7043   4.7403
     4.7870   4.8506   4.9633   5.0471   5.1116   5.1373   5.3138   5.5171
     5.5595   5.5704   5.8040   5.8615   5.9299   6.0161   6.0198   6.0593
     6.1125   6.1338   6.1573   6.1677   6.1976   6.2332   6.2715   6.2928
     6.3019   6.3490   6.3824   6.4131   6.4501   6.4708   6.5044   6.5083
     6.5327   6.5362   6.5668   6.5810   6.5973   6.6143   6.6217   6.6349
     6.6497   6.6706   6.7016   6.7058   6.7200   6.7376   6.7586   6.7638
     6.8005   6.8084   6.8259   6.8387   6.8724   6.8804   6.9142   6.9249
     6.9826   7.0333   7.1065   7.1106   7.1335   7.2472   7.2644   7.3236
     7.3616   7.4022   7.4079   7.4564   7.4827   7.5121   7.5686   7.5829
     7.6479   7.6531   7.6996   7.7371   7.7421   7.8390   7.8445   7.8564
     7.9436   7.9872   7.9879   8.0403   8.0600   8.1285   8.2235   8.2267
     8.2353   8.2939   8.3093   8.3333   8.3769   8.3940   8.4092   8.4211
     8.4613   8.4743   8.5020   8.5305   8.5372   8.5495   8.5718   8.6093
     8.6129   8.6158   8.6373   8.6492   8.6790   8.7111   8.7856   8.7948
     8.7970   8.8143   8.8406   8.8768   8.9196   8.9256   8.9359   8.9555
     9.1153   9.3828   9.7033   9.9729  10.4023  10.6626  11.1470  11.5163
    11.8420  11.9018  12.6733  13.4015  14.1120  14.1578  15.0698  15.1185
    15.3390  15.3859  15.5079  15.6165  15.9185  16.3560  16.6644  16.7693
    16.8160  17.1095  17.4016  17.7958

          k = 0.2500 0.1443 0.0000 ( 23484 PWs)   bands (ev):

     2.1069   2.2411   2.4704   2.7609   3.1137   3.4979   3.8738   4.0202
     4.1445   4.1717   4.2971   4.3407   4.3794   4.4518   4.4651   4.4925
     4.5200   4.5834   4.5859   4.6035   4.6424   4.7202   4.7942   4.8185
     4.8811   4.9470   5.0438   5.1313   5.2293   5.2417   5.3634   5.4819
     5.5338   5.6034   5.7610   5.8196   5.8872   5.9200   5.9492   5.9844
     6.0500   6.0607   6.0856   6.0930   6.1494   6.1713   6.2132   6.2402
     6.2498   6.3376   6.3447   6.3803   6.3968   6.4042   6.4380   6.4527
     6.5230   6.5317   6.5660   6.5815   6.5940   6.6053   6.6258   6.6290
     6.6481   6.6734   6.6813   6.6998   6.7347   6.7511   6.7637   6.7924
     6.8182   6.8287   6.8341   6.8486   6.8807   6.8909   6.8975   6.9400
     6.9601   7.0206   7.0629   7.1048   7.1219   7.1903   7.2174   7.2209
     7.2741   7.2956   7.3101   7.3521   7.4019   7.4415   7.4635   7.4783
     7.5338   7.5850   7.6266   7.6789   7.7086   7.7326   7.7555   7.8146
     7.8579   7.8742   7.9030   7.9208   7.9244   8.0033   8.0327   8.0366
     8.1447   8.1608   8.1836   8.2150   8.2208   8.2335   8.2553   8.3213
     8.3317   8.3937   8.4468   8.4751   8.5317   8.5489   8.5778   8.5858
     8.6273   8.6716   8.7121   8.7255   8.7397   8.7651   8.8017   8.8666
     8.9127   8.9758   9.1160   9.1392   9.2330   9.3227   9.3745   9.4578
     9.5902   9.6712  10.1038  10.1933  10.7002  10.9146  11.3866  11.7569
    12.1059  12.1642  12.8623  13.5675  14.1578  14.3227  15.1496  15.2922
    15.3882  15.4924  15.5676  15.7226  16.0074  16.4422  16.7559  16.8660
    16.9076  17.1951  17.4586  17.8276

          k = 0.2500 0.2887 0.0000 ( 23496 PWs)   bands (ev):

     2.5207   2.6463   2.8626   3.1358   3.4684   3.8325   4.1925   4.3618
     4.4721   4.4908   4.6078   4.6159   4.6536   4.6542   4.7182   4.7805
     4.7964   4.8282   4.8802   4.8833   4.9272   4.9853   5.0601   5.0774
     5.1262   5.1898   5.2665   5.3040   5.3306   5.3738   5.4453   5.5514
     5.6111   5.6561   5.6936   5.7186   5.7677   5.7846   5.8713   5.9175
     5.9196   5.9312   5.9586   5.9596   6.0101   6.0584   6.0903   6.1007
     6.1165   6.1310   6.1845   6.2043   6.2515   6.2653   6.3646   6.3681
     6.4211   6.4357   6.4739   6.4921   6.5363   6.5599   6.5665   6.6050
     6.6142   6.6670   6.6718   6.6855   6.7011   6.7269   6.7769   6.7782
     6.8277   6.8302   6.8615   6.8801   6.8979   6.9487   6.9630   6.9685
     6.9823   7.0165   7.0279   7.0572   7.1076   7.1216   7.1533   7.1675
     7.1795   7.2237   7.2569   7.3058   7.3183   7.3478   7.3588   7.3618
     7.4487   7.4633   7.4868   7.5297   7.5327   7.5951   7.6218   7.6827
     7.7117   7.7460   7.7480   7.8205   7.8213   7.8367   7.8959   7.9072
     7.9414   7.9719   8.0018   8.0803   8.1013   8.1583   8.1677   8.2564
     8.2622   8.3939   8.4031   8.4715   8.5960   8.5984   8.6660   8.6999
     8.7625   8.7635   8.7866   8.7936   8.8295   8.8691   8.9620   8.9944
     9.0088   9.1181   9.4657   9.8055   9.8522   9.9156  10.0019  10.0154
    10.1844  10.4648  10.6752  10.8725  11.3932  11.4291  12.0046  12.3108
    12.6517  12.9630  13.3687  14.0079  14.3669  14.7259  15.4089  15.5317
    15.6691  15.8278  15.8476  16.0058  16.2458  16.6414  17.0171  17.0636
    17.2001  17.2797  17.5679  17.6554

          k = 0.2500 0.4330 0.0000 ( 23431 PWs)   bands (ev):

     3.1219   3.2244   3.4088   3.6327   3.9013   4.1883   4.4652   4.6625
     4.6905   4.7834   4.7838   4.8102   4.8205   4.8748   4.8787   4.9405
     5.0025   5.0085   5.0151   5.0990   5.1062   5.1418   5.1473   5.2235
     5.2501   5.2541   5.3060   5.4139   5.4666   5.5011   5.5283   5.5591
     5.5741   5.6362   5.6768   5.6944   5.7449   5.7566   5.8039   5.8296
     5.8479   5.8840   5.9100   5.9359   5.9591   5.9819   6.0075   6.0390
     6.0721   6.1019   6.1063   6.1443   6.1628   6.1935   6.2614   6.2929
     6.3397   6.3635   6.4136   6.4430   6.5220   6.5343   6.5706   6.5761
     6.6170   6.6194   6.6656   6.6746   6.7013   6.7235   6.7507   6.7579
     6.8343   6.8874   6.9038   6.9502   6.9858   6.9887   6.9992   7.0288
     7.0343   7.0922   7.1473   7.1839   7.1876   7.2284   7.2695   7.2793
     7.3140   7.3509   7.3612   7.4042   7.4153   7.4366   7.4872   7.5126
     7.5428   7.5639   7.5768   7.6035   7.6355   7.6437   7.6663   7.6914
     7.7052   7.7121   7.7955   7.8279   7.8379   7.8791   7.8873   7.9544
     7.9619   8.0301   8.0531   8.0628   8.1116   8.1697   8.2464   8.2586
     8.3564   8.4221   8.4425   8.5813   8.6013   8.6547   8.7471   8.8081
     8.8209   8.8297   8.8386   8.8544   8.8587   8.8798   8.9881   9.0271
     9.1688   9.3295   9.9084  10.4154  10.4556  10.5229  10.5609  10.7174
    10.9525  11.2540  11.2853  11.7077  12.0264  12.2076  12.7820  12.9104
    13.3582  14.0090  14.0284  14.5414  14.8624  15.0970  15.6673  15.8241
    15.8893  15.8996  15.9870  16.1730  16.2915  16.4081  16.4762  16.7081
    16.9150  17.1037  17.4166  17.4486

          k = 0.2500 0.5774 0.0000 ( 23466 PWs)   bands (ev):

     3.7301   3.7882   3.9482   4.0859   4.2466   4.3943   4.5355   4.5896
     4.6531   4.6816   4.7238   4.7482   4.7705   4.8272   4.8684   4.8885
     4.9049   4.9944   5.0055   5.0433   5.0490   5.1223   5.1379   5.1738
     5.1820   5.2177   5.2208   5.2563   5.2951   5.3389   5.3514   5.3808
     5.4505   5.4869   5.5168   5.6104   5.6463   5.6602   5.7318   5.7507
     5.8225   5.8623   5.8867   5.8946   5.9561   5.9684   5.9967   6.0837
     6.1388   6.1586   6.2248   6.2270   6.2911   6.4014   6.4222   6.4605
     6.4661   6.5124   6.5298   6.5800   6.5957   6.6199   6.6204   6.6372
     6.6562   6.7106   6.7548   6.8016   6.8054   6.8472   6.8560   6.9221
     6.9554   6.9763   7.0005   7.0217   7.0818   7.1184   7.1823   7.1903
     7.2778   7.2950   7.3353   7.3631   7.3763   7.4925   7.4992   7.5149
     7.5263   7.5476   7.5656   7.6752   7.6816   7.7617   7.7817   7.8135
     7.8598   7.8658   7.9256   7.9326   7.9366   7.9694   8.0121   8.0602
     8.0633   8.0698   8.0980   8.1352   8.1379   8.1471   8.1944   8.2180
     8.2708   8.3278   8.3421   8.3530   8.4007   8.4283   8.4499   8.4949
     8.5131   8.5426   8.5839   8.5889   8.6661   8.7111   8.7428   8.7580
     8.7583   8.8240   8.8279   8.8527   8.8538   8.9533   8.9881   9.1400
     9.2362   9.8198  10.4877  11.0744  11.1402  11.1739  11.2892  11.4904
    11.7674  11.9385  12.1337  12.5712  12.7085  13.0614  13.5147  13.5556
    13.7994  13.8340  14.0523  14.2841  14.4491  14.7483  15.0286  15.0821
    15.1431  15.4597  15.6276  15.7445  15.9345  16.2242  16.4108  16.5614
    16.6788  17.0313  17.1491  17.4695

          k = 0.2500 0.7217 0.0000 ( 23545 PWs)   bands (ev):

     4.0874   4.1212   4.2932   4.3752   4.3802   4.4924   4.5003   4.5163
     4.5524   4.5834   4.5927   4.6504   4.6674   4.7460   4.7508   4.7678
     4.8245   4.8680   4.8752   4.8792   4.9208   4.9357   4.9359   5.0161
     5.0449   5.0819   5.1026   5.1259   5.1454   5.2269   5.2458   5.2597
     5.2851   5.3496   5.4071   5.4946   5.5158   5.5741   5.6536   5.6863
     5.7955   5.8263   5.8364   5.9265   5.9788   6.0048   6.0081   6.1031
     6.1226   6.2534   6.2880   6.3269   6.3643   6.3772   6.4019   6.4492
     6.5441   6.5484   6.5743   6.5963   6.6094   6.6629   6.7056   6.7229
     6.7681   6.8031   6.8238   6.8599   6.9147   6.9705   7.0497   7.0798
     7.1192   7.1262   7.2142   7.2203   7.2608   7.3153   7.3362   7.3569
     7.4333   7.4563   7.5791   7.6168   7.6564   7.6582   7.7025   7.8250
     7.8465   7.9041   7.9230   7.9231   7.9467   7.9818   8.0045   8.1201
     8.1269   8.1844   8.1929   8.1958   8.2244   8.2348   8.2817   8.3114
     8.3161   8.3300   8.4006   8.4203   8.4766   8.5393   8.5505   8.5584
     8.5803   8.5881   8.6021   8.6179   8.6610   8.6868   8.7140   8.7211
     8.7649   8.7879   8.8063   8.8295   8.8698   8.9150   8.9338   8.9370
     8.9446   9.1000   9.1590   9.2107   9.3133   9.3661   9.4576   9.6742
    10.1094  10.7043  11.3969  11.9126  11.9822  12.0100  12.0694  12.1208
    12.1551  12.2673  12.4207  12.5708  12.8109  12.8805  12.9672  13.0836
    13.2976  13.4239  13.6299  13.9433  14.0355  14.2848  14.3066  14.6748
    14.8523  15.2972  15.3096  15.3931  15.5543  15.7519  15.7690  16.0032
    16.0337  16.2214  16.4305  16.5522

          k = 0.2500-0.8660 0.0000 ( 23532 PWs)   bands (ev):

     4.1894   4.2653   4.2901   4.3203   4.3976   4.4472   4.4729   4.4944
     4.5501   4.5624   4.6083   4.6346   4.7246   4.7281   4.7440   4.7509
     4.7887   4.7961   4.8028   4.8054   4.8955   4.9038   4.9051   4.9259
     4.9495   4.9507   5.0418   5.0431   5.0967   5.1041   5.2093   5.2390
     5.2957   5.3047   5.3392   5.3401   5.4926   5.4993   5.6405   5.6725
     5.7878   5.8272   5.9226   5.9613   6.0369   6.0498   6.0811   6.1183
     6.1464   6.1467   6.2299   6.2452   6.3948   6.4016   6.4351   6.4397
     6.5182   6.5423   6.5747   6.5784   6.6445   6.6497   6.7173   6.7478
     6.7918   6.8236   6.8923   6.9081   6.9540   6.9824   7.1057   7.1427
     7.1818   7.1988   7.2864   7.2916   7.3856   7.3958   7.4482   7.4568
     7.5283   7.5286   7.6851   7.7082   7.7112   7.7341   7.8550   7.8901
     7.9310   8.0011   8.0611   8.0627   8.0764   8.0805   8.0996   8.1678
     8.2198   8.2434   8.2908   8.3443   8.3583   8.3691   8.3877   8.3980
     8.4038   8.4145   8.4336   8.4445   8.4687   8.4836   8.5286   8.5357
     8.6103   8.6388   8.7228   8.7343   8.7540   8.7601   8.7828   8.8060
     8.8463   8.8814   8.9068   8.9408   9.0157   9.0261   9.0461   9.0471
     9.0575   9.1012  10.3888  10.4344  10.4683  10.4893  10.6091  10.6163
    10.7253  10.7622  10.9182  10.9402  11.1997  11.2355  11.6009  11.6361
    12.1128  12.1367  12.7127  12.7561  13.3141  13.3260  13.5275  13.5597
    13.6452  13.6457  13.7363  13.7917  13.9892  14.0829  14.2073  14.2771
    14.3667  14.6011  14.7127  14.8253  14.9722  15.1302  15.4070  15.4186
    15.7321  15.7712  15.9942  16.0049

          k = 0.2500-0.7217 0.0000 ( 23545 PWs)   bands (ev):

     3.9878   4.1361   4.2640   4.4065   4.4399   4.4448   4.5067   4.5180
     4.5345   4.5967   4.6119   4.6429   4.6930   4.7135   4.7173   4.7703
     4.8344   4.8573   4.8768   4.8917   4.9219   4.9280   4.9387   5.0188
     5.0323   5.0973   5.1078   5.1131   5.1579   5.2306   5.2438   5.2451
     5.3197   5.3246   5.4030   5.4742   5.5138   5.5792   5.6668   5.7032
     5.8003   5.8142   5.8446   5.9384   5.9902   6.0134   6.0293   6.1070
     6.1495   6.2577   6.3007   6.3113   6.3629   6.3891   6.4263   6.4808
     6.5262   6.5363   6.5811   6.5852   6.6044   6.6707   6.7094   6.7243
     6.7912   6.7977   6.8287   6.8775   6.9524   6.9723   7.0304   7.0328
     7.1158   7.1202   7.1781   7.2289   7.2632   7.2847   7.3333   7.4007
     7.4554   7.5073   7.5615   7.5957   7.6529   7.6588   7.7323   7.7726
     7.8697   7.9000   7.9004   7.9463   7.9525   7.9817   8.0368   8.0599
     8.1020   8.1675   8.1705   8.2043   8.2273   8.2615   8.2658   8.3154
     8.3229   8.3511   8.4206   8.4710   8.4804   8.5366   8.5479   8.5572
     8.5741   8.5933   8.6106   8.6397   8.6724   8.6788   8.6803   8.7443
     8.7544   8.7667   8.8487   8.8589   8.9065   8.9118   8.9246   8.9354
     8.9494   8.9661   9.1391   9.2258   9.3223   9.3943   9.4687   9.6930
    10.1151  10.6850  11.3834  11.9299  11.9882  12.0221  12.0410  12.0845
    12.1781  12.2921  12.3294  12.4833  12.6377  12.8461  12.8944  13.0582
    13.3503  13.4769  13.5229  13.8411  14.0696  14.3062  14.5237  14.7548
    15.0953  15.2475  15.2915  15.3925  15.5797  15.5974  15.7671  15.9388
    16.1216  16.2104  16.3835  16.6029

          k = 0.2500-0.5774 0.0000 ( 23466 PWs)   bands (ev):

     3.6425   3.7964   3.9155   4.1165   4.2689   4.4178   4.5303   4.5529
     4.6432   4.6433   4.7228   4.7303   4.7519   4.8409   4.8570   4.8638
     4.9075   4.9930   5.0138   5.0410   5.0546   5.1293   5.1421   5.1804
     5.1937   5.1937   5.2325   5.2677   5.3011   5.3522   5.3663   5.3900
     5.4506   5.4722   5.5299   5.5760   5.6328   5.6760   5.7578   5.7959
     5.8148   5.8514   5.8990   5.9321   5.9517   5.9809   6.0384   6.0615
     6.1476   6.1618   6.2319   6.2524   6.3014   6.3758   6.4270   6.4459
     6.4969   6.5081   6.5448   6.5821   6.6051   6.6124   6.6310   6.6436
     6.6744   6.6978   6.7549   6.7570   6.8287   6.8503   6.8792   6.9276
     6.9476   6.9697   7.0014   7.0198   7.1056   7.1198   7.1453   7.2167
     7.2333   7.2956   7.3407   7.3438   7.4708   7.4796   7.5158   7.5238
     7.5372   7.5442   7.6265   7.6266   7.7259   7.7345   7.7753   7.8273
     7.8366   7.8756   7.9151   7.9301   7.9720   8.0020   8.0064   8.0621
     8.0671   8.0877   8.0897   8.1209   8.1223   8.1546   8.1909   8.2218
     8.2569   8.3190   8.3372   8.3532   8.4034   8.4423   8.4643   8.5020
     8.5055   8.5430   8.5882   8.6321   8.6781   8.7101   8.7432   8.7499
     8.7945   8.8328   8.8543   8.8628   8.8714   8.9232   9.0012   9.0051
     9.2080   9.7688  10.4490  11.0735  11.0740  11.1328  11.2863  11.4749
    11.7607  11.8987  12.1231  12.5702  12.6029  13.0803  13.5182  13.6008
    13.7501  13.8622  14.0103  14.3071  14.4548  14.6979  14.9711  15.0336
    15.1007  15.4901  15.6658  15.7023  15.9032  16.2625  16.4281  16.5004
    16.7209  17.1922  17.2615  17.5274

          k = 0.2500-0.4330 0.0000 ( 23431 PWs)   bands (ev):

     3.0821   3.2273   3.3906   3.6431   3.9038   4.1985   4.4688   4.5662
     4.6516   4.7299   4.7447   4.8143   4.8269   4.8640   4.8835   4.9182
     4.9535   5.0119   5.0671   5.1026   5.1341   5.1530   5.2036   5.2378
     5.2500   5.2562   5.3148   5.4580   5.4859   5.4946   5.5123   5.5641
     5.5784   5.6283   5.6766   5.6976   5.7180   5.7922   5.7959   5.8508
     5.8516   5.9122   5.9246   5.9345   5.9808   5.9935   6.0062   6.0294
     6.0505   6.1063   6.1092   6.1599   6.1622   6.2386   6.2456   6.2849
     6.3581   6.3673   6.4076   6.4538   6.4979   6.5389   6.5723   6.5941
     6.6177   6.6178   6.6672   6.6752   6.7056   6.7246   6.7281   6.7566
     6.8455   6.8999   6.9060   6.9826   6.9867   6.9894   7.0250   7.0335
     7.0850   7.0941   7.1809   7.1850   7.2047   7.2405   7.2673   7.2907
     7.2993   7.3366   7.3819   7.3852   7.3991   7.4399   7.4702   7.4987
     7.5596   7.5761   7.5990   7.6024   7.6303   7.6604   7.6625   7.6851
     7.7183   7.7495   7.8029   7.8472   7.8768   7.8931   7.9067   7.9262
     7.9730   8.0186   8.0514   8.0630   8.1007   8.1618   8.1931   8.2487
     8.3724   8.4254   8.4338   8.5653   8.6281   8.6926   8.7520   8.7974
     8.8144   8.8281   8.8573   8.8608   8.8662   8.8963   8.9534   9.0367
     9.0472   9.2690   9.8629  10.4148  10.4180  10.4493  10.5575  10.7058
    10.9485  11.2118  11.2855  11.7222  11.9166  12.2403  12.8158  12.9108
    13.4233  13.9281  14.0268  14.5911  14.9026  14.9119  15.5863  15.7859
    15.8534  15.8908  15.9748  16.1559  16.2842  16.4421  16.4489  16.6425
    16.9879  17.1969  17.4513  17.5209

          k = 0.2500-0.2887 0.0000 ( 23496 PWs)   bands (ev):

     2.5050   2.6471   2.8539   3.1386   3.4670   3.8331   4.1881   4.3264
     4.4648   4.4895   4.5893   4.5982   4.6333   4.6491   4.7004   4.7216
     4.7935   4.8295   4.8800   4.8825   4.9347   4.9858   5.0463   5.0714
     5.1393   5.2107   5.2363   5.2974   5.3814   5.4878   5.4936   5.5133
     5.6146   5.6166   5.6936   5.7133   5.7912   5.8115   5.8628   5.9061
     5.9225   5.9338   5.9547   5.9819   6.0045   6.0573   6.0994   6.1075
     6.1229   6.1442   6.1782   6.2430   6.2840   6.2861   6.3338   6.3623
     6.4215   6.4345   6.4717   6.4800   6.5207   6.5637   6.5792   6.6151
     6.6184   6.6606   6.6882   6.7001   6.7120   6.7396   6.7727   6.7780
     6.8175   6.8337   6.8742   6.8794   6.9245   6.9374   6.9671   6.9821
     6.9915   7.0125   7.0192   7.0723   7.0986   7.1415   7.1440   7.1766
     7.1856   7.2282   7.2571   7.2968   7.3288   7.3455   7.3687   7.3702
     7.4522   7.4578   7.5151   7.5392   7.5676   7.6201   7.6282   7.6952
     7.6982   7.7591   7.7857   7.7876   7.8157   7.8628   7.8868   7.9073
     7.9616   7.9894   7.9913   8.0363   8.1051   8.1803   8.1808   8.2052
     8.2664   8.3886   8.3927   8.4632   8.5940   8.6102   8.6761   8.6914
     8.7632   8.7644   8.7930   8.7960   8.8363   8.8707   8.9347   8.9708
     9.0007   9.0107   9.4301   9.8153   9.8525   9.9016   9.9130  10.0052
    10.1778  10.4673  10.6366  10.8896  11.3254  11.4242  12.0393  12.3061
    12.6961  12.9112  13.3804  14.0370  14.4024  14.6641  15.3970  15.4896
    15.6740  15.8347  15.8456  16.0101  16.2034  16.5979  17.0273  17.0496
    17.2162  17.2674  17.5587  17.6282

          k = 0.2500-0.1443 0.0000 ( 23484 PWs)   bands (ev):

     2.1014   2.2413   2.4671   2.7615   3.1126   3.4970   3.8707   4.0136
     4.1435   4.1677   4.2938   4.3359   4.3788   4.4268   4.4490   4.4902
     4.5203   4.5834   4.5857   4.6042   4.6403   4.7228   4.7873   4.8203
     4.8793   4.9647   5.0216   5.1214   5.2289   5.2381   5.3465   5.5132
     5.5743   5.5793   5.7848   5.8309   5.8812   5.9151   5.9721   5.9890
     6.0367   6.0693   6.0975   6.1195   6.1407   6.1774   6.2154   6.2643
     6.2725   6.3052   6.3072   6.3754   6.3819   6.4312   6.4381   6.4849
     6.4989   6.5175   6.5780   6.5875   6.5877   6.6148   6.6176   6.6296
     6.6395   6.6903   6.6968   6.7106   6.7394   6.7541   6.7679   6.7919
     6.8086   6.8285   6.8489   6.8609   6.8835   6.8976   6.9377   6.9607
     6.9786   7.0290   7.0330   7.0952   7.1197   7.1844   7.2067   7.2246
     7.2340   7.2710   7.2966   7.3175   7.4316   7.4695   7.4709   7.4838
     7.5841   7.5846   7.6756   7.6849   7.7184   7.7479   7.7546   7.8181
     7.8808   7.8828   7.9036   7.9269   7.9446   7.9773   8.0230   8.0862
     8.1027   8.1417   8.1799   8.2010   8.2372   8.2413   8.2513   8.3181
     8.3243   8.3939   8.4574   8.4682   8.4944   8.5442   8.5893   8.6001
     8.6068   8.6707   8.7081   8.7151   8.7345   8.7573   8.8072   8.8145
     8.9124   8.9232   9.1283   9.1287   9.2414   9.3310   9.3645   9.4504
     9.5232   9.6739  10.1204  10.1671  10.7246  10.8417  11.4132  11.7533
    12.1309  12.1387  12.8734  13.5811  14.1777  14.3015  15.1476  15.2921
    15.3730  15.4997  15.5676  15.7270  15.9824  16.4272  16.7770  16.8701
    16.8957  17.1893  17.4639  17.8145

          k = 0.3750 0.0000 0.0000 ( 23492 PWs)   bands (ev):

     2.4816   2.6120   2.8276   3.1040   3.4376   3.6536   3.7624   3.8020
     3.9116   4.0818   4.1600   4.2411   4.3702   4.4390   4.4966   4.5855
     4.6242   4.6406   4.7063   4.7327   4.8496   4.8497   4.8519   4.9298
     4.9759   5.0160   5.1279   5.1859   5.2442   5.3287   5.4757   5.4799
     5.5778   5.6166   5.6765   5.7023   5.7884   5.8765   5.8804   5.9219
     5.9404   5.9781   6.0153   6.0714   6.0791   6.1223   6.1427   6.1711
     6.2101   6.2527   6.3346   6.4161   6.4233   6.4557   6.4939   6.5164
     6.5170   6.5620   6.5626   6.5885   6.5898   6.6180   6.6448   6.6494
     6.6577   6.6897   6.6997   6.7041   6.7459   6.7795   6.8123   6.8204
     6.8475   6.8559   6.8961   6.9182   6.9298   6.9330   6.9468   6.9787
     7.0062   7.0231   7.0231   7.0717   7.1225   7.1507   7.1644   7.1936
     7.2076   7.2086   7.2836   7.3182   7.3358   7.3560   7.4065   7.4648
     7.4881   7.5102   7.5253   7.5330   7.6174   7.6308   7.6495   7.6859
     7.6921   7.7465   7.7750   7.7939   7.8742   7.9001   7.9632   7.9635
     7.9791   7.9793   8.0141   8.0295   8.0407   8.0566   8.0710   8.0780
     8.1235   8.1271   8.1829   8.1993   8.2403   8.2614   8.2801   8.3152
     8.3366   8.3400   8.3764   8.4404   8.4560   8.5392   8.5734   8.5919
     8.6439   8.6475   8.6902   8.8042   8.8159   8.8546   8.8679   8.9525
     9.1771   9.4143   9.7782   9.9457  10.4386  10.6158  11.1263  11.3563
    11.8817  12.2652  12.6361  12.8809  13.4878  14.3654  14.9674  15.3793
    15.6311  15.8141  16.4925  16.9936  17.1932  17.2660  17.4370  17.6076
    17.7935  17.9673  18.2588  18.7154

          k = 0.3750 0.1443 0.0000 ( 23495 PWs)   bands (ev):

     2.6234   2.7487   2.9610   3.2305   3.5593   3.7908   3.9022   3.9204
     4.0394   4.2051   4.2820   4.3536   4.4797   4.5714   4.6099   4.7152
     4.7429   4.7572   4.8348   4.8503   4.9487   4.9623   4.9642   5.0049
     5.0572   5.1066   5.2109   5.2851   5.3585   5.4116   5.4202   5.5080
     5.5637   5.6364   5.6680   5.7152   5.7690   5.8030   5.8144   5.8519
     5.8703   5.9106   5.9484   5.9868   6.0192   6.0426   6.0738   6.0767
     6.1306   6.1614   6.2028   6.2470   6.2871   6.3234   6.3357   6.4195
     6.4280   6.4508   6.4579   6.5025   6.5236   6.5495   6.5624   6.5855
     6.5967   6.6485   6.6796   6.6869   6.6936   6.7022   6.7117   6.7434
     6.7725   6.7982   6.8288   6.8484   6.8859   6.9329   6.9569   7.0067
     7.0154   7.0497   7.0738   7.1020   7.1398   7.1573   7.1767   7.2110
     7.2465   7.2684   7.2925   7.3016   7.3372   7.3712   7.3802   7.4026
     7.4197   7.4645   7.4789   7.4792   7.5394   7.5814   7.6761   7.6769
     7.6995   7.7338   7.7545   7.7706   7.7870   7.8632   7.8669   7.9272
     7.9540   7.9884   8.0187   8.0374   8.1116   8.1245   8.1601   8.1741
     8.2360   8.2708   8.2932   8.3188   8.3976   8.4104   8.4479   8.4870
     8.4949   8.5212   8.5365   8.5566   8.6084   8.6321   8.6449   8.6970
     8.7091   8.7221   8.7484   8.7646   8.7969   8.8145   8.9615   9.1168
     9.3963   9.5636   9.9498  10.1022  10.5853  10.7739  11.2600  11.5312
    12.0203  12.4287  12.7645  13.1449  13.6200  14.4437  15.1808  15.4799
    15.7946  15.9159  16.6184  17.1067  17.2711  17.3550  17.4733  17.6382
    17.8985  18.0427  18.2948  18.7675

          k = 0.3750 0.2887 0.0000 ( 23497 PWs)   bands (ev):

     3.0091   3.1213   3.3151   3.5586   3.8564   4.1492   4.1849   4.2674
     4.3437   4.4627   4.5217   4.5615   4.6777   4.8003   4.8149   4.9322
     4.9546   4.9683   5.1001   5.1109   5.1815   5.1831   5.1930   5.2438
     5.2701   5.2937   5.3173   5.3674   5.4257   5.4899   5.5034   5.5752
     5.5901   5.6173   5.6214   5.6992   5.7055   5.7359   5.7473   5.7717
     5.7826   5.8276   5.8507   5.8667   5.9085   5.9129   5.9543   5.9704
     5.9855   5.9881   6.0435   6.0715   6.0814   6.1692   6.1776   6.2145
     6.2745   6.3027   6.3105   6.3637   6.3929   6.4007   6.4283   6.4286
     6.4903   6.5086   6.5430   6.5674   6.5931   6.6083   6.6354   6.7022
     6.7126   6.7377   6.7410   6.7427   6.8326   6.8493   6.8877   6.9519
     6.9663   6.9893   7.0362   7.1448   7.1679   7.2352   7.2417   7.2537
     7.2991   7.3309   7.3343   7.3723   7.3761   7.4249   7.4434   7.4564
     7.4893   7.5220   7.5519   7.5766   7.6056   7.6273   7.6460   7.6618
     7.6890   7.7227   7.7638   7.7699   7.8948   7.9171   7.9567   7.9613
     7.9731   8.0540   8.1093   8.1257   8.1506   8.1682   8.1970   8.2316
     8.3017   8.3330   8.4070   8.4651   8.5111   8.5656   8.5992   8.6186
     8.6403   8.6745   8.6804   8.6950   8.6981   8.7875   8.8351   8.9013
     8.9382   9.0565   9.1001   9.1119   9.1741   9.2789   9.3518   9.4972
     9.8573   9.8941  10.4099  10.4419  11.0156  11.1476  11.6625  11.9211
    12.4206  12.8093  13.1355  13.8136  13.9647  14.7413  15.7507  15.7841
    16.2219  16.2458  16.9365  17.3943  17.4960  17.5337  17.5754  17.7749
    18.0598  18.1498  18.3479  18.6627

          k = 0.3750 0.4330 0.0000 ( 23475 PWs)   bands (ev):

     3.5146   3.5930   3.7541   3.9318   4.1449   4.3658   4.3914   4.5204
     4.5813   4.5865   4.6785   4.7146   4.7438   4.7542   4.8582   4.8700
     4.9432   4.9577   5.0019   5.0759   5.1216   5.1310   5.1735   5.2176
     5.2293   5.2437   5.2913   5.3253   5.3270   5.3538   5.4094   5.4617
     5.5151   5.5882   5.5936   5.6323   5.6746   5.7070   5.7091   5.7482
     5.8160   5.8576   5.8852   5.9401   5.9732   5.9783   6.0596   6.0702
     6.0922   6.1213   6.1730   6.1821   6.2270   6.2375   6.2761   6.2868
     6.2972   6.3273   6.3654   6.3957   6.4192   6.4406   6.5159   6.5379
     6.5974   6.6194   6.6372   6.6436   6.6900   6.7157   6.7869   6.7885
     6.8386   6.8761   6.8839   6.9083   6.9213   6.9485   6.9589   6.9811
     7.0152   7.0298   7.1318   7.1439   7.1902   7.2466   7.2829   7.3642
     7.3859   7.4312   7.4605   7.5065   7.5140   7.5455   7.5612   7.5910
     7.6301   7.6563   7.6663   7.7088   7.7326   7.7826   7.8064   7.8398
     7.8825   7.9055   7.9304   7.9859   7.9918   8.0134   8.0556   8.1014
     8.1770   8.1799   8.1937   8.2353   8.2854   8.3487   8.3718   8.3998
     8.4180   8.4272   8.4982   8.5364   8.5911   8.6997   8.7072   8.7540
     8.7751   8.7809   8.7904   8.7930   8.8208   8.9142   8.9519   9.0613
     9.1259   9.5678   9.5911   9.6290   9.6438   9.7212   9.8713  10.1380
    10.2514  10.5324  10.9055  11.0350  11.6351  11.6463  12.2608  12.4248
    13.0098  13.2569  13.6808  14.4551  14.6801  15.2933  16.2411  16.2781
    16.5225  16.6196  16.7223  16.8221  17.0193  17.1116  17.4428  17.5119
    17.6978  17.7895  17.9647  18.0391

          k = 0.3750 0.5774 0.0000 ( 23521 PWs)   bands (ev):

     3.8759   3.9174   4.0969   4.1993   4.2765   4.3277   4.4038   4.4049
     4.4812   4.5260   4.5715   4.5757   4.6440   4.6922   4.7150   4.7625
     4.8095   4.8162   4.8565   4.8691   4.8943   4.9272   4.9444   4.9669
     5.0298   5.0307   5.0550   5.1085   5.1389   5.1717   5.2067   5.2264
     5.3047   5.3714   5.3816   5.4168   5.5142   5.5612   5.6542   5.6792
     5.7953   5.8734   5.8957   6.0107   6.0785   6.1106   6.1483   6.1792
     6.1804   6.3137   6.3250   6.3587   6.4038   6.4616   6.4830   6.5345
     6.5355   6.5462   6.5677   6.5821   6.6167   6.6376   6.7037   6.7391
     6.7548   6.8021   6.8271   6.8495   6.8998   6.9026   6.9772   7.0198
     7.0245   7.0846   7.1099   7.1382   7.1493   7.3090   7.3268   7.3270
     7.3802   7.3989   7.4941   7.5421   7.5817   7.6921   7.6992   7.7394
     7.7634   7.7647   7.7794   7.8572   7.9204   7.9297   7.9500   7.9768
     8.0089   8.0759   8.0902   8.1208   8.1593   8.1871   8.2053   8.2057
     8.2380   8.2548   8.2646   8.2699   8.3155   8.3197   8.3311   8.3334
     8.3506   8.3671   8.4221   8.4440   8.4707   8.5058   8.5387   8.5664
[...]
     8.2271   8.2523   8.2621   8.3193   8.3892   8.4016   8.4456   8.4745
     8.4874   8.5289   8.5302   8.5421   8.5872   8.6197   8.6668   8.6773
     8.6931   8.7113   8.7361   8.7610   8.7943   8.8032   8.9414   9.0720
     9.3846   9.4995   9.9397  10.0193  10.5576  10.6878  11.2462  11.4520
    11.9479  12.3502  12.7583  13.0835  13.4717  14.3282  15.1514  15.4301
    15.7127  15.8922  16.5670  17.0588  17.2568  17.2935  17.4675  17.6255
    17.8846  18.0161  18.2935  18.7486

          k =-0.5000 0.0000-0.0000 ( 23442 PWs)   bands (ev):

     3.1519   3.1520   3.2295   3.2295   3.4741   3.4741   3.6690   3.6691
     3.9633   3.9633   4.2424   4.2425   4.4955   4.4955   4.6890   4.6890
     4.7884   4.7884   4.9151   4.9151   5.0395   5.0395   5.1407   5.1407
     5.1686   5.1687   5.2643   5.2644   5.3356   5.3357   5.5018   5.5019
     5.6065   5.6065   5.7271   5.7271   5.8101   5.8101   5.8964   5.8964
     5.9585   5.9585   5.9737   5.9738   6.0972   6.0973   6.1078   6.1079
     6.2139   6.2140   6.3000   6.3000   6.3713   6.3713   6.4313   6.4313
     6.5351   6.5351   6.5875   6.5875   6.6321   6.6322   6.6466   6.6467
     6.6871   6.6871   6.7096   6.7097   6.7156   6.7157   6.7641   6.7641
     6.8310   6.8310   6.8910   6.8910   6.9033   6.9034   6.9714   6.9714
     7.0241   7.0242   7.1707   7.1708   7.1915   7.1918   7.1994   7.1997
     7.2620   7.2621   7.2861   7.2861   7.3980   7.3980   7.4188   7.4188
     7.4336   7.4336   7.5367   7.5367   7.5473   7.5473   7.5573   7.5574
     7.6385   7.6385   7.6476   7.6477   7.6814   7.6814   7.7568   7.7569
     7.8109   7.8110   7.8367   7.8367   7.9090   7.9090   7.9711   7.9712
     8.0325   8.0326   8.0695   8.0696   8.1034   8.1035   8.1567   8.1567
     8.2522   8.2524   8.3453   8.3454   8.3998   8.3998   8.5696   8.5696
     8.6405   8.6405   8.8021   8.8021   8.8197   8.8197   8.8341   8.8342
     9.2988   9.2988   9.8477   9.8477  10.4665  10.4665  11.1551  11.1552
    11.9604  11.9605  12.8005  12.8005  13.9375  13.9375  14.7877  14.7879
    15.8216  15.8217  16.4009  16.4019  17.3768  17.3773  17.7748  17.7750
    19.1458  19.1463  19.2651  19.2653

          k =-0.5000 0.1443-0.0000 ( 23476 PWs)   bands (ev):

     3.2879   3.2897   3.3643   3.3650   3.5987   3.6020   3.7902   3.7907
     4.0773   4.0778   4.3558   4.3575   4.6195   4.6212   4.8311   4.8351
     4.9254   4.9268   5.0417   5.0486   5.1534   5.1608   5.2369   5.2401
     5.2780   5.2834   5.3277   5.3344   5.4052   5.4077   5.5256   5.5414
     5.6102   5.6208   5.6897   5.6910   5.7424   5.7440   5.8060   5.8115
     5.8435   5.8461   5.8863   5.8904   5.9719   5.9752   6.0054   6.0055
     6.0857   6.0993   6.1396   6.1829   6.2098   6.2379   6.3315   6.3320
     6.4224   6.4576   6.4708   6.5016   6.5228   6.5245   6.5602   6.5777
     6.6119   6.6160   6.6309   6.6385   6.6484   6.6493   6.6908   6.6942
     6.7018   6.7126   6.7190   6.7248   6.7974   6.8191   6.9340   6.9341
     6.9978   7.0033   7.1042   7.1043   7.1911   7.1948   7.2688   7.3013
     7.3554   7.3649   7.3768   7.3801   7.3900   7.3939   7.4204   7.4331
     7.4700   7.4886   7.5534   7.5648   7.5938   7.5978   7.6773   7.6979
     7.7155   7.7224   7.7567   7.7579   7.7871   7.8064   7.8652   7.8810
     7.8963   7.9201   8.0193   8.0279   8.0665   8.0847   8.0993   8.1050
     8.1182   8.1274   8.2094   8.2137   8.2195   8.2335   8.2806   8.2857
     8.3019   8.3033   8.3539   8.3600   8.4336   8.4381   8.4944   8.5196
     8.6373   8.6663   8.7007   8.7067   8.7233   8.7251   8.9939   8.9977
     9.4265   9.4517   9.9562   9.9855  10.5697  10.6046  11.2733  11.2886
    12.0740  12.1015  12.9083  12.9209  14.1515  14.1681  14.9164  14.9379
    15.9382  15.9408  16.4946  16.5090  17.5120  17.5360  17.8321  17.8417
    19.1996  19.2128  19.3488  19.3700

          k =-0.5000 0.2887-0.0000 ( 23540 PWs)   bands (ev):

     3.6456   3.6507   3.7157   3.7185   3.9092   3.9202   4.0792   4.0804
     4.3217   4.3239   4.5688   4.5764   4.8183   4.8314   5.0881   5.0913
     5.2502   5.2564   5.2995   5.3129   5.3341   5.3383   5.3659   5.3660
     5.3937   5.3968   5.4459   5.4613   5.4856   5.4874   5.5120   5.5250
     5.5409   5.5437   5.5739   5.5914   5.6292   5.6507   5.7038   5.7078
     5.7452   5.7653   5.8140   5.8141   5.8213   5.8234   5.9415   5.9782
     6.0206   6.0229   6.0505   6.0600   6.0854   6.0876   6.1344   6.1574
     6.2051   6.2370   6.2518   6.2627   6.3217   6.3349   6.3955   6.4016
     6.4453   6.4598   6.5042   6.5067   6.5263   6.5340   6.5937   6.5941
     6.6112   6.6116   6.6859   6.7359   6.8881   6.9338   6.9601   6.9789
     6.9938   7.0047   7.0314   7.0555   7.1748   7.1751   7.2138   7.2232
     7.2627   7.2791   7.3602   7.3652   7.4215   7.4591   7.5552   7.5561
     7.5992   7.6041   7.6238   7.6320   7.6976   7.7235   7.7765   7.7865
     7.8749   7.8912   7.9545   7.9692   8.0151   8.0201   8.0501   8.0610
     8.1616   8.1855   8.2416   8.2525   8.2658   8.2950   8.3485   8.3662
     8.3884   8.3988   8.4293   8.4373   8.4605   8.4715   8.4850   8.4951
     8.5106   8.5132   8.5325   8.5355   8.5902   8.5924   8.6287   8.6371
     8.6749   8.6755   8.6863   8.6896   8.8476   8.8526   9.2396   9.2607
     9.7084   9.7486  10.2574  10.3024  10.8820  10.9436  11.6074  11.6324
    12.3987  12.4523  13.1919  13.2209  14.7156  14.7590  15.3115  15.3475
    16.2657  16.2832  16.7947  16.8367  17.8636  17.9355  18.0166  18.0279
    19.2606  19.2880  19.3554  19.4035

          k =-0.5000 0.4330-0.0000 ( 23522 PWs)   bands (ev):

     3.9994   4.0097   4.0647   4.0727   4.2230   4.2507   4.3539   4.3574
     4.4871   4.4971   4.6227   4.6360   4.7632   4.7882   4.9120   4.9160
     4.9969   4.9973   5.0502   5.0587   5.1260   5.1265   5.1738   5.1770
     5.2406   5.2510   5.3268   5.3494   5.3707   5.3754   5.4800   5.4866
     5.5266   5.5463   5.5948   5.6055   5.6509   5.6813   5.7646   5.7655
     5.8474   5.8526   5.9497   5.9676   6.0091   6.0322   6.0520   6.0579
     6.1232   6.1439   6.1722   6.1816   6.2230   6.2260   6.3111   6.3159
     6.3945   6.4055   6.4340   6.4434   6.4664   6.4788   6.4951   6.5106
     6.5607   6.5831   6.6596   6.6731   6.7024   6.7048   6.7503   6.7533
     6.7938   6.8239   6.8613   6.8651   6.8864   6.9452   6.9651   7.0079
     7.0354   7.0775   7.1334   7.1367   7.2304   7.2416   7.3770   7.3991
     7.4550   7.4618   7.5194   7.5225   7.5385   7.5565   7.5862   7.5931
     7.6271   7.6276   7.7234   7.7311   7.8239   7.8309   7.8651   7.8662
     7.9906   8.0100   8.1236   8.1536   8.1967   8.2028   8.2588   8.2600
     8.3724   8.3937   8.4526   8.4564   8.4835   8.4849   8.5483   8.5515
     8.5807   8.5948   8.6091   8.6161   8.6397   8.6853   8.7665   8.7681
     8.7819   8.7933   8.8148   8.8314   8.8526   8.8615   8.8814   8.8828
     8.9269   8.9284   9.0117   9.0159   9.2049   9.2058   9.5968   9.6195
    10.1064  10.1515  10.7053  10.7537  11.3596  11.4389  12.1030  12.1332
    12.8754  12.9526  13.6030  13.6457  15.3706  15.4568  15.8636  15.9166
    16.7009  16.7433  17.2029  17.3146  17.5409  17.6070  17.6622  17.7044
    17.9576  17.9977  18.1119  18.1292

          k =-0.5000 0.5774-0.0000 ( 23534 PWs)   bands (ev):

     4.0692   4.0820   4.1402   4.1478   4.3408   4.3773   4.4567   4.4678
     4.4927   4.5061   4.5173   4.5245   4.6191   4.6293   4.6799   4.6906
     4.7625   4.7693   4.7872   4.7946   4.8377   4.8562   4.8963   4.9122
     4.9978   5.0140   5.0598   5.0837   5.1375   5.1395   5.2529   5.2567
     5.2760   5.2860   5.3789   5.3850   5.5632   5.5779   5.7022   5.7427
     5.8596   5.8778   6.0233   6.0551   6.1564   6.1793   6.2711   6.3038
     6.3281   6.3281   6.3725   6.3748   6.4522   6.4653   6.4935   6.4940
     6.5237   6.5310   6.5822   6.5886   6.6231   6.6336   6.7330   6.7368
     6.7761   6.7926   6.8925   6.8982   6.9649   6.9765   7.0588   7.0684
     7.0946   7.0985   7.2314   7.2366   7.2870   7.2968   7.3986   7.4086
     7.4732   7.4810   7.5853   7.5951   7.6587   7.7094   7.7258   7.8118
     7.8525   7.8721   7.9062   7.9190   7.9235   7.9453   7.9985   8.0221
     8.0676   8.1369   8.1823   8.1823   8.2097   8.2151   8.2171   8.2184
     8.2480   8.2507   8.2922   8.3177   8.4173   8.4272   8.4387   8.4481
     8.5323   8.5468   8.5752   8.5783   8.5941   8.5996   8.6711   8.7023
     8.7369   8.7377   8.7565   8.7766   8.7873   8.8367   8.8993   8.9053
     8.9135   8.9608   9.1479   9.1552   9.2116   9.2186   9.3198   9.3305
     9.3626   9.3788   9.4610   9.4769   9.6839   9.6993  10.1047  10.1105
    10.6573  10.6920  11.3149  11.3510  12.0065  12.0932  12.7613  12.7964
    13.5080  13.6135  14.1736  14.2132  15.2682  15.2892  15.4052  15.4181
    15.5363  15.5693  15.7187  15.7380  15.9548  15.9978  16.3814  16.4138
    16.8726  16.8783  17.1604  17.1795

          k =-0.5000 0.7217-0.0000 ( 23516 PWs)   bands (ev):

     4.0191   4.0306   4.0901   4.0963   4.2935   4.2945   4.3017   4.3200
     4.3632   4.3698   4.4492   4.4520   4.5202   4.5237   4.5644   4.5775
     4.5925   4.5964   4.6274   4.6315   4.6771   4.6787   4.7286   4.7336
     4.8219   4.8340   4.8848   4.8956   4.9737   4.9783   5.0753   5.0761
     5.1045   5.1069   5.2552   5.2604   5.4951   5.4977   5.6883   5.7496
     5.9026   5.9261   6.0515   6.1138   6.1851   6.1883   6.2248   6.2426
     6.3089   6.3170   6.3348   6.3411   6.3938   6.4102   6.4436   6.4693
     6.4944   6.5024   6.6876   6.6963   6.7844   6.7926   6.8413   6.8614
     6.9112   6.9388   7.0591   7.0595   7.1410   7.1540   7.2377   7.2573
     7.3886   7.3892   7.4946   7.5479   7.6062   7.6152   7.7005   7.7377
     7.8442   7.8752   7.9258   7.9671   8.0715   8.0956   8.1670   8.1708
     8.2760   8.3094   8.3915   8.4017   8.4434   8.4531   8.4850   8.5277
     8.5628   8.5663   8.5855   8.5909   8.6256   8.6273   8.6674   8.6727
     8.6929   8.6935   8.7175   8.7179   8.7268   8.7272   8.7486   8.7624
     8.7687   8.7830   8.7845   8.8039   8.8040   8.8183   8.8318   8.8415
     8.8597   8.8714   8.9293   8.9359   8.9610   9.0230   9.0679   9.0680
     9.0725   9.0840   9.6318   9.6676   9.7842   9.7877  10.0476  10.0869
    10.1701  10.2046  10.3013  10.3300  10.4793  10.5239  10.8426  10.8847
    11.3875  11.3980  12.0171  12.0475  12.6862  12.7180  13.2737  13.3128
    13.4667  13.4688  13.5045  13.5123  13.8312  13.8710  13.9245  13.9895
    14.0918  14.3719  14.4786  14.5851  14.7164  14.9508  15.1167  15.1229
    15.3377  15.4595  15.8221  15.8752

          k =-0.5000-0.8660-0.0000 ( 23552 PWs)   bands (ev):

     3.9909   4.0016   4.0613   4.0671   4.2281   4.2325   4.2616   4.2705
     4.3059   4.3247   4.4082   4.4141   4.4780   4.4810   4.5089   4.5149
     4.5431   4.5442   4.5665   4.5668   4.6186   4.6262   4.6703   4.6727
     4.7515   4.7786   4.8200   4.8204   4.9160   4.9194   5.0137   5.0153
     5.0417   5.0458   5.2113   5.2180   5.4620   5.4690   5.6771   5.7440
     5.9139   5.9403   6.0611   6.1211   6.1549   6.1685   6.1901   6.2402
     6.2953   6.3038   6.3111   6.3160   6.3704   6.3765   6.4227   6.4352
     6.4986   6.6053   6.6748   6.7023   6.8131   6.8327   6.8853   6.9309
     6.9825   7.0315   7.0908   7.0959   7.2026   7.2028   7.3121   7.3271
     7.4029   7.4349   7.5876   7.5887   7.6604   7.7153   7.8308   7.8678
     7.9021   7.9416   8.0886   8.0915   8.1428   8.1429   8.3145   8.3179
     8.3950   8.4028   8.4949   8.5144   8.5290   8.5701   8.6531   8.6822
     8.6886   8.7133   8.7280   8.7299   8.7768   8.7769   8.8015   8.8017
     8.8211   8.8212   8.8478   8.8483   8.8641   8.8653   8.8675   8.8864
     8.9032   8.9099   8.9196   8.9260   8.9632   8.9666   8.9778   8.9941
     8.9944   9.0137   9.0281   9.0436   9.0440   9.0723   9.2302   9.2304
     9.2352   9.2354  10.2615  10.3678  10.5092  10.5243  10.9127  11.0090
    11.1524  11.2267  11.4289  11.4505  11.5771  11.6184  11.6966  11.7320
    11.7760  11.7936  11.8454  11.8634  11.8738  11.8825  12.0310  12.1200
    12.1201  12.1266  12.1271  12.7978  13.0254  13.6636  13.6999  13.7587
    13.8131  14.1379  14.2160  14.3267  14.4018  14.6686  14.7796  14.9670
    15.0188  15.1377  15.5182  15.6887

     the Fermi energy is    10.7165 ev

!    total energy              =  -20153.50311114 Ry

     total all-electron energy =   -988623.501478 Ry
     estimated scf accuracy    <          3.5E-09 Ry
     smearing contrib. (-TS)   =      -0.00026270 Ry
     internal energy E=F+TS    =  -20153.50284844 Ry

     The total energy is F=E-TS. E is the sum of the following terms:
     one-electron contribution =   -8161.09761653 Ry
     hartree contribution      =    4406.10975273 Ry
     xc contribution           =    -833.49426198 Ry
     ewald contribution        =    2440.29456704 Ry
     one-center paw contrib.   =  -18005.31528969 Ry

     convergence has been achieved in  16 iterations

     negative rho (up, down):  2.054E-03 0.000E+00

     Forces acting on atoms (cartesian axes, Ry/au):

     atom    1 type  1   force =    -0.00007485    0.00000924    0.00004258
     atom    2 type  1   force =     0.00006096   -0.00000861   -0.00086910
     atom    3 type  1   force =     0.00012074    0.00000396    0.00032626
     atom    4 type  1   force =     0.00486557    0.00405465   -0.00072201
     atom    5 type  1   force =    -0.00006652    0.00002361    0.00073221
     atom    6 type  1   force =     0.00007284   -0.00003172   -0.00041970
     atom    7 type  1   force =    -0.00006884   -0.00003956   -0.00027493
     atom    8 type  1   force =    -0.00477828   -0.00416918    0.00074233
     atom    9 type  1   force =     0.00006966   -0.00007510    0.00009116
     atom   10 type  1   force =     0.00003529    0.00001309   -0.00045476
     atom   11 type  1   force =    -0.00007265    0.00005307    0.00025506
     atom   12 type  1   force =    -0.00012839    0.00070274    0.00008089
     atom   13 type  1   force =    -0.00004178   -0.00053331    0.00045363
     atom   14 type  1   force =     0.00008723   -0.00003172   -0.00041105
     atom   15 type  1   force =    -0.00007141   -0.00003364   -0.00027479
     atom   16 type  1   force =    -0.00477868   -0.00416946    0.00074461
     atom   17 type  1   force =     0.00007030   -0.00007509    0.00009222
     atom   18 type  1   force =     0.00002206    0.00000922   -0.00044978
     atom   19 type  1   force =    -0.00008072    0.00005370    0.00025652
     atom   20 type  1   force =    -0.00012655    0.00070435    0.00008363
     atom   21 type  1   force =    -0.00004172   -0.00053153    0.00045503
     atom   22 type  1   force =    -0.00007078   -0.00000121    0.00003155
     atom   23 type  1   force =     0.00007062   -0.00000948   -0.00085052
     atom   24 type  1   force =     0.00012354    0.00000162    0.00032573
     atom   25 type  1   force =     0.00486666    0.00405329   -0.00072020
     atom   26 type  1   force =    -0.00006429    0.00002708    0.00073343

     Total force =     0.002528     Total SCF correction =     0.000192
     Energy error            =      1.2E-05 Ry
     Gradient error          =      8.7E-04 Ry/Bohr

     bfgs converged in  32 scf cycles and  31 bfgs steps
     (criteria: energy <  1.0E-04 Ry, force <  1.0E-03 Ry/Bohr)

     End of BFGS Geometry Optimization

     Final energy             =  -20153.5031111392 Ry

     File ./pwscf.bfgs deleted, as requested
Begin final coordinates

ATOMIC_POSITIONS (angstrom)
Au            0.0000000000        0.0000000000       -0.0932631946    0   0   1
Au            5.0991277561        0.8832000000       28.9723603699    0   0   1
Au            5.0991339819        0.8832000000       21.7309470458    0   0   1
Au            5.0991389889        0.0000000000       14.3397308925    0   0   1
Au            5.0991452147        0.0000000000        7.1226007803    0   0   1
Au            1.6997150733        0.0000000000        2.3392933276    0   0   1
Au            1.6996977676        0.8832000000       24.1380952875    0   0   1
Au            1.6997039934        0.8832000000       16.9111701437    0   0   1
Au            1.6997090005        0.0000000000        9.5221752308    0   0   1
Au            3.3994301414        0.0000000000        4.7266270091    0   0   1
Au            3.3994129888        0.8832000000       26.5319162568    0   0   1
Au            3.3994189086        0.8832000000       19.3271867618    0   0   1
Au            3.3994248284        0.0000000000       11.9247191627    0   0   1
Au            4.2492909414        1.4719970299        2.3391870988    0   0   1
Au            4.2492725751        2.3551970299       24.1381099371    0   0   1
Au            4.2492788009        2.3551970299       16.9111462869    0   0   1
Au            4.2492850215        1.4719970299        9.5221723954    0   0   1
Au            0.8498539674        1.4719970299        4.7266499153    0   0   1
Au            0.8498368147        2.3551970299       26.5319329875    0   0   1
Au            0.8498428875        2.3551970299       19.3271819298    0   0   1
Au            0.8498488838        1.4719970299       11.9247281529    0   0   1
Au            2.5495761740        1.4719970299       -0.0931117734    0   0   1
Au            2.5495526478        2.3551970299       28.9722302738    0   0   1
Au            2.5495578078        2.3551970299       21.7309808013    0   0   1
Au            2.5495637276        1.4719970299       14.3397502683    0   0   1
Au            2.5495699534        1.4719970299        7.1225481287    0   0   1
End final coordinates



     Writing all to output data dir ./pwscf.save/
 
     init_run     :     23.96s CPU     25.88s WALL (       1 calls)
     electrons    :  32256.83s CPU  32482.03s WALL (      32 calls)
     update_pot   :     18.76s CPU     18.87s WALL (      31 calls)
     forces       :    334.19s CPU    336.18s WALL (      32 calls)

     Called by init_run:
     wfcinit      :     23.19s CPU     24.08s WALL (       1 calls)
     potinit      :      0.41s CPU      0.66s WALL (       1 calls)
     hinit0       :      0.23s CPU      0.85s WALL (       1 calls)

     Called by electrons:
     c_bands      :  28798.80s CPU  28986.99s WALL (     534 calls)
     sum_band     :   3259.90s CPU   3289.07s WALL (     534 calls)
     v_of_rho     :     15.91s CPU     17.13s WALL (     545 calls)
     newd         :     42.19s CPU     46.06s WALL (     545 calls)
     PAW_pot      :    156.67s CPU    157.23s WALL (     576 calls)
     mix_rho      :      3.29s CPU      3.32s WALL (     534 calls)

     Called by c_bands:
     init_us_2    :    367.82s CPU    370.87s WALL (   56600 calls)
     init_us_2:cp :    367.42s CPU    370.71s WALL (   56600 calls)
     cegterg      :  27149.80s CPU  27328.01s WALL (   26700 calls)

     Called by *egterg:
     cdiaghg      :   1529.57s CPU   1541.07s WALL (   86890 calls)
     h_psi        :  14318.28s CPU  14436.77s WALL (   89540 calls)
     s_psi        :   2695.59s CPU   2705.66s WALL (   89540 calls)
     g_psi        :     59.61s CPU     60.45s WALL (   62790 calls)

     Called by h_psi:
     h_psi:calbec :   2574.21s CPU   2583.03s WALL (   89540 calls)
     vloc_psi     :   8672.37s CPU   8764.12s WALL (   89540 calls)
     add_vuspsi   :   2943.71s CPU   2956.99s WALL (   89540 calls)

     General routines
     calbec       :   3891.42s CPU   3904.63s WALL (  124190 calls)
     fft          :     15.01s CPU     16.63s WALL (    6399 calls)
     ffts         :      0.55s CPU      0.55s WALL (     534 calls)
     fftw         :   9756.06s CPU   9845.11s WALL (26677920 calls)
 
     Parallel routines
 
     PWSCF        :      9h 5m CPU      9h 9m WALL

 
   This run was terminated on:  16:49:12  15Feb2024            

=------------------------------------------------------------------------------=
   JOB DONE.
=------------------------------------------------------------------------------=
