MPI startup(): Warning: I_MPI_PMI_LIBRARY will be ignored since the hydra process manager was found
MPI startup(): Warning: I_MPI_PMI_LIBRARY will be ignored since the hydra process manager was found
MPI startup(): Warning: I_MPI_PMI_LIBRARY will be ignored since the hydra process manager was found
MPI startup(): Warning: I_MPI_PMI_LIBRARY will be ignored since the hydra process manager was found
MPI startup(): Warning: I_MPI_PMI_LIBRARY will be ignored since the hydra process manager was found
MPI startup(): Warning: I_MPI_PMI_LIBRARY will be ignored since the hydra process manager was found
MPI startup(): Warning: I_MPI_PMI_LIBRARY will be ignored since the hydra process manager was found
MPI startup(): Warning: I_MPI_PMI_LIBRARY will be ignored since the hydra process manager was found
MPI startup(): Warning: I_MPI_PMI_LIBRARY will be ignored since the hydra process manager was found
MPI startup(): Warning: I_MPI_PMI_LIBRARY will be ignored since the hydra process manager was found

     Program PWSCF v.7.0 starts on 16Feb2024 at  9:39:44 

     This program is part of the open-source Quantum ESPRESSO suite
     for quantum simulation of materials; please cite
         "P. Giannozzi et al., J. Phys.:Condens. Matter 21 395502 (2009);
         "P. Giannozzi et al., J. Phys.:Condens. Matter 29 465901 (2017);
         "P. Giannozzi et al., J. Chem. Phys. 152 154105 (2020);
          URL http://www.quantum-espresso.org", 
     in publications or presentations arising from this work. More details at
     http://www.quantum-espresso.org/quote

     Parallel version (MPI), running on    10 processors

     MPI processes distributed on     1 nodes
     R & G space division:  proc/nbgrp/npool/nimage =      10
     174671 MiB available memory on the printing compute node when the environment starts
 
     Reading input from GSF111R_0.5.in
Warning: card &CELL ignored
Warning: card / ignored

     Current dimensions of program PWSCF are:
     Max number of different atomic species (ntypx) = 10
     Max number of k-points (npk) =  40000
     Max angular momentum in pseudopotentials (lmaxx) =  4
     file Au.pbe-n-kjpaw_psl.1.0.0.UPF: wavefunction(s)  6S 5D renormalized
     Found identity + ( -0.5000  0.5000  0.0000) symmetry
     This is a supercell, fractional translations are disabled

     Subspace diagonalization in iterative solution of the eigenvalue problem:
     one sub-group per band group will be used
     scalapack distributed-memory algorithm (size of sub-group:  3*  3 procs)

 
     Parallelization info
     --------------------
     sticks:   dense  smooth     PW     G-vecs:    dense   smooth      PW
     Min          85      85     25                18799    18799    3045
     Max          87      87     26                18816    18816    3065
     Sum         859     859    251               188065   188065   30575
 
     Using Slab Decomposition
 


     bravais-lattice index     =            0
     lattice parameter (alat)  =       9.6360  a.u.
     unit-cell volume          =    3935.2145 (a.u.)^3
     number of atoms/cell      =           26
     number of atomic types    =            1
     number of electrons       =       286.00
     number of Kohn-Sham states=          172
     kinetic-energy cutoff     =      50.0000  Ry
     charge density cutoff     =     200.0000  Ry
     scf convergence threshold =      1.0E-06
     mixing beta               =       0.0800
     number of iterations used =            8  plain     mixing
     energy convergence thresh.=      1.0E-04
     force convergence thresh. =      1.0E-03
     Exchange-correlation= SLA  PW   PBX  PBC
                           (   1   4   3   4   0   0   0)
     nstep                     =           50


     celldm(1)=   9.635999  celldm(2)=   0.000000  celldm(3)=   0.000000
     celldm(4)=   0.000000  celldm(5)=   0.000000  celldm(6)=   0.000000

     crystal axes: (cart. coord. in units of alat)
               a(1) = (   1.000000   0.000000   0.000000 )  
               a(2) = (   0.000000   0.577350   0.000000 )  
               a(3) = (  -0.000005   0.000000   7.617966 )  

     reciprocal axes: (cart. coord. in units 2 pi/alat)
               b(1) = (  1.000000  0.000000  0.000001 )  
               b(2) = (  0.000000  1.732052  0.000000 )  
               b(3) = (  0.000000  0.000000  0.131269 )  


     PseudoPot. # 1 for Au read from file:
     ./Au.pbe-n-kjpaw_psl.1.0.0.UPF
     MD5 check sum: 4db85c736373c707a97ce4c36c2a9d23
     Pseudo is Projector augmented-wave + core cor, Zval = 11.0
     Generated using &quot;atomic&quot; code by A. Dal Corso  v.6.3
     Shape of augmentation charge: PSQ
     Using radial grid of 1279 points,  6 beta functions with: 
                l(1) =   0
                l(2) =   0
                l(3) =   1
                l(4) =   1
                l(5) =   2
                l(6) =   2
     Q(r) pseudized with 0 coefficients 


     atomic species   valence    mass     pseudopotential
        Au            11.00   196.96657     Au( 1.00)

     No symmetry found



   Cartesian axes

     site n.     atom                  positions (alat units)
         1           Au  tau(   1) = (   0.0000000   0.0000000   0.0000000  )
         2           Au  tau(   2) = (   0.9999954   0.2886755   5.6568550  )
         3           Au  tau(   3) = (   0.9999966   0.2886755   4.2426411  )
         4           Au  tau(   4) = (   0.9999976   0.0000000   2.8284275  )
         5           Au  tau(   5) = (   0.9999988   0.0000000   1.4142138  )
         6           Au  tau(   6) = (   0.3333329   0.0000000   0.4714045  )
         7           Au  tau(   7) = (   0.3333296   0.2886755   4.7140455  )
         8           Au  tau(   8) = (   0.3333308   0.2886755   3.2998319  )
         9           Au  tau(   9) = (   0.3333318   0.0000000   1.8856185  )
        10           Au  tau(  10) = (   0.6666659   0.0000000   0.9428093  )
        11           Au  tau(  11) = (   0.6666625   0.2886755   5.1854506  )
        12           Au  tau(  12) = (   0.6666637   0.2886755   3.7712367  )
        13           Au  tau(  13) = (   0.6666649   0.0000000   2.3570234  )
        14           Au  tau(  14) = (   0.8333330   0.2886749   0.4714045  )
        15           Au  tau(  15) = (   0.8333294   0.5773504   4.7140455  )
        16           Au  tau(  16) = (   0.8333306   0.5773504   3.2998319  )
        17           Au  tau(  17) = (   0.8333318   0.2886749   1.8856185  )
        18           Au  tau(  18) = (   0.1666658   0.2886749   0.9428093  )
        19           Au  tau(  19) = (   0.1666624   0.5773504   5.1854506  )
        20           Au  tau(  20) = (   0.1666636   0.5773504   3.7712367  )
        21           Au  tau(  21) = (   0.1666648   0.2886749   2.3570234  )
        22           Au  tau(  22) = (   0.5000001   0.2886749   0.0000000  )
        23           Au  tau(  23) = (   0.4999955   0.5773504   5.6568550  )
        24           Au  tau(  24) = (   0.4999965   0.5773504   4.2426411  )
        25           Au  tau(  25) = (   0.4999977   0.2886749   2.8284275  )
        26           Au  tau(  26) = (   0.4999989   0.2886749   1.4142138  )

     number of k points=    50  Gaussian smearing, width (Ry)=  0.0020
                       cart. coord. in units 2pi/alat
        k(    1) = (   0.0000000   0.0000000   0.0000000), wk =   0.0208333
        k(    2) = (   0.0000000   0.1443376   0.0000000), wk =   0.0416667
        k(    3) = (   0.0000000   0.2886753   0.0000000), wk =   0.0416667
        k(    4) = (   0.0000000   0.4330129   0.0000000), wk =   0.0416667
        k(    5) = (   0.0000000   0.5773506   0.0000000), wk =   0.0416667
        k(    6) = (   0.0000000   0.7216882   0.0000000), wk =   0.0416667
        k(    7) = (   0.0000000  -0.8660259   0.0000000), wk =   0.0208333
        k(    8) = (   0.1250000   0.0000000   0.0000001), wk =   0.0416667
        k(    9) = (   0.1250000   0.1443376   0.0000001), wk =   0.0416667
        k(   10) = (   0.1250000   0.2886753   0.0000001), wk =   0.0416667
        k(   11) = (   0.1250000   0.4330129   0.0000001), wk =   0.0416667
        k(   12) = (   0.1250000   0.5773506   0.0000001), wk =   0.0416667
        k(   13) = (   0.1250000   0.7216882   0.0000001), wk =   0.0416667
        k(   14) = (   0.1250000  -0.8660259   0.0000001), wk =   0.0416667
        k(   15) = (   0.1250000  -0.7216882   0.0000001), wk =   0.0416667
        k(   16) = (   0.1250000  -0.5773506   0.0000001), wk =   0.0416667
        k(   17) = (   0.1250000  -0.4330129   0.0000001), wk =   0.0416667
        k(   18) = (   0.1250000  -0.2886753   0.0000001), wk =   0.0416667
        k(   19) = (   0.1250000  -0.1443376   0.0000001), wk =   0.0416667
        k(   20) = (   0.2500000   0.0000000   0.0000002), wk =   0.0416667
        k(   21) = (   0.2500000   0.1443376   0.0000002), wk =   0.0416667
        k(   22) = (   0.2500000   0.2886753   0.0000002), wk =   0.0416667
        k(   23) = (   0.2500000   0.4330129   0.0000002), wk =   0.0416667
        k(   24) = (   0.2500000   0.5773506   0.0000002), wk =   0.0416667
        k(   25) = (   0.2500000   0.7216882   0.0000002), wk =   0.0416667
        k(   26) = (   0.2500000  -0.8660259   0.0000002), wk =   0.0416667
        k(   27) = (   0.2500000  -0.7216882   0.0000002), wk =   0.0416667
        k(   28) = (   0.2500000  -0.5773506   0.0000002), wk =   0.0416667
        k(   29) = (   0.2500000  -0.4330129   0.0000002), wk =   0.0416667
        k(   30) = (   0.2500000  -0.2886753   0.0000002), wk =   0.0416667
        k(   31) = (   0.2500000  -0.1443376   0.0000002), wk =   0.0416667
        k(   32) = (   0.3750000   0.0000000   0.0000002), wk =   0.0416667
        k(   33) = (   0.3750000   0.1443376   0.0000002), wk =   0.0416667
        k(   34) = (   0.3750000   0.2886753   0.0000002), wk =   0.0416667
        k(   35) = (   0.3750000   0.4330129   0.0000002), wk =   0.0416667
        k(   36) = (   0.3750000   0.5773506   0.0000002), wk =   0.0416667
        k(   37) = (   0.3750000   0.7216882   0.0000002), wk =   0.0416667
        k(   38) = (   0.3750000  -0.8660259   0.0000002), wk =   0.0416667
        k(   39) = (   0.3750000  -0.7216882   0.0000002), wk =   0.0416667
        k(   40) = (   0.3750000  -0.5773506   0.0000002), wk =   0.0416667
        k(   41) = (   0.3750000  -0.4330129   0.0000002), wk =   0.0416667
        k(   42) = (   0.3750000  -0.2886753   0.0000002), wk =   0.0416667
        k(   43) = (   0.3750000  -0.1443376   0.0000002), wk =   0.0416667
        k(   44) = (  -0.5000000   0.0000000  -0.0000003), wk =   0.0208333
        k(   45) = (  -0.5000000   0.1443376  -0.0000003), wk =   0.0416667
        k(   46) = (  -0.5000000   0.2886753  -0.0000003), wk =   0.0416667
        k(   47) = (  -0.5000000   0.4330129  -0.0000003), wk =   0.0416667
        k(   48) = (  -0.5000000   0.5773506  -0.0000003), wk =   0.0416667
        k(   49) = (  -0.5000000   0.7216882  -0.0000003), wk =   0.0416667
        k(   50) = (  -0.5000000  -0.8660259  -0.0000003), wk =   0.0208333

     Dense  grid:   188065 G-vectors     FFT dimensions: (  45,  25, 360)

     Estimated max dynamical RAM per process >     418.32 MB

     Estimated total dynamical RAM >       4.09 GB

     Initial potential from superposition of free atoms

     starting charge     285.9971, renormalised to     286.0000

     negative rho (up, down):  2.503E-03 0.000E+00
     Starting wfcs are  234 randomized atomic wfcs
     Checking if some PAW data can be deallocated... 

     total cpu time spent up to now is       28.1 secs

     Self-consistent Calculation

     iteration #  1     ecut=    50.00 Ry     beta= 0.08
     Davidson diagonalization with overlap
     ethr =  1.00E-02,  avg # of iterations =  5.1

     Threshold (ethr) on eigenvalues was too large:
     Diagonalizing with lowered threshold

     Davidson diagonalization with overlap
     ethr =  3.83E-04,  avg # of iterations =  4.1

     negative rho (up, down):  2.394E-03 0.000E+00

     total cpu time spent up to now is      173.1 secs

     total energy              =  -20153.67646466 Ry
     estimated scf accuracy    <       1.41527059 Ry

     iteration #  2     ecut=    50.00 Ry     beta= 0.08
     Davidson diagonalization with overlap
     ethr =  4.95E-04,  avg # of iterations =  3.4

     negative rho (up, down):  2.391E-03 0.000E+00

     total cpu time spent up to now is      227.7 secs

     total energy              =  -20153.63286507 Ry
     estimated scf accuracy    <       6.53395192 Ry

     iteration #  3     ecut=    50.00 Ry     beta= 0.08
     Davidson diagonalization with overlap
     ethr =  4.95E-04,  avg # of iterations =  1.1

     negative rho (up, down):  2.319E-03 0.000E+00

     total cpu time spent up to now is      276.0 secs

     total energy              =  -20153.57951752 Ry
     estimated scf accuracy    <       1.11898191 Ry

     iteration #  4     ecut=    50.00 Ry     beta= 0.08
     Davidson diagonalization with overlap
     ethr =  3.91E-04,  avg # of iterations =  1.0

     negative rho (up, down):  2.230E-03 0.000E+00

     total cpu time spent up to now is      324.2 secs

     total energy              =  -20153.42787215 Ry
     estimated scf accuracy    <       0.86687112 Ry

     iteration #  5     ecut=    50.00 Ry     beta= 0.08
     Davidson diagonalization with overlap
     ethr =  3.03E-04,  avg # of iterations =  5.6

     negative rho (up, down):  2.119E-03 0.000E+00

     total cpu time spent up to now is      381.5 secs

     total energy              =  -20153.30407564 Ry
     estimated scf accuracy    <      10.89586943 Ry

     iteration #  6     ecut=    50.00 Ry     beta= 0.08
     Davidson diagonalization with overlap
     ethr =  3.03E-04,  avg # of iterations =  1.4

     negative rho (up, down):  2.149E-03 0.000E+00

     total cpu time spent up to now is      431.7 secs

     total energy              =  -20153.44411721 Ry
     estimated scf accuracy    <       0.05580513 Ry

     iteration #  7     ecut=    50.00 Ry     beta= 0.08
     Davidson diagonalization with overlap
     c_bands:  2 eigenvalues not converged
     c_bands:  3 eigenvalues not converged
     c_bands:  1 eigenvalues not converged
     c_bands:  1 eigenvalues not converged
     c_bands:  2 eigenvalues not converged
     c_bands:  1 eigenvalues not converged
     c_bands:  1 eigenvalues not converged
     c_bands:  1 eigenvalues not converged
     c_bands:  1 eigenvalues not converged
     ethr =  1.95E-05,  avg # of iterations = 15.0

     negative rho (up, down):  2.176E-03 0.000E+00

     total cpu time spent up to now is      555.8 secs

     total energy              =  -20153.47711979 Ry
     estimated scf accuracy    <       0.04115359 Ry

     iteration #  8     ecut=    50.00 Ry     beta= 0.08
     Davidson diagonalization with overlap
     c_bands:  2 eigenvalues not converged
     c_bands:  1 eigenvalues not converged
     ethr =  1.44E-05,  avg # of iterations =  2.9

     negative rho (up, down):  2.162E-03 0.000E+00

     total cpu time spent up to now is      610.4 secs

     total energy              =  -20153.48025696 Ry
     estimated scf accuracy    <       0.02180304 Ry

     iteration #  9     ecut=    50.00 Ry     beta= 0.08
     Davidson diagonalization with overlap
     ethr =  7.62E-06,  avg # of iterations =  1.5

     negative rho (up, down):  2.273E-03 0.000E+00

     total cpu time spent up to now is      660.2 secs

     total energy              =  -20153.48098331 Ry
     estimated scf accuracy    <       0.02630385 Ry

     iteration # 10     ecut=    50.00 Ry     beta= 0.08
     Davidson diagonalization with overlap
     ethr =  7.62E-06,  avg # of iterations =  5.1

     negative rho (up, down):  2.273E-03 0.000E+00

     total cpu time spent up to now is      716.9 secs

     total energy              =  -20153.48100679 Ry
     estimated scf accuracy    <       0.01412466 Ry

     iteration # 11     ecut=    50.00 Ry     beta= 0.08
     Davidson diagonalization with overlap
     ethr =  4.94E-06,  avg # of iterations =  1.2

     negative rho (up, down):  2.288E-03 0.000E+00

     total cpu time spent up to now is      765.7 secs

     total energy              =  -20153.47931805 Ry
     estimated scf accuracy    <       0.01140312 Ry

     iteration # 12     ecut=    50.00 Ry     beta= 0.08
     Davidson diagonalization with overlap
     ethr =  3.99E-06,  avg # of iterations =  1.3

     negative rho (up, down):  2.328E-03 0.000E+00

     total cpu time spent up to now is      814.9 secs

     total energy              =  -20153.47578816 Ry
     estimated scf accuracy    <       0.00731435 Ry

     iteration # 13     ecut=    50.00 Ry     beta= 0.08
     Davidson diagonalization with overlap
     c_bands:  1 eigenvalues not converged
     c_bands:  1 eigenvalues not converged
     ethr =  2.56E-06,  avg # of iterations =  6.1

     negative rho (up, down):  2.310E-03 0.000E+00

     total cpu time spent up to now is      887.4 secs

     total energy              =  -20153.47748624 Ry
     estimated scf accuracy    <       0.00289099 Ry

     iteration # 14     ecut=    50.00 Ry     beta= 0.08
     Davidson diagonalization with overlap
     ethr =  1.01E-06,  avg # of iterations =  2.2

     negative rho (up, down):  2.325E-03 0.000E+00

     total cpu time spent up to now is      940.3 secs

     total energy              =  -20153.47727703 Ry
     estimated scf accuracy    <       0.00154158 Ry

     iteration # 15     ecut=    50.00 Ry     beta= 0.08
     Davidson diagonalization with overlap
     ethr =  5.39E-07,  avg # of iterations =  1.0

     negative rho (up, down):  2.328E-03 0.000E+00

     total cpu time spent up to now is      988.2 secs

     total energy              =  -20153.47734767 Ry
     estimated scf accuracy    <       0.00023590 Ry

     iteration # 16     ecut=    50.00 Ry     beta= 0.08
     Davidson diagonalization with overlap
     ethr =  8.25E-08,  avg # of iterations =  3.6

     negative rho (up, down):  2.330E-03 0.000E+00

     total cpu time spent up to now is     1068.7 secs

     total energy              =  -20153.47739162 Ry
     estimated scf accuracy    <       0.00048839 Ry

     iteration # 17     ecut=    50.00 Ry     beta= 0.08
     Davidson diagonalization with overlap
     ethr =  8.25E-08,  avg # of iterations =  2.0

     negative rho (up, down):  2.329E-03 0.000E+00

     total cpu time spent up to now is     1132.8 secs

     total energy              =  -20153.47743251 Ry
     estimated scf accuracy    <       0.00001113 Ry

     iteration # 18     ecut=    50.00 Ry     beta= 0.08
     Davidson diagonalization with overlap
     ethr =  3.89E-09,  avg # of iterations =  8.0

     negative rho (up, down):  2.328E-03 0.000E+00

     total cpu time spent up to now is     1296.3 secs

     total energy              =  -20153.47744664 Ry
     estimated scf accuracy    <       0.00001281 Ry

     iteration # 19     ecut=    50.00 Ry     beta= 0.08
     Davidson diagonalization with overlap
     ethr =  3.89E-09,  avg # of iterations =  2.0

     negative rho (up, down):  2.328E-03 0.000E+00

     total cpu time spent up to now is     1363.4 secs

     total energy              =  -20153.47745220 Ry
     estimated scf accuracy    <       0.00000552 Ry

     iteration # 20     ecut=    50.00 Ry     beta= 0.08
     Davidson diagonalization with overlap
     ethr =  1.93E-09,  avg # of iterations =  2.0

     negative rho (up, down):  2.330E-03 0.000E+00

     total cpu time spent up to now is     1417.7 secs

     total energy              =  -20153.47745289 Ry
     estimated scf accuracy    <       0.00000571 Ry

     iteration # 21     ecut=    50.00 Ry     beta= 0.08
     Davidson diagonalization with overlap
     ethr =  1.93E-09,  avg # of iterations =  1.0

     negative rho (up, down):  2.331E-03 0.000E+00

     total cpu time spent up to now is     1465.8 secs

     total energy              =  -20153.47745392 Ry
     estimated scf accuracy    <       0.00000237 Ry

     iteration # 22     ecut=    50.00 Ry     beta= 0.08
     Davidson diagonalization with overlap
     ethr =  8.27E-10,  avg # of iterations =  2.0

     negative rho (up, down):  2.334E-03 0.000E+00

     total cpu time spent up to now is     1529.1 secs

     End of self-consistent calculation

          k = 0.0000 0.0000 0.0000 ( 23605 PWs)   bands (ev):

     1.5124   1.6493   1.8934   2.1931   2.5594   2.9502   3.3265   3.6281
     3.8211   3.8858   3.9236   4.0064   4.0641   4.0735   4.0756   4.2063
     4.2194   4.2819   4.4018   4.4317   4.4660   4.5525   4.5610   4.6017
     4.6349   4.6812   4.8491   4.9392   5.0002   5.0502   5.2172   5.3009
     5.3976   5.4513   5.7488   5.9848   6.1441   6.1722   6.1879   6.2279
     6.2469   6.2685   6.3094   6.3216   6.3243   6.3251   6.3311   6.3457
     6.3520   6.3524   6.3680   6.3895   6.4048   6.4121   6.4167   6.4254
     6.4412   6.4725   6.4771   6.4784   6.5114   6.5233   6.5368   6.5524
     6.5595   6.5611   6.5656   6.5902   6.5952   6.6209   6.6307   6.6988
     6.7377   6.7668   6.8711   6.8713   6.8754   6.8756   6.9127   6.9915
     7.0541   7.1404   7.1667   7.2610   7.4922   7.5484   7.6596   7.6626
     7.6686   7.6731   7.6834   7.6916   7.6980   7.7119   7.7333   7.7524
     7.7678   7.8426   7.8525   7.8617   7.8972   7.9478   7.9985   8.0264
     8.0458   8.1284   8.1665   8.1877   8.3105   8.3517   8.3790   8.3901
     8.5102   8.5173   8.5626   8.5724   8.5875   8.6772   8.6959   8.6968
     8.7106   8.7474   8.7596   8.7627   8.7823   8.7964   8.8005   8.8032
     8.8282   8.8361   8.8468   8.8642   8.8873   8.9097   8.9430   8.9838
     9.0203   9.0726   9.1198   9.2205   9.2252   9.4237  10.2111  10.5134
    10.5715  10.6307  10.9389  11.2600  11.4745  11.6310  11.7310  11.7903
    11.8579  11.8788  11.9446  12.1216  12.1243  13.5110  13.7331  13.9754
    14.0300  14.2919  14.5428  14.8689  14.8908  15.0723  15.3472  15.9027
    16.2769  16.4162  16.4640  16.4714

          k = 0.0000 0.1443 0.0000 ( 23551 PWs)   bands (ev):

     1.6637   1.8008   2.0419   2.3406   2.7048   3.0950   3.4713   3.7715
     3.9583   4.0164   4.0360   4.1287   4.1867   4.2091   4.2113   4.2948
     4.3331   4.3887   4.5089   4.5597   4.5720   4.6454   4.6566   4.7370
     4.7572   4.7937   4.9139   5.0296   5.1263   5.1609   5.2838   5.3526
     5.4028   5.4835   5.7552   5.9513   6.0838   6.0880   6.1025   6.1320
     6.1463   6.1803   6.2163   6.2508   6.2553   6.2800   6.3099   6.3143
     6.3494   6.3599   6.3691   6.4123   6.4281   6.4430   6.4476   6.4521
     6.4606   6.4662   6.4798   6.5045   6.5189   6.5466   6.5563   6.5875
     6.5958   6.6135   6.6295   6.6411   6.6443   6.6583   6.6798   6.6892
     6.7214   6.7289   6.8180   6.8467   6.8488   6.8981   6.9116   6.9518
     6.9591   6.9932   7.1396   7.2628   7.2885   7.3468   7.4662   7.5177
     7.5319   7.5709   7.5852   7.6028   7.6441   7.7008   7.7042   7.7049
     7.7591   7.7829   7.7856   7.8192   7.8510   7.9043   7.9468   7.9899
     8.0246   8.0376   8.0889   8.1330   8.1706   8.2314   8.2409   8.3234
     8.3661   8.4139   8.4745   8.4790   8.4886   8.5343   8.5398   8.5758
     8.5859   8.6136   8.6425   8.6938   8.7240   8.7268   8.7303   8.7452
     8.7533   8.7652   8.7684   8.8079   8.8529   8.8698   8.8904   8.8983
     8.9421   9.0437   9.0578   9.1582   9.4457   9.9890  10.8617  10.9253
    11.0787  11.1009  11.3238  11.5392  11.6880  11.8084  11.9085  11.9961
    12.1102  12.2287  12.3670  12.5051  12.5308  13.5104  13.7725  14.0483
    14.0623  14.3840  14.6447  14.9310  15.0233  15.1827  15.5029  16.0578
    16.2120  16.5108  16.5402  16.6204

          k = 0.0000 0.2887 0.0000 ( 23495 PWs)   bands (ev):

     2.1014   2.2388   2.4679   2.7612   3.1141   3.4984   3.8715   4.1664
     4.3237   4.3344   4.3743   4.4617   4.4984   4.5221   4.5822   4.5847
     4.6054   4.6334   4.7470   4.8566   4.8891   4.9266   4.9435   5.0331
     5.0779   5.1083   5.2061   5.2072   5.3889   5.3972   5.4337   5.4952
     5.5658   5.6167   5.7568   5.8371   5.8537   5.8696   5.9074   5.9620
     5.9815   5.9857   6.0207   6.0387   6.0512   6.0829   6.1217   6.1228
     6.1745   6.1887   6.2100   6.2546   6.3543   6.3747   6.3926   6.4405
     6.4915   6.4961   6.5860   6.5866   6.6066   6.6161   6.6242   6.6360
     6.6568   6.6885   6.6896   6.7032   6.7500   6.7519   6.7807   6.7870
     6.7932   6.8383   6.8604   6.8651   6.8827   6.9083   6.9428   6.9754
     7.0004   7.0130   7.0799   7.1055   7.1261   7.1549   7.2126   7.2205
     7.2253   7.2930   7.3552   7.3638   7.4369   7.4509   7.4714   7.4832
     7.5874   7.5891   7.6615   7.6828   7.7101   7.7697   7.8009   7.8240
     7.8718   7.9102   7.9176   7.9492   7.9898   8.0078   8.0699   8.0737
     8.1244   8.1777   8.2098   8.2790   8.3185   8.3253   8.3637   8.4643
     8.4728   8.5123   8.5328   8.5562   8.5805   8.5889   8.6133   8.6552
     8.6882   8.7089   8.7212   8.7244   8.7761   8.7983   8.8581   8.9347
     8.9553   9.1034   9.1531   9.5028  10.2057  10.8191  11.7632  11.9749
    11.9904  12.0145  12.0617  12.1307  12.1389  12.2342  12.3555  12.5170
    12.6989  12.9329  13.1288  13.3774  13.5551  13.5973  14.0067  14.2040
    14.3637  14.7053  14.9567  15.1481  15.4225  15.5166  15.7949  16.0558
    16.1996  16.6764  16.7935  16.8705

          k = 0.0000 0.4330 0.0000 ( 23423 PWs)   bands (ev):

     2.7739   2.9100   3.1072   3.3810   3.6947   4.0498   4.4016   4.6219
     4.6878   4.7688   4.8379   4.8519   4.8603   4.9048   4.9268   4.9616
     4.9929   5.0729   5.0766   5.1141   5.1677   5.2209   5.3398   5.3442
     5.3584   5.3702   5.4130   5.4573   5.5048   5.5634   5.5740   5.6213
     5.6314   5.6730   5.6840   5.7338   5.7472   5.7792   5.7856   5.7924
     5.7966   5.8074   5.8257   5.8510   5.9006   5.9066   5.9100   5.9338
     5.9932   6.0529   6.0771   6.1259   6.1514   6.1856   6.2361   6.2511
     6.3264   6.3304   6.4183   6.4527   6.4824   6.5190   6.5484   6.5761
     6.5958   6.6242   6.6802   6.6815   6.7016   6.7283   6.7363   6.7457
     6.7661   6.8017   6.8309   6.8652   6.9258   6.9582   7.0147   7.0318
     7.1498   7.1621   7.1754   7.2002   7.2047   7.2777   7.2952   7.3341
     7.3658   7.3928   7.3999   7.4072   7.4102   7.4248   7.4558   7.4785
     7.5060   7.5146   7.5194   7.5532   7.6117   7.6374   7.6916   7.7453
     7.7718   7.8247   7.8283   7.8414   7.8800   7.9657   7.9895   8.0065
     8.0561   8.0603   8.0805   8.1165   8.2077   8.2484   8.2889   8.4244
     8.4303   8.4475   8.4902   8.5015   8.5272   8.5641   8.6085   8.6193
     8.6617   8.6620   8.6776   8.7382   8.7799   8.7881   8.8104   8.8186
     9.0104   9.1730   9.6809  10.1571  10.9403  11.6149  12.5141  12.5561
    12.6213  12.6352  12.6484  12.8203  12.9205  13.1014  13.2043  13.3887
    13.4456  13.5481  13.8217  13.9952  14.2440  14.3416  14.6059  14.6403
    14.8436  15.2230  15.3231  15.5953  15.6168  15.7314  15.9295  16.0814
    16.2297  16.4977  16.7739  16.8690

          k = 0.0000 0.5774 0.0000 ( 23470 PWs)   bands (ev):

     3.5779   3.7117   3.8344   4.0529   4.2613   4.5196   4.7292   4.7776
     5.0018   5.0196   5.0537   5.1024   5.1105   5.1138   5.1696   5.2207
     5.2321   5.2400   5.2846   5.2981   5.3513   5.3537   5.3740   5.3868
     5.4144   5.4183   5.4280   5.4699   5.4958   5.5008   5.5428   5.5468
     5.5758   5.5759   5.6407   5.6603   5.6733   5.6813   5.7011   5.7113
     5.7808   5.7932   5.7995   5.8000   5.8093   5.8924   5.9381   5.9387
     5.9655   5.9669   6.0381   6.0656   6.1227   6.1758   6.1995   6.2802
     6.3128   6.3472   6.3825   6.3930   6.3976   6.4072   6.4222   6.4345
     6.4730   6.4960   6.5091   6.5613   6.5721   6.5863   6.5919   6.5923
     6.5995   6.7141   6.7381   6.9704   7.0013   7.0509   7.0554   7.0555
     7.0587   7.0599   7.1888   7.2269   7.2338   7.2483   7.3774   7.4449
     7.4634   7.5165   7.5260   7.5327   7.5457   7.5497   7.5537   7.5633
     7.5897   7.6188   7.6479   7.6936   7.8224   7.8252   7.8617   7.8709
     7.9244   7.9669   8.0467   8.0882   8.1887   8.2045   8.2085   8.2669
     8.3592   8.4119   8.4466   8.4468   8.4547   8.4766   8.4979   8.5003
     8.5207   8.5287   8.5647   8.5804   8.5992   8.6039   8.6249   8.6395
     8.6456   8.6831   8.6867   8.6872   8.6983   8.7077   8.8517   8.9664
     9.2370   9.7165  10.3231  10.8963  11.7144  12.4096  12.7931  13.1675
    13.2143  13.2598  13.2750  13.2956  13.3612  13.3962  13.5505  13.6231
    13.7154  13.8416  13.8753  14.1627  14.7490  14.8850  14.9400  15.0628
    15.3060  15.3200  15.4135  15.5721  15.8650  15.8792  16.1496  16.3160
    16.4116  16.5884  16.8752  16.9335

          k = 0.0000 0.7217 0.0000 ( 23446 PWs)   bands (ev):

     4.2870   4.4594   4.4807   4.5550   4.6266   4.6823   4.7305   4.8475
     4.8677   4.9592   4.9606   4.9643   5.0374   5.0562   5.1373   5.1854
     5.1917   5.1930   5.2426   5.2720   5.2769   5.2801   5.3591   5.3620
     5.4365   5.4623   5.4715   5.4885   5.5026   5.5487   5.5810   5.5963
     5.6102   5.6244   5.6554   5.6687   5.6745   5.7157   5.7244   5.7464
     5.7732   5.7782   5.7812   5.7994   5.8080   5.8861   5.9020   5.9290
     5.9772   6.0462   6.1096   6.1307   6.1448   6.2009   6.2221   6.2576
     6.2830   6.3275   6.3331   6.3420   6.3523   6.3844   6.3855   6.3898
     6.4080   6.5096   6.5213   6.5366   6.6011   6.6323   6.6503   6.7106
     6.7157   6.7161   6.7482   6.9730   6.9767   7.0153   7.0170   7.1445
     7.1672   7.1774   7.1817   7.1897   7.2322   7.2606   7.3856   7.3862
     7.4098   7.4440   7.4572   7.5013   7.5539   7.5672   7.6325   7.6411
     7.6505   7.6555   7.7253   7.7873   7.8459   7.8566   7.9384   7.9701
     8.0155   8.0802   8.1207   8.1262   8.2530   8.2887   8.3288   8.4637
     8.5011   8.5718   8.6850   8.6853   8.7031   8.7081   8.7183   8.7236
     8.7338   8.7529   8.7545   8.7601   8.8818   8.8934   8.9027   8.9098
     8.9902   9.1061   9.2943   9.3493   9.3782   9.4623   9.5672   9.8130
    10.1905  10.6906  11.3166  11.6933  11.8074  11.9289  11.9904  12.2711
    12.5735  12.7202  12.9886  13.3914  13.3955  13.7558  14.0017  14.0993
    14.1650  14.2000  14.3376  14.3967  14.7021  14.8064  14.9470  15.1810
    15.5030  15.6734  15.9019  16.1010  16.1700  16.4589  16.5519  16.6106
    16.6844  16.8302  17.0343  17.1236

          k = 0.0000-0.8660 0.0000 ( 23420 PWs)   bands (ev):

     4.5772   4.5773   4.7224   4.7225   4.8200   4.8201   4.8256   4.8257
     4.8918   4.8919   4.9148   4.9149   5.0235   5.0236   5.0586   5.0587
     5.1342   5.1343   5.1711   5.1712   5.2492   5.2492   5.2499   5.2500
     5.4709   5.4709   5.4999   5.4999   5.5100   5.5100   5.5227   5.5228
     5.6134   5.6135   5.6860   5.6861   5.7073   5.7074   5.7494   5.7495
     5.8391   5.8392   5.8840   5.8840   5.9438   5.9438   5.9909   5.9910
     6.0180   6.0180   6.0710   6.0711   6.1039   6.1040   6.1246   6.1247
     6.2552   6.2552   6.3026   6.3027   6.3663   6.3663   6.4416   6.4417
     6.5387   6.5388   6.5897   6.5897   6.6356   6.6356   6.6647   6.6647
     6.9539   6.9540   6.9878   6.9879   6.9915   6.9915   7.0318   7.0319
     7.0371   7.0372   7.2747   7.2747   7.3081   7.3082   7.3285   7.3286
     7.3611   7.3612   7.4219   7.4220   7.5374   7.5375   7.6569   7.6569
     7.6754   7.6755   7.8215   7.8216   7.8570   7.8570   7.9352   7.9353
     7.9997   7.9998   8.1107   8.1107   8.1448   8.1449   8.4224   8.4225
     8.5439   8.5440   8.7588   8.7589   8.8194   8.8196   8.8430   8.8432
     8.8739   8.8740   8.9008   8.9010   9.0209   9.0210   9.0415   9.0416
     9.2150   9.2151  10.3976  10.3977  10.4633  10.4633  10.5563  10.5563
    10.7311  10.7311  10.9496  10.9497  11.2880  11.2880  11.7007  11.7008
    12.1951  12.1951  12.7888  12.7888  13.3605  13.3605  14.0510  14.0510
    14.5833  14.5833  15.0417  15.0417  15.7640  15.7640  15.8129  15.8130
    15.8442  15.8442  15.9638  15.9639  16.2061  16.2062  16.2667  16.2668
    16.4142  16.4143  16.6110  16.6111

          k = 0.1250 0.0000 0.0000 ( 23563 PWs)   bands (ev):

     1.6268   1.7632   2.0055   2.3040   2.6691   3.0595   3.4361   3.7364
     3.9204   3.9253   3.9839   4.0606   4.1061   4.1757   4.1778   4.2156
     4.2495   4.3197   4.4167   4.4447   4.4949   4.5677   4.6005   4.6173
     4.6792   4.7169   4.8887   4.9754   5.0263   5.0719   5.2518   5.3212
     5.3882   5.4791   5.7637   5.9927   6.0875   6.1437   6.1633   6.1713
     6.2064   6.2274   6.2658   6.2978   6.3206   6.3391   6.3443   6.3451
     6.3490   6.3785   6.3881   6.3947   6.4092   6.4220   6.4366   6.4491
     6.4511   6.4695   6.4868   6.5034   6.5278   6.5489   6.5523   6.5870
     6.5920   6.6054   6.6055   6.6146   6.6195   6.6492   6.6561   6.6663
     6.6901   6.7852   6.8264   6.8539   6.8703   6.9340   6.9382   6.9449
     7.0058   7.0141   7.1043   7.2700   7.3870   7.4036   7.5219   7.5505
     7.5508   7.5740   7.5953   7.6020   7.6871   7.6888   7.7518   7.7541
     7.7972   7.8231   7.8299   7.8370   7.8797   7.8945   7.9510   7.9961
     8.0087   8.1131   8.1180   8.1727   8.1930   8.2477   8.3521   8.3564
     8.3781   8.4758   8.4859   8.5222   8.5478   8.5847   8.6153   8.6558
     8.6823   8.6858   8.6949   8.7086   8.7269   8.7291   8.7547   8.7652
     8.7821   8.8072   8.8123   8.8284   8.8374   8.8574   8.8954   8.9487
     8.9677   9.0143   9.1232   9.1278   9.3063   9.3500   9.6723   9.9251
     9.9486  10.1343  10.2056  10.3319  10.6931  10.8322  10.9993  11.2767
    11.9633  12.6683  13.2868  13.4606  13.5313  13.6614  13.9230  14.0528
    14.2044  14.5214  14.8219  14.9150  15.1547  15.2154  15.6047  15.9318
    16.3897  16.4824  16.5398  16.9354

          k = 0.1250 0.1443 0.0000 ( 23537 PWs)   bands (ev):

     1.7759   1.9126   2.1515   2.4488   2.8111   3.2004   3.5766   3.8752
     4.0345   4.0575   4.1096   4.1852   4.2238   4.3069   4.3091   4.3297
     4.3412   4.4269   4.5331   4.5646   4.6075   4.6708   4.7040   4.7368
     4.7873   4.8279   4.9532   5.0635   5.1510   5.1739   5.3125   5.3724
     5.3896   5.5056   5.7575   5.9504   6.0064   6.0395   6.0802   6.1085
     6.1285   6.1804   6.2078   6.2177   6.2347   6.2500   6.2633   6.3041
     6.3060   6.3320   6.3699   6.3950   6.4321   6.4638   6.4675   6.4868
     6.4953   6.4954   6.5056   6.5194   6.5308   6.5606   6.5989   6.6111
     6.6260   6.6322   6.6455   6.6585   6.6686   6.6837   6.7013   6.7196
     6.7407   6.7650   6.7753   6.8015   6.8242   6.8897   6.8983   6.9073
     7.0158   7.0194   7.1178   7.1380   7.1920   7.2791   7.4175   7.4289
     7.4834   7.5069   7.5361   7.5393   7.5679   7.5695   7.6231   7.6845
     7.7162   7.7168   7.7540   7.7873   7.8473   7.8723   7.8839   7.9322
     7.9601   7.9934   8.0207   8.0783   8.1553   8.1670   8.2281   8.2393
     8.3174   8.3274   8.3545   8.3588   8.4188   8.4744   8.5094   8.5181
     8.5380   8.5575   8.5642   8.5834   8.6289   8.6327   8.6644   8.7083
     8.7303   8.7456   8.7554   8.7712   8.7902   8.8298   8.8625   8.9061
     9.0149   9.0428   9.0848   9.1034   9.6782   9.9941  10.1433  10.2799
    10.3164  10.4404  10.5635  10.7867  11.1693  11.1738  11.4002  11.7035
    12.3383  13.0041  13.4858  13.5564  13.6467  13.7281  14.0147  14.0903
    14.3091  14.6287  14.9243  14.9811  15.2654  15.3357  15.7213  15.9689
    16.4386  16.5748  16.6439  16.9834

          k = 0.1250 0.2887 0.0000 ( 23467 PWs)   bands (ev):

     2.2054   2.3420   2.5675   2.8577   3.2059   3.5859   3.9550   4.2444
     4.3235   4.4048   4.4441   4.5144   4.5368   4.5446   4.6249   4.6471
     4.6586   4.6612   4.7710   4.8606   4.9158   4.9419   4.9959   5.0460
     5.0801   5.1375   5.2051   5.2497   5.3723   5.3768   5.4113   5.4975
     5.5820   5.6437   5.7385   5.7693   5.8093   5.8817   5.8935   5.9720
     5.9897   6.0051   6.0200   6.0301   6.0535   6.0634   6.0970   6.1048
     6.1543   6.1914   6.2257   6.2301   6.2996   6.3129   6.4104   6.4397
     6.4780   6.5237   6.5852   6.5986   6.6037   6.6205   6.6291   6.6344
     6.6484   6.6849   6.7126   6.7417   6.7692   6.7766   6.7903   6.8093
     6.8369   6.8657   6.8752   6.8918   6.9073   6.9114   6.9307   6.9848
     7.0047   7.0167   7.0188   7.0398   7.0557   7.0958   7.1143   7.2016
     7.2170   7.2246   7.2766   7.3287   7.3810   7.3985   7.4434   7.4753
     7.4984   7.5927   7.6060   7.6350   7.7011   7.7058   7.7385   7.7840
     7.7942   7.8350   7.8646   7.8657   7.9321   7.9808   8.0016   8.0522
     8.0884   8.1474   8.1620   8.2019   8.2162   8.2370   8.2448   8.3124
     8.3371   8.3949   8.4416   8.5115   8.5510   8.6210   8.6304   8.7094
     8.7440   8.7506   8.7813   8.7874   8.8059   8.8353   8.8906   8.9952
     9.0276   9.1303   9.2112   9.6148  10.3314  10.7665  10.8156  10.9490
    10.9723  11.0928  11.3282  11.6531  11.9189  12.0803  12.3427  12.6008
    13.1988  13.5863  13.7084  13.8439  13.9170  14.1670  14.2490  14.4399
    14.6695  14.9605  15.2074  15.2576  15.6014  15.6428  15.9759  16.0953
    16.4730  16.8508  16.9693  16.9793

          k = 0.1250 0.4330 0.0000 ( 23435 PWs)   bands (ev):

     2.8554   2.9897   3.1801   3.4464   3.7468   4.0852   4.4135   4.6046
     4.6637   4.7822   4.7857   4.8551   4.8599   4.8862   4.9277   4.9323
     4.9808   5.0888   5.0930   5.0969   5.1364   5.1792   5.2623   5.3088
     5.3545   5.3601   5.4118   5.4370   5.4478   5.5343   5.5566   5.6269
     5.6511   5.6616   5.6949   5.7297   5.7364   5.7678   5.7807   5.8053
     5.8410   5.8430   5.8793   5.8839   5.9128   5.9320   5.9595   5.9619
     6.0150   6.0505   6.0671   6.1496   6.1634   6.2189   6.2953   6.3308
     6.3578   6.4070   6.4416   6.4811   6.4850   6.5198   6.5316   6.5678
     6.5883   6.6391   6.6429   6.6439   6.6743   6.7047   6.7260   6.7417
     6.7449   6.8735   6.8757   6.9167   6.9619   6.9632   6.9832   7.0578
     7.1401   7.1484   7.1809   7.2055   7.2115   7.2223   7.2791   7.2956
     7.3207   7.3302   7.3445   7.3756   7.4318   7.4339   7.4617   7.4820
     7.5069   7.5157   7.5527   7.5659   7.5794   7.6312   7.6429   7.6924
     7.7361   7.7365   7.8109   7.8538   7.8873   7.8938   7.9215   7.9586
     7.9990   8.0401   8.0817   8.1028   8.1455   8.2025   8.2281   8.2744
     8.3417   8.4373   8.4993   8.5176   8.5905   8.5948   8.6882   8.7215
     8.7218   8.7463   8.7519   8.7786   8.8185   8.8253   8.9098   8.9494
     9.0791   9.1815   9.7230  10.2266  11.0157  11.3968  11.4557  11.6491
    11.7009  11.8615  12.1754  12.5614  12.7028  13.0097  13.4701  13.5328
    13.7446  13.9121  14.2039  14.2723  14.5047  14.6745  14.6809  14.7831
    15.1476  15.3087  15.6092  15.6362  15.6603  15.9206  16.1725  16.2133
    16.4553  16.5450  16.8930  17.2574

          k = 0.1250 0.5774 0.0000 ( 23447 PWs)   bands (ev):

     3.5996   3.7280   3.8513   4.0590   4.2499   4.4760   4.6703   4.6921
     4.8570   4.8623   4.9520   4.9683   4.9753   5.0024   5.0425   5.0430
     5.1233   5.1384   5.1807   5.1814   5.2281   5.2397   5.2887   5.3243
     5.3589   5.3894   5.4202   5.4481   5.4640   5.4861   5.5301   5.5414
     5.5943   5.5976   5.6213   5.6665   5.6980   5.7408   5.7429   5.7524
     5.7643   5.7894   5.8112   5.8576   5.8997   5.9034   5.9265   5.9797
     6.0334   6.0521   6.0680   6.0986   6.1361   6.1906   6.2496   6.2548
     6.3542   6.3835   6.3946   6.4583   6.4960   6.4980   6.5685   6.5689
     6.5887   6.5933   6.6243   6.6362   6.6588   6.6709   6.7380   6.7489
     6.7502   6.8374   6.8611   6.9123   6.9540   6.9621   6.9641   7.0983
     7.1270   7.1695   7.2570   7.2598   7.3052   7.3171   7.3482   7.4269
     7.4519   7.4602   7.4830   7.5275   7.5412   7.5788   7.5924   7.6206
     7.6816   7.6937   7.7150   7.7400   7.8631   7.8822   7.9033   7.9081
     7.9488   8.0020   8.0665   8.1271   8.1837   8.1897   8.2054   8.2381
     8.3420   8.3553   8.3978   8.4023   8.4327   8.4713   8.4926   8.5160
     8.5260   8.5665   8.5881   8.5979   8.6099   8.6266   8.6318   8.6953
     8.7098   8.7309   8.7390   8.7407   8.8051   8.8286   8.8358   9.0230
     9.2211   9.7196  10.3497  10.9403  11.7619  12.0981  12.1869  12.4154
    12.4615  12.6780  12.9759  13.2381  13.3991  13.4017  13.4570  13.6510
    13.8989  13.9675  14.1736  14.2540  14.4160  14.7765  14.8169  15.0048
    15.2812  15.4373  15.4761  15.5682  15.9045  16.0062  16.2805  16.3669
    16.5260  16.7559  16.8949  16.9670

          k = 0.1250 0.7217 0.0000 ( 23455 PWs)   bands (ev):

     4.1845   4.3032   4.3980   4.5392   4.5888   4.6232   4.6692   4.7075
     4.7735   4.8122   4.8154   4.8570   4.9003   4.9195   4.9929   5.0201
     5.0793   5.0800   5.1066   5.1106   5.1808   5.2263   5.2389   5.2460
     5.2658   5.2833   5.3154   5.3539   5.3757   5.4172   5.4603   5.4670
     5.4857   5.5455   5.5692   5.6056   5.6630   5.6851   5.7110   5.7181
     5.7987   5.7995   5.8215   5.8835   5.9031   5.9408   5.9529   5.9860
     6.0016   6.0681   6.1327   6.1489   6.2238   6.2242   6.2729   6.3113
     6.3400   6.3649   6.4077   6.4210   6.4405   6.4883   6.5736   6.6000
     6.6489   6.6648   6.6987   6.7577   6.7849   6.8007   6.8335   6.8570
     6.8996   6.9260   6.9663   6.9958   7.0203   7.0570   7.0723   7.0937
     7.1408   7.1941   7.2165   7.2521   7.3815   7.3836   7.4819   7.4904
     7.4997   7.5319   7.5804   7.6417   7.6427   7.6821   7.7300   7.7337
     7.8077   7.8226   7.8449   7.8661   8.0035   8.0088   8.0375   8.0714
     8.0919   8.1786   8.2282   8.2413   8.3377   8.3545   8.3664   8.4737
     8.5285   8.5903   8.6373   8.6476   8.6572   8.6643   8.7146   8.7171
     8.7531   8.7774   8.7845   8.8080   8.8903   8.8941   8.9065   8.9089
     8.9739   9.1181   9.2610   9.3113   9.3577   9.4394   9.5375   9.7779
    10.1630  10.6795  11.3260  11.7730  11.8788  11.9548  12.0536  12.3157
    12.6085  12.7507  12.9997  13.1093  13.2177  13.3768  13.4294  13.5386
    13.7099  13.9161  14.1570  14.2284  14.4515  14.6036  14.8471  15.0496
    15.3260  15.5887  15.8205  15.9024  16.0278  16.3079  16.3430  16.5127
    16.5423  16.6508  16.9198  16.9604

          k = 0.1250-0.8660 0.0000 ( 23492 PWs)   bands (ev):

     4.4553   4.4554   4.5604   4.5604   4.6517   4.6518   4.6863   4.6864
     4.7812   4.7812   4.8035   4.8036   4.9568   4.9569   4.9786   4.9787
     5.0839   5.0839   5.0934   5.0935   5.1463   5.1463   5.1617   5.1617
     5.2350   5.2351   5.2931   5.2931   5.3242   5.3243   5.3603   5.3603
     5.4807   5.4807   5.5776   5.5777   5.6297   5.6297   5.7234   5.7235
     5.8101   5.8102   5.9092   5.9093   5.9336   5.9337   5.9914   5.9915
     6.0606   6.0607   6.1045   6.1045   6.1717   6.1718   6.2370   6.2370
     6.3975   6.3975   6.4480   6.4481   6.5733   6.5734   6.6008   6.6009
     6.7217   6.7218   6.7616   6.7617   6.8528   6.8529   6.8663   6.8663
     6.8898   6.8899   7.0134   7.0135   7.0641   7.0642   7.1511   7.1512
     7.1854   7.1855   7.3392   7.3393   7.4293   7.4294   7.4915   7.4915
     7.5398   7.5398   7.6265   7.6266   7.7170   7.7171   7.8123   7.8124
     7.8504   7.8505   7.9742   7.9743   8.0109   8.0109   8.0562   8.0563
     8.1163   8.1164   8.1871   8.1871   8.2271   8.2272   8.4321   8.4322
     8.5478   8.5480   8.7492   8.7493   8.7870   8.7872   8.8099   8.8100
     8.8709   8.8711   8.9156   8.9157   9.0254   9.0255   9.0406   9.0408
     9.2106   9.2107  10.3980  10.3980  10.4655  10.4655  10.5583  10.5583
    10.7270  10.7271  10.9378  10.9378  11.2695  11.2695  11.6822  11.6823
    12.1835  12.1835  12.7908  12.7908  13.3780  13.3780  14.0299  14.0299
    14.4614  14.4614  14.6907  14.6907  14.7934  14.7935  14.9888  14.9888
    15.3123  15.3124  15.4205  15.4206  15.8130  15.8131  15.9723  15.9724
    16.2609  16.2610  16.6253  16.6254

          k = 0.1250-0.7217 0.0000 ( 23455 PWs)   bands (ev):

     4.1845   4.3032   4.3980   4.5392   4.5888   4.6232   4.6692   4.7075
     4.7735   4.8122   4.8154   4.8570   4.9003   4.9195   4.9929   5.0201
     5.0793   5.0800   5.1066   5.1106   5.1808   5.2263   5.2389   5.2460
     5.2658   5.2833   5.3154   5.3539   5.3757   5.4172   5.4603   5.4670
     5.4857   5.5455   5.5692   5.6056   5.6630   5.6851   5.7110   5.7181
     5.7987   5.7995   5.8215   5.8835   5.9031   5.9408   5.9529   5.9860
     6.0016   6.0681   6.1327   6.1489   6.2238   6.2242   6.2729   6.3113
     6.3400   6.3649   6.4077   6.4210   6.4405   6.4883   6.5736   6.6000
     6.6489   6.6648   6.6987   6.7577   6.7849   6.8007   6.8335   6.8570
     6.8996   6.9260   6.9663   6.9958   7.0203   7.0570   7.0723   7.0937
     7.1408   7.1941   7.2165   7.2521   7.3815   7.3836   7.4819   7.4904
     7.4997   7.5319   7.5804   7.6417   7.6427   7.6821   7.7300   7.7337
     7.8077   7.8226   7.8449   7.8661   8.0035   8.0088   8.0375   8.0714
     8.0919   8.1786   8.2282   8.2413   8.3377   8.3545   8.3664   8.4737
     8.5285   8.5903   8.6373   8.6476   8.6572   8.6643   8.7146   8.7171
     8.7531   8.7774   8.7845   8.8080   8.8903   8.8941   8.9065   8.9089
     8.9739   9.1181   9.2610   9.3113   9.3577   9.4394   9.5375   9.7779
    10.1630  10.6795  11.3260  11.7730  11.8788  11.9548  12.0536  12.3157
    12.6085  12.7507  12.9997  13.1093  13.2177  13.3768  13.4294  13.5386
    13.7099  13.9161  14.1570  14.2284  14.4515  14.6036  14.8471  15.0496
    15.3260  15.5887  15.8205  15.9024  16.0278  16.3079  16.3430  16.5127
    16.5423  16.6508  16.9207  16.9605

          k = 0.1250-0.5774 0.0000 ( 23447 PWs)   bands (ev):

     3.5996   3.7280   3.8513   4.0590   4.2499   4.4760   4.6703   4.6921
     4.8570   4.8623   4.9520   4.9683   4.9753   5.0024   5.0425   5.0430
     5.1233   5.1384   5.1807   5.1814   5.2281   5.2397   5.2887   5.3243
     5.3589   5.3894   5.4202   5.4481   5.4640   5.4861   5.5301   5.5414
     5.5943   5.5976   5.6213   5.6665   5.6980   5.7408   5.7429   5.7524
     5.7643   5.7894   5.8112   5.8576   5.8997   5.9034   5.9265   5.9797
     6.0334   6.0521   6.0680   6.0986   6.1361   6.1906   6.2496   6.2548
     6.3542   6.3835   6.3946   6.4583   6.4960   6.4980   6.5685   6.5689
     6.5887   6.5933   6.6243   6.6362   6.6588   6.6709   6.7380   6.7489
     6.7502   6.8374   6.8611   6.9123   6.9540   6.9621   6.9641   7.0983
     7.1270   7.1695   7.2570   7.2598   7.3052   7.3171   7.3482   7.4269
     7.4519   7.4602   7.4830   7.5275   7.5412   7.5788   7.5924   7.6206
     7.6816   7.6937   7.7150   7.7400   7.8631   7.8822   7.9033   7.9081
     7.9488   8.0020   8.0665   8.1271   8.1837   8.1897   8.2054   8.2381
     8.3420   8.3553   8.3978   8.4023   8.4327   8.4713   8.4926   8.5160
     8.5260   8.5665   8.5881   8.5979   8.6099   8.6266   8.6318   8.6953
     8.7098   8.7309   8.7390   8.7407   8.8051   8.8286   8.8358   9.0230
     9.2211   9.7196  10.3497  10.9403  11.7619  12.0981  12.1869  12.4154
    12.4615  12.6780  12.9759  13.2381  13.3991  13.4017  13.4570  13.6510
    13.8989  13.9675  14.1736  14.2540  14.4160  14.7765  14.8169  15.0048
    15.2812  15.4373  15.4761  15.5682  15.9045  16.0062  16.2805  16.3669
    16.5260  16.7557  16.8948  16.9670

          k = 0.1250-0.4330 0.0000 ( 23435 PWs)   bands (ev):

     2.8554   2.9897   3.1801   3.4464   3.7468   4.0852   4.4135   4.6046
     4.6637   4.7822   4.7857   4.8551   4.8599   4.8862   4.9277   4.9323
     4.9808   5.0888   5.0930   5.0969   5.1364   5.1792   5.2623   5.3088
     5.3545   5.3601   5.4118   5.4370   5.4478   5.5343   5.5566   5.6269
     5.6511   5.6616   5.6949   5.7297   5.7364   5.7678   5.7807   5.8053
     5.8410   5.8430   5.8793   5.8839   5.9128   5.9320   5.9595   5.9619
     6.0150   6.0505   6.0671   6.1496   6.1634   6.2189   6.2953   6.3308
     6.3578   6.4070   6.4416   6.4811   6.4850   6.5198   6.5316   6.5678
     6.5883   6.6391   6.6429   6.6439   6.6743   6.7047   6.7260   6.7417
     6.7449   6.8735   6.8757   6.9167   6.9619   6.9632   6.9832   7.0578
     7.1401   7.1484   7.1809   7.2055   7.2115   7.2223   7.2791   7.2956
     7.3207   7.3302   7.3445   7.3756   7.4318   7.4339   7.4617   7.4820
     7.5069   7.5157   7.5527   7.5659   7.5794   7.6312   7.6429   7.6924
     7.7361   7.7365   7.8109   7.8538   7.8873   7.8938   7.9215   7.9586
     7.9990   8.0401   8.0817   8.1028   8.1455   8.2025   8.2281   8.2744
     8.3417   8.4373   8.4993   8.5176   8.5905   8.5948   8.6882   8.7215
     8.7218   8.7463   8.7519   8.7786   8.8185   8.8253   8.9098   8.9494
     9.0791   9.1815   9.7230  10.2266  11.0157  11.3968  11.4557  11.6491
    11.7009  11.8615  12.1754  12.5614  12.7028  13.0097  13.4701  13.5328
    13.7446  13.9121  14.2039  14.2723  14.5047  14.6745  14.6809  14.7831
    15.1476  15.3087  15.6092  15.6362  15.6603  15.9206  16.1725  16.2133
    16.4553  16.5450  16.8930  17.2574

          k = 0.1250-0.2887 0.0000 ( 23467 PWs)   bands (ev):

     2.2054   2.3420   2.5675   2.8577   3.2059   3.5859   3.9550   4.2444
     4.3235   4.4048   4.4441   4.5144   4.5368   4.5446   4.6249   4.6471
     4.6586   4.6612   4.7710   4.8606   4.9158   4.9419   4.9959   5.0460
     5.0801   5.1375   5.2051   5.2497   5.3723   5.3768   5.4113   5.4975
     5.5820   5.6437   5.7385   5.7693   5.8093   5.8817   5.8935   5.9720
     5.9897   6.0051   6.0200   6.0301   6.0535   6.0634   6.0970   6.1048
     6.1543   6.1914   6.2257   6.2301   6.2996   6.3129   6.4104   6.4397
     6.4780   6.5237   6.5852   6.5986   6.6037   6.6205   6.6291   6.6344
     6.6484   6.6849   6.7126   6.7417   6.7692   6.7766   6.7903   6.8093
     6.8369   6.8657   6.8752   6.8918   6.9073   6.9114   6.9307   6.9848
     7.0047   7.0167   7.0188   7.0398   7.0557   7.0958   7.1143   7.2016
     7.2170   7.2246   7.2766   7.3287   7.3810   7.3985   7.4434   7.4753
     7.4984   7.5927   7.6060   7.6350   7.7011   7.7058   7.7385   7.7840
     7.7942   7.8350   7.8646   7.8657   7.9321   7.9808   8.0016   8.0522
     8.0884   8.1474   8.1620   8.2019   8.2162   8.2370   8.2448   8.3123
     8.3371   8.3949   8.4416   8.5115   8.5510   8.6210   8.6304   8.7094
     8.7440   8.7506   8.7813   8.7874   8.8059   8.8353   8.8906   8.9952
     9.0276   9.1303   9.2112   9.6148  10.3314  10.7665  10.8156  10.9490
    10.9723  11.0928  11.3282  11.6531  11.9189  12.0803  12.3427  12.6008
    13.1988  13.5863  13.7084  13.8439  13.9170  14.1670  14.2490  14.4399
    14.6695  14.9605  15.2074  15.2576  15.6014  15.6428  15.9759  16.0953
    16.4730  16.8508  16.9693  16.9792

          k = 0.1250-0.1443 0.0000 ( 23537 PWs)   bands (ev):

     1.7759   1.9126   2.1515   2.4488   2.8111   3.2004   3.5766   3.8752
     4.0345   4.0575   4.1096   4.1852   4.2238   4.3069   4.3091   4.3297
     4.3412   4.4269   4.5331   4.5646   4.6075   4.6708   4.7040   4.7368
     4.7873   4.8279   4.9532   5.0635   5.1510   5.1739   5.3125   5.3724
     5.3896   5.5056   5.7575   5.9504   6.0064   6.0395   6.0802   6.1085
     6.1285   6.1804   6.2078   6.2177   6.2347   6.2500   6.2633   6.3041
     6.3060   6.3320   6.3699   6.3950   6.4321   6.4638   6.4675   6.4868
     6.4953   6.4954   6.5056   6.5194   6.5308   6.5606   6.5989   6.6111
     6.6260   6.6322   6.6455   6.6585   6.6686   6.6837   6.7013   6.7196
     6.7407   6.7650   6.7753   6.8015   6.8242   6.8897   6.8983   6.9073
     7.0158   7.0194   7.1178   7.1380   7.1920   7.2791   7.4175   7.4289
     7.4834   7.5069   7.5361   7.5393   7.5679   7.5695   7.6231   7.6845
     7.7162   7.7168   7.7540   7.7873   7.8473   7.8723   7.8839   7.9322
     7.9601   7.9934   8.0207   8.0783   8.1553   8.1670   8.2281   8.2393
     8.3174   8.3274   8.3545   8.3588   8.4188   8.4744   8.5094   8.5181
     8.5380   8.5575   8.5642   8.5834   8.6289   8.6327   8.6644   8.7083
     8.7303   8.7456   8.7554   8.7712   8.7902   8.8298   8.8625   8.9061
     9.0149   9.0428   9.0848   9.1034   9.6782   9.9941  10.1433  10.2799
    10.3164  10.4404  10.5635  10.7867  11.1693  11.1738  11.4002  11.7035
    12.3383  13.0041  13.4858  13.5564  13.6467  13.7281  14.0147  14.0903
    14.3091  14.6287  14.9243  14.9811  15.2654  15.3357  15.7213  15.9689
    16.4386  16.5748  16.6440  16.9833

          k = 0.2500 0.0000 0.0000 ( 23536 PWs)   bands (ev):

     1.9605   2.0949   2.3308   2.6235   2.9824   3.3687   3.7440   3.8737
     4.0087   4.0390   4.1631   4.2139   4.2574   4.3419   4.3609   4.3856
     4.4068   4.4613   4.4634   4.4732   4.5151   4.6011   4.6974   4.7237
     4.8009   4.8261   4.9827   5.0664   5.1172   5.1602   5.3432   5.3607
     5.3962   5.5679   5.8135   5.8621   5.9331   6.0142   6.0225   6.0561
     6.1059   6.1443   6.1635   6.1922   6.2091   6.2539   6.2715   6.3014
     6.3190   6.3610   6.3996   6.4179   6.4188   6.4687   6.4944   6.5106
     6.5153   6.5160   6.5684   6.5853   6.5965   6.6239   6.6242   6.6465
     6.6469   6.6598   6.6817   6.6878   6.6896   6.7449   6.7491   6.7527
     6.7717   6.8102   6.8164   6.8361   6.8449   6.8503   6.8737   6.9198
     6.9789   7.0438   7.0687   7.1034   7.1096   7.2720   7.2902   7.3074
     7.3720   7.3731   7.4052   7.4564   7.4958   7.5201   7.5470   7.6247
     7.6272   7.6448   7.7072   7.7463   7.7497   7.7996   7.8345   7.8849
     7.9182   8.0165   8.0290   8.0320   8.0399   8.1533   8.1863   8.2130
     8.2271   8.3291   8.3397   8.3578   8.3670   8.3973   8.4064   8.4166
     8.4585   8.4737   8.5135   8.5342   8.5487   8.5559   8.5822   8.5934
     8.6063   8.6279   8.6410   8.6952   8.6964   8.7336   8.7802   8.7920
     8.8257   8.8334   8.8584   8.8703   8.9202   8.9229   8.9520   8.9600
     9.1128   9.3655   9.7017   9.9788  10.4004  10.6524  11.1473  11.5214
    11.8399  11.8984  12.6781  13.4001  14.1463  14.1754  15.0710  15.1210
    15.3460  15.4047  15.5042  15.6243  15.9204  16.3572  16.6824  16.7776
    16.8179  17.1117  17.4007  17.8006

          k = 0.2500 0.1443 0.0000 ( 23484 PWs)   bands (ev):

     2.1041   2.2386   2.4700   2.7606   3.1151   3.4992   3.8736   3.9950
     4.1411   4.1674   4.2858   4.3358   4.3719   4.4425   4.4892   4.4934
     4.5181   4.5822   4.5845   4.6010   4.6391   4.7104   4.7903   4.8008
     4.8791   4.9393   5.0412   5.1629   5.2191   5.2465   5.3540   5.3947
     5.4512   5.5813   5.7855   5.8388   5.8758   5.9157   5.9630   5.9765
     6.0407   6.0723   6.1034   6.1257   6.1509   6.1771   6.2123   6.2457
     6.2497   6.3130   6.3243   6.3665   6.3951   6.4083   6.4275   6.4591
     6.5194   6.5224   6.5712   6.5871   6.5997   6.6165   6.6264   6.6265
     6.6419   6.6735   6.6846   6.7003   6.7235   6.7505   6.7619   6.7752
     6.7792   6.8188   6.8431   6.8508   6.8612   6.8908   6.8974   6.9375
     6.9564   6.9836   7.0602   7.1049   7.1083   7.1724   7.1830   7.2136
     7.2629   7.2743   7.3182   7.3532   7.4292   7.4309   7.4716   7.4831
     7.5781   7.5920   7.6743   7.6846   7.7296   7.7398   7.7617   7.8258
     7.8687   7.8751   7.9055   7.9128   7.9151   7.9888   8.0512   8.0645
     8.1325   8.1446   8.1839   8.2016   8.2183   8.2288   8.2580   8.3294
     8.3565   8.4180   8.4281   8.4963   8.5224   8.5555   8.5894   8.6212
     8.6270   8.6834   8.7075   8.7260   8.7336   8.7920   8.8116   8.8485
     8.9198   8.9329   9.1283   9.1399   9.2381   9.3267   9.3727   9.4556
     9.5403   9.6742  10.1101  10.1884  10.7088  10.8640  11.3988  11.7620
    12.1136  12.1469  12.8726  13.5712  14.2017  14.3310  15.1496  15.2915
    15.3879  15.5149  15.5637  15.7325  15.9948  16.4351  16.7863  16.8757
    16.9029  17.1938  17.4592  17.8264

          k = 0.2500 0.2887 0.0000 ( 23496 PWs)   bands (ev):

     2.5104   2.6444   2.8575   3.1371   3.4689   3.8347   4.1920   4.2965
     4.4671   4.4882   4.5866   4.6082   4.6371   4.6484   4.7174   4.7553
     4.7926   4.8232   4.8781   4.8816   4.9285   4.9800   5.0385   5.0601
     5.1412   5.1847   5.2546   5.2915   5.3133   5.3841   5.4661   5.5500
     5.5993   5.6576   5.6741   5.7139   5.7993   5.8113   5.8469   5.9074
     5.9172   5.9363   5.9538   5.9861   6.0178   6.0490   6.0976   6.1021
     6.1160   6.1254   6.1811   6.2120   6.2521   6.2588   6.3315   6.3624
     6.4148   6.4229   6.4617   6.4816   6.5239   6.5596   6.5715   6.5904
     6.6053   6.6633   6.6739   6.6891   6.7053   6.7362   6.7769   6.7796
     6.7924   6.8328   6.8714   6.8760   6.9176   6.9471   6.9608   6.9768
     6.9775   7.0101   7.0185   7.0720   7.1184   7.1199   7.1440   7.1738
     7.1908   7.2231   7.2701   7.2913   7.3240   7.3520   7.3573   7.3655
     7.4332   7.4835   7.5120   7.5165   7.5489   7.6108   7.6334   7.6992
     7.7176   7.7504   7.7819   7.8074   7.8357   7.8439   7.8963   7.9111
     7.9452   7.9976   8.0111   8.0741   8.0904   8.1642   8.1688   8.2601
     8.2866   8.3897   8.4203   8.4518   8.5825   8.5897   8.6722   8.7076
     8.7589   8.7616   8.7848   8.7927   8.8351   8.8827   8.9609   8.9892
     9.0014   9.0631   9.4540   9.8143   9.8527   9.9202   9.9324  10.0128
    10.1820  10.4649  10.6659  10.8765  11.3574  11.4022  12.0179  12.3215
    12.6656  12.9276  13.3793  14.0141  14.4149  14.7178  15.4035  15.5165
    15.6665  15.8314  15.8547  16.0109  16.2173  16.6162  17.0456  17.0568
    17.2140  17.2723  17.5675  17.6556

          k = 0.2500 0.4330 0.0000 ( 23431 PWs)   bands (ev):

     3.0946   3.2240   3.3943   3.6389   3.9019   4.1960   4.4703   4.5439
     4.6613   4.7611   4.7689   4.8089   4.8200   4.8665   4.8697   4.9153
     4.9666   4.9989   5.0465   5.0949   5.1162   5.1485   5.1753   5.2123
     5.2498   5.2516   5.3046   5.4182   5.4771   5.5012   5.5216   5.5479
     5.5636   5.6423   5.6602   5.6714   5.7287   5.7387   5.7954   5.8305
     5.8430   5.8918   5.9277   5.9295   5.9661   5.9860   6.0125   6.0221
     6.0572   6.0915   6.1055   6.1494   6.1599   6.2103   6.2767   6.2988
     6.3493   6.3678   6.4027   6.4595   6.4993   6.5227   6.5715   6.5855
     6.6110   6.6252   6.6603   6.6716   6.7017   6.7172   6.7461   6.7567
     6.8519   6.8921   6.9054   6.9824   6.9857   6.9880   7.0035   7.0332
     7.0435   7.0731   7.1751   7.1834   7.1943   7.2548   7.2731   7.2933
     7.3034   7.3491   7.3687   7.3879   7.4191   7.4497   7.4634   7.5316
     7.5564   7.5702   7.5779   7.6193   7.6392   7.6530   7.6552   7.6829
     7.7273   7.7533   7.7880   7.8399   7.8719   7.9015   7.9069   7.9582
     7.9593   8.0231   8.0627   8.0829   8.1113   8.1593   8.2335   8.2505
     8.3348   8.4353   8.4435   8.5743   8.5913   8.6402   8.7469   8.8054
     8.8168   8.8319   8.8421   8.8501   8.8583   8.8942   8.9895   9.0335
     9.1245   9.2888   9.8862  10.4234  10.4446  10.4523  10.5682  10.7123
    10.9511  11.2425  11.2820  11.7079  11.9500  12.2142  12.7912  12.9335
    13.3765  13.9559  14.0342  14.5504  14.9021  15.0141  15.6001  15.8051
    15.8710  15.8880  15.9914  16.1585  16.2978  16.4372  16.4386  16.6797
    16.9681  17.2318  17.4596  17.5700

          k = 0.2500 0.5774 0.0000 ( 23466 PWs)   bands (ev):

     3.6740   3.7896   3.9169   4.1015   4.2546   4.4084   4.5207   4.5491
     4.6466   4.6529   4.7254   4.7403   4.7627   4.8274   4.8583   4.8605
     4.9321   4.9758   5.0130   5.0363   5.0403   5.1423   5.1440   5.1625
     5.1783   5.1864   5.2206   5.2602   5.3125   5.3390   5.3407   5.3702
     5.4591   5.4636   5.5106   5.5594   5.5759   5.6674   5.7177   5.7471
     5.8159   5.8670   5.8759   5.9233   5.9571   5.9611   6.0252   6.0708
     6.1484   6.1662   6.2102   6.2252   6.2913   6.3981   6.4479   6.4526
     6.4682   6.5112   6.5396   6.5826   6.5931   6.6003   6.6276   6.6404
     6.6643   6.7025   6.7522   6.7964   6.8194   6.8497   6.8755   6.9199
     6.9626   6.9729   6.9997   7.0250   7.1065   7.1335   7.1595   7.2203
     7.2314   7.2952   7.3375   7.3541   7.4248   7.4838   7.5099   7.5131
     7.5255   7.5530   7.5790   7.6482   7.7200   7.7443   7.8064   7.8278
     7.8679   7.8696   7.9155   7.9341   7.9734   7.9808   8.0189   8.0597
     8.0608   8.0735   8.0916   8.1383   8.1392   8.1544   8.2048   8.2310
     8.2473   8.3373   8.3381   8.3489   8.3891   8.4401   8.4829   8.4997
     8.5196   8.5418   8.5934   8.5966   8.6513   8.7138   8.7409   8.7539
     8.7762   8.8302   8.8390   8.8456   8.8645   8.9587   8.9944   9.1166
     9.2108   9.7755  10.4629  11.0847  11.0972  11.1353  11.2983  11.4829
    11.7656  11.9259  12.1249  12.5613  12.6366  13.0518  13.5424  13.5482
    13.7876  13.8362  14.0066  14.2930  14.4695  14.7108  15.0197  15.0357
    15.1228  15.4869  15.6521  15.7252  15.9317  16.2883  16.4318  16.5338
    16.7395  17.1439  17.1743  17.5236

          k = 0.2500 0.7217 0.0000 ( 23545 PWs)   bands (ev):

     4.0299   4.1194   4.2586   4.3747   4.3978   4.4525   4.5073   4.5125
     4.5533   4.5742   4.5918   4.6489   4.6877   4.7112   4.7399   4.7792
     4.8364   4.8661   4.8870   4.8957   4.9124   4.9244   4.9318   5.0280
     5.0368   5.0770   5.1133   5.1207   5.1494   5.2199   5.2407   5.2483
     5.3104   5.3270   5.3939   5.4431   5.4894   5.5378   5.6409   5.6584
     5.8066   5.8115   5.8784   5.9003   5.9737   6.0057   6.0119   6.0865
     6.1102   6.2555   6.3115   6.3197   6.3587   6.3617   6.4026   6.4498
     6.5361   6.5427   6.5794   6.5825   6.5950   6.6639   6.7310   6.7393
     6.7649   6.7850   6.8190   6.8773   6.9177   6.9637   7.0534   7.0536
     7.1195   7.1267   7.2113   7.2355   7.2655   7.2936   7.3330   7.3758
     7.4714   7.4861   7.5985   7.6085   7.6445   7.6699   7.7031   7.7753
     7.8768   7.9023   7.9148   7.9353   7.9431   7.9699   8.0432   8.0729
     8.1342   8.1748   8.1887   8.2150   8.2396   8.2472   8.2658   8.3168
     8.3189   8.3427   8.3854   8.4283   8.4743   8.5364   8.5449   8.5530
     8.5715   8.5908   8.6121   8.6174   8.6683   8.6773   8.7007   8.7294
     8.7563   8.7693   8.8284   8.8827   8.8951   8.9196   8.9292   8.9372
     8.9451   9.1481   9.1708   9.2053   9.3091   9.3917   9.4745   9.6976
    10.1111  10.6805  11.3833  11.9055  11.9832  12.0111  12.0570  12.0758
    12.1654  12.2853  12.4479  12.5945  12.6560  12.8583  12.8662  13.0261
    13.3249  13.4463  13.5670  13.9003  14.1015  14.3220  14.5147  14.7571
    14.8415  15.2238  15.2991  15.4090  15.5607  15.6779  15.8098  15.9831
    16.0756  16.2460  16.3818  16.5333

          k = 0.2500-0.8660 0.0000 ( 23532 PWs)   bands (ev):

     4.2179   4.2179   4.2892   4.2893   4.4181   4.4182   4.4725   4.4726
     4.5709   4.5709   4.5902   4.5903   4.7501   4.7501   4.7565   4.7565
     4.7788   4.7788   4.7952   4.7953   4.9028   4.9029   4.9160   4.9160
     4.9467   4.9468   5.0360   5.0361   5.1213   5.1213   5.2206   5.2207
     5.2887   5.2888   5.3526   5.3527   5.4406   5.4407   5.6328   5.6329
     5.8009   5.8010   5.9581   5.9582   6.0308   6.0308   6.0754   6.0754
     6.1293   6.1294   6.2371   6.2372   6.3770   6.3770   6.4222   6.4223
     6.5283   6.5283   6.5794   6.5795   6.6389   6.6389   6.7464   6.7465
     6.8216   6.8217   6.8742   6.8743   6.9566   6.9566   7.1326   7.1326
     7.2006   7.2006   7.2828   7.2829   7.4123   7.4123   7.4404   7.4405
     7.5302   7.5303   7.7087   7.7088   7.7526   7.7527   7.8406   7.8407
     7.9697   7.9697   8.0628   8.0629   8.0766   8.0767   8.1281   8.1282
     8.2525   8.2525   8.3451   8.3452   8.3563   8.3564   8.3983   8.3984
     8.4160   8.4161   8.4328   8.4329   8.4467   8.4468   8.5251   8.5252
     8.6018   8.6019   8.7340   8.7341   8.7571   8.7572   8.7852   8.7853
     8.8626   8.8628   8.9143   8.9145   9.0298   9.0300   9.0437   9.0439
     9.1956   9.1957  10.3985  10.3985  10.4787  10.4787  10.5992  10.5992
    10.7536  10.7536  10.9339  10.9339  11.2312  11.2312  11.6250  11.6250
    12.1190  12.1190  12.7281  12.7282  13.2958  13.2958  13.5521  13.5521
    13.6426  13.6427  13.7489  13.7490  14.0459  14.0459  14.2547  14.2548
    14.6465  14.6465  14.7304  14.7304  14.9594  14.9595  15.3674  15.3674
    15.7374  15.7374  16.0100  16.0100

          k = 0.2500-0.7217 0.0000 ( 23545 PWs)   bands (ev):

     4.0299   4.1194   4.2586   4.3747   4.3978   4.4525   4.5073   4.5125
     4.5533   4.5742   4.5918   4.6489   4.6877   4.7112   4.7398   4.7792
     4.8364   4.8661   4.8870   4.8957   4.9124   4.9244   4.9318   5.0280
     5.0368   5.0770   5.1133   5.1207   5.1494   5.2199   5.2407   5.2483
     5.3104   5.3270   5.3939   5.4431   5.4894   5.5378   5.6409   5.6584
     5.8066   5.8115   5.8784   5.9003   5.9737   6.0057   6.0119   6.0865
     6.1102   6.2555   6.3115   6.3197   6.3587   6.3617   6.4026   6.4498
     6.5361   6.5427   6.5794   6.5825   6.5950   6.6639   6.7310   6.7393
     6.7649   6.7850   6.8190   6.8773   6.9177   6.9637   7.0534   7.0536
     7.1195   7.1267   7.2113   7.2355   7.2655   7.2936   7.3330   7.3758
     7.4714   7.4861   7.5985   7.6085   7.6445   7.6699   7.7031   7.7753
     7.8768   7.9023   7.9148   7.9353   7.9431   7.9699   8.0432   8.0729
     8.1342   8.1748   8.1887   8.2150   8.2396   8.2472   8.2658   8.3168
     8.3189   8.3427   8.3854   8.4283   8.4743   8.5364   8.5449   8.5530
     8.5715   8.5908   8.6121   8.6174   8.6683   8.6773   8.7007   8.7294
     8.7563   8.7693   8.8284   8.8827   8.8951   8.9196   8.9292   8.9372
     8.9451   9.1481   9.1708   9.2053   9.3091   9.3917   9.4745   9.6976
    10.1111  10.6805  11.3833  11.9055  11.9832  12.0111  12.0570  12.0758
    12.1654  12.2853  12.4479  12.5945  12.6560  12.8583  12.8662  13.0261
    13.3249  13.4463  13.5670  13.9003  14.1015  14.3220  14.5147  14.7571
    14.8415  15.2238  15.2991  15.4090  15.5607  15.6779  15.8098  15.9831
    16.0756  16.2460  16.3818  16.5333

          k = 0.2500-0.5774 0.0000 ( 23466 PWs)   bands (ev):

     3.6740   3.7896   3.9169   4.1015   4.2546   4.4084   4.5207   4.5491
     4.6466   4.6529   4.7254   4.7403   4.7627   4.8274   4.8583   4.8605
     4.9321   4.9758   5.0130   5.0363   5.0403   5.1423   5.1440   5.1625
     5.1783   5.1864   5.2206   5.2602   5.3125   5.3390   5.3407   5.3702
     5.4591   5.4636   5.5106   5.5594   5.5759   5.6674   5.7177   5.7471
     5.8159   5.8670   5.8759   5.9233   5.9571   5.9611   6.0252   6.0708
     6.1484   6.1662   6.2102   6.2252   6.2913   6.3981   6.4479   6.4526
     6.4682   6.5112   6.5396   6.5826   6.5931   6.6003   6.6276   6.6404
     6.6643   6.7025   6.7522   6.7964   6.8194   6.8497   6.8755   6.9199
     6.9626   6.9729   6.9997   7.0250   7.1065   7.1335   7.1595   7.2203
     7.2314   7.2952   7.3375   7.3541   7.4248   7.4838   7.5099   7.5131
     7.5255   7.5530   7.5790   7.6482   7.7200   7.7443   7.8064   7.8278
     7.8679   7.8696   7.9155   7.9341   7.9734   7.9808   8.0189   8.0597
     8.0608   8.0735   8.0916   8.1383   8.1392   8.1544   8.2048   8.2310
     8.2473   8.3373   8.3381   8.3489   8.3891   8.4401   8.4829   8.4997
     8.5196   8.5418   8.5934   8.5966   8.6513   8.7138   8.7409   8.7539
     8.7762   8.8302   8.8390   8.8456   8.8645   8.9587   8.9944   9.1166
     9.2108   9.7755  10.4629  11.0847  11.0972  11.1353  11.2983  11.4829
    11.7656  11.9259  12.1249  12.5613  12.6366  13.0518  13.5424  13.5482
    13.7876  13.8362  14.0066  14.2930  14.4695  14.7108  15.0197  15.0357
    15.1228  15.4869  15.6521  15.7252  15.9317  16.2883  16.4318  16.5338
    16.7395  17.1440  17.1744  17.5593

          k = 0.2500-0.4330 0.0000 ( 23431 PWs)   bands (ev):

     3.0946   3.2240   3.3943   3.6389   3.9019   4.1960   4.4703   4.5439
     4.6613   4.7611   4.7689   4.8089   4.8200   4.8665   4.8697   4.9153
     4.9666   4.9989   5.0465   5.0949   5.1162   5.1485   5.1753   5.2123
     5.2498   5.2516   5.3046   5.4182   5.4771   5.5012   5.5216   5.5479
     5.5636   5.6423   5.6602   5.6714   5.7287   5.7387   5.7954   5.8305
     5.8430   5.8918   5.9277   5.9295   5.9661   5.9860   6.0125   6.0221
     6.0572   6.0915   6.1055   6.1494   6.1599   6.2103   6.2767   6.2988
     6.3493   6.3678   6.4027   6.4595   6.4993   6.5227   6.5715   6.5855
     6.6110   6.6252   6.6603   6.6716   6.7017   6.7172   6.7461   6.7567
     6.8519   6.8921   6.9054   6.9824   6.9857   6.9880   7.0035   7.0332
     7.0435   7.0731   7.1751   7.1834   7.1943   7.2548   7.2731   7.2933
     7.3034   7.3491   7.3687   7.3879   7.4191   7.4497   7.4634   7.5316
     7.5564   7.5702   7.5779   7.6193   7.6392   7.6530   7.6552   7.6829
     7.7273   7.7533   7.7880   7.8399   7.8719   7.9015   7.9069   7.9582
     7.9593   8.0231   8.0627   8.0829   8.1113   8.1593   8.2335   8.2505
     8.3348   8.4353   8.4435   8.5743   8.5913   8.6402   8.7469   8.8054
     8.8168   8.8319   8.8421   8.8501   8.8583   8.8942   8.9895   9.0335
     9.1245   9.2888   9.8862  10.4234  10.4446  10.4523  10.5682  10.7123
    10.9511  11.2425  11.2820  11.7079  11.9500  12.2142  12.7912  12.9335
    13.3765  13.9559  14.0342  14.5504  14.9021  15.0141  15.6001  15.8051
    15.8710  15.8880  15.9914  16.1585  16.2978  16.4372  16.4386  16.6797
    16.9681  17.2317  17.4597  17.5703

          k = 0.2500-0.2887 0.0000 ( 23496 PWs)   bands (ev):

     2.5104   2.6444   2.8575   3.1371   3.4689   3.8347   4.1920   4.2965
     4.4671   4.4882   4.5866   4.6082   4.6371   4.6484   4.7174   4.7553
     4.7926   4.8232   4.8781   4.8816   4.9285   4.9800   5.0385   5.0601
     5.1412   5.1847   5.2546   5.2915   5.3133   5.3841   5.4661   5.5500
     5.5993   5.6576   5.6741   5.7139   5.7993   5.8114   5.8469   5.9074
     5.9172   5.9363   5.9538   5.9861   6.0178   6.0490   6.0976   6.1021
     6.1160   6.1254   6.1811   6.2120   6.2521   6.2588   6.3315   6.3624
     6.4148   6.4229   6.4617   6.4816   6.5239   6.5596   6.5715   6.5904
     6.6053   6.6633   6.6739   6.6891   6.7053   6.7362   6.7769   6.7796
     6.7924   6.8328   6.8714   6.8760   6.9176   6.9471   6.9608   6.9768
     6.9775   7.0101   7.0185   7.0720   7.1184   7.1199   7.1440   7.1738
     7.1908   7.2231   7.2701   7.2913   7.3240   7.3520   7.3573   7.3655
     7.4332   7.4835   7.5120   7.5165   7.5489   7.6108   7.6334   7.6992
     7.7176   7.7504   7.7819   7.8074   7.8357   7.8439   7.8963   7.9111
     7.9452   7.9976   8.0111   8.0741   8.0904   8.1642   8.1688   8.2601
     8.2866   8.3897   8.4203   8.4518   8.5825   8.5897   8.6722   8.7076
     8.7589   8.7616   8.7848   8.7927   8.8351   8.8827   8.9609   8.9892
     9.0014   9.0631   9.4540   9.8143   9.8527   9.9202   9.9324  10.0128
    10.1820  10.4649  10.6659  10.8765  11.3574  11.4022  12.0179  12.3215
    12.6656  12.9276  13.3793  14.0141  14.4149  14.7178  15.4035  15.5165
    15.6665  15.8314  15.8547  16.0109  16.2173  16.6162  17.0456  17.0568
    17.2140  17.2723  17.5676  17.6556

          k = 0.2500-0.1443 0.0000 ( 23484 PWs)   bands (ev):

     2.1041   2.2386   2.4700   2.7606   3.1151   3.4992   3.8736   3.9950
     4.1411   4.1674   4.2858   4.3358   4.3719   4.4425   4.4892   4.4934
     4.5181   4.5822   4.5845   4.6010   4.6391   4.7104   4.7903   4.8008
     4.8791   4.9393   5.0412   5.1629   5.2191   5.2465   5.3540   5.3947
     5.4512   5.5813   5.7855   5.8388   5.8758   5.9157   5.9630   5.9765
     6.0407   6.0723   6.1034   6.1257   6.1509   6.1771   6.2123   6.2457
     6.2497   6.3130   6.3243   6.3665   6.3951   6.4083   6.4275   6.4591
     6.5194   6.5224   6.5712   6.5871   6.5997   6.6165   6.6264   6.6265
     6.6419   6.6735   6.6846   6.7003   6.7235   6.7505   6.7619   6.7752
     6.7792   6.8188   6.8431   6.8508   6.8612   6.8908   6.8974   6.9375
     6.9564   6.9836   7.0602   7.1049   7.1083   7.1724   7.1830   7.2136
     7.2629   7.2743   7.3182   7.3532   7.4292   7.4309   7.4716   7.4831
     7.5781   7.5920   7.6743   7.6846   7.7296   7.7398   7.7617   7.8258
     7.8687   7.8751   7.9055   7.9128   7.9151   7.9888   8.0512   8.0645
     8.1325   8.1446   8.1839   8.2016   8.2183   8.2288   8.2580   8.3294
     8.3565   8.4180   8.4281   8.4963   8.5224   8.5554   8.5894   8.6212
     8.6270   8.6834   8.7075   8.7260   8.7336   8.7920   8.8116   8.8485
     8.9198   8.9329   9.1283   9.1399   9.2381   9.3267   9.3727   9.4556
     9.5403   9.6742  10.1101  10.1884  10.7088  10.8640  11.3988  11.7620
    12.1136  12.1469  12.8726  13.5712  14.2017  14.3310  15.1496  15.2915
    15.3879  15.5149  15.5637  15.7325  15.9948  16.4351  16.7863  16.8757
    16.9029  17.1938  17.4593  17.8264

          k = 0.3750 0.0000 0.0000 ( 23492 PWs)   bands (ev):

     2.4810   2.6093   2.8286   3.1030   3.4394   3.6434   3.7590   3.8031
     3.9081   4.0790   4.1602   4.2412   4.3656   4.4329   4.4906   4.5823
     4.6255   4.6353   4.7383   4.7579   4.8310   4.8468   4.8510   4.8967
     4.9770   5.0177   5.1236   5.1881   5.2587   5.3319   5.3596   5.4564
     5.5458   5.5594   5.6640   5.7088   5.7752   5.8839   5.8985   5.9284
     5.9488   5.9893   6.0092   6.0780   6.0948   6.1274   6.1646   6.2006
     6.2025   6.2534   6.3431   6.4298   6.4550   6.4729   6.5063   6.5168
     6.5260   6.5346   6.5718   6.5781   6.5952   6.6104   6.6198   6.6461
     6.6687   6.6834   6.7038   6.7132   6.7307   6.7511   6.7907   6.8033
     6.8299   6.8409   6.9032   6.9044   6.9054   6.9312   6.9446   6.9553
     6.9976   7.0168   7.0527   7.0626   7.0895   7.0898   7.1350   7.2008
     7.2077   7.2125   7.2192   7.2966   7.3183   7.3511   7.4138   7.4265
     7.4880   7.5063   7.5162   7.5408   7.6200   7.6449   7.6464   7.6491
     7.6599   7.7765   7.7798   7.7982   7.8846   7.8921   7.9722   7.9741
     7.9888   7.9899   8.0103   8.0283   8.0507   8.0509   8.0684   8.0771
     8.0995   8.1278   8.2032   8.2040   8.2422   8.2717   8.2725   8.3236
     8.3648   8.3776   8.4009   8.4392   8.4716   8.5474   8.5599   8.5887
     8.6553   8.7112   8.7509   8.8004   8.8497   8.8512   8.9098   8.9418
     9.1728   9.4125   9.7729   9.9311  10.4373  10.6218  11.1186  11.3472
    11.8883  12.2770  12.6319  12.8787  13.5128  14.3946  14.9693  15.3807
    15.6437  15.8327  16.4986  17.0096  17.2023  17.2802  17.4435  17.6033
    17.8078  17.9703  18.2547  18.7158

          k = 0.3750 0.1443 0.0000 ( 23495 PWs)   bands (ev):

     2.6177   2.7463   2.9589   3.2305   3.5605   3.7762   3.8986   3.9216
     4.0336   4.2013   4.2807   4.3523   4.4730   4.5609   4.6010   4.7070
     4.7445   4.7480   4.8519   4.8640   4.9243   4.9592   4.9635   4.9742
     5.0691   5.0960   5.2020   5.2813   5.3191   5.3602   5.4230   5.5125
     5.5685   5.5872   5.6747   5.6983   5.7496   5.7946   5.8481   5.8524
     5.8755   5.9158   5.9550   5.9935   6.0329   6.0498   6.1080   6.1109
     6.1357   6.1589   6.1988   6.2272   6.2880   6.3260   6.3538   6.4183
     6.4238   6.4502   6.4623   6.4917   6.5206   6.5466   6.5572   6.5764
     6.5876   6.6493   6.6689   6.6778   6.6924   6.6965   6.7243   6.7379
     6.7678   6.8110   6.8199   6.8460   6.8488   6.9427   6.9542   7.0002
     7.0050   7.0432   7.0634   7.0987   7.1252   7.1348   7.1675   7.2119
     7.2171   7.2767   7.2832   7.3000   7.3477   7.3571   7.3839   7.3993
     7.4211   7.4566   7.4650   7.4898   7.5310   7.5551   7.6246   7.6973
     7.7054   7.7493   7.7503   7.7952   7.8135   7.8391   7.8608   7.9385
     7.9583   7.9980   8.0017   8.0180   8.1030   8.1251   8.1813   8.2127
     8.2529   8.2657   8.2779   8.3201   8.3836   8.4056   8.4487   8.4865
     8.4887   8.5443   8.5624   8.5885   8.5991   8.6418   8.6467   8.6911
     8.7220   8.7264   8.7594   8.8003   8.8052   8.8231   8.9815   9.1024
     9.4055   9.5470   9.9598  10.0584  10.6008  10.7668  11.2692  11.4932
    12.0367  12.4419  12.7711  13.1273  13.6388  14.4836  15.1862  15.4787
    15.7981  15.9403  16.6207  17.1372  17.2833  17.3662  17.4694  17.6336
    17.8941  18.0431  18.2905  18.7580

          k = 0.3750 0.2887 0.0000 ( 23497 PWs)   bands (ev):

     2.9917   3.1199   3.3064   3.5617   3.8571   4.1113   4.1896   4.2654
     4.3353   4.4622   4.5237   4.5564   4.6645   4.7909   4.7931   4.9175
     4.9402   4.9580   5.0785   5.0863   5.1619   5.1784   5.1920   5.2275
     5.2804   5.2839   5.3179   5.3491   5.4178   5.4957   5.5101   5.5589
     5.6032   5.6227   5.6393   5.6962   5.7018   5.7370   5.7404   5.7786
     5.7934   5.8094   5.8519   5.8677   5.9053   5.9072   5.9546   5.9706
     5.9761   6.0088   6.0370   6.0808   6.1190   6.1540   6.1817   6.2382
     6.2635   6.2984   6.3058   6.3549   6.3658   6.4066   6.4116   6.4194
     6.4991   6.5039   6.5546   6.5614   6.6022   6.6029   6.6434   6.7089
     6.7144   6.7364   6.7423   6.7627   6.8443   6.8738   6.8899   6.9548
     6.9604   6.9811   7.0394   7.1124   7.1441   7.2019   7.2429   7.2650
     7.2967   7.3215   7.3364   7.3714   7.3724   7.4236   7.4390   7.4636
     7.4671   7.4822   7.5814   7.5827   7.6050   7.6322   7.6376   7.6626
     7.6987   7.7329   7.7757   7.8166   7.8951   7.9421   7.9647   7.9863
     7.9865   8.0371   8.1083   8.1200   8.1575   8.1904   8.1940   8.2341
     8.3043   8.3233   8.3928   8.4638   8.4954   8.5651   8.6142   8.6259
     8.6334   8.6713   8.6861   8.7091   8.7216   8.7636   8.8402   8.8536
     8.9415   9.0645   9.1028   9.1106   9.1780   9.2807   9.3219   9.5053
     9.8307   9.9043  10.3771  10.4240  11.0366  11.1335  11.6827  11.8605
    12.4423  12.8310  13.1517  13.7763  13.9753  14.7839  15.7605  15.7739
    16.2157  16.2770  16.9289  17.4416  17.4735  17.5162  17.5883  17.7577
    18.0362  18.1466  18.3258  18.6818

          k = 0.3750 0.4330 0.0000 ( 23475 PWs)   bands (ev):

     3.4719   3.5936   3.7329   3.9426   4.1487   4.3574   4.3792   4.5064
     4.5594   4.5934   4.6601   4.7086   4.7409   4.7434   4.8455   4.8496
     4.9398   4.9413   5.0449   5.0792   5.0857   5.1331   5.1683   5.2218
     5.2325   5.2554   5.2897   5.2978   5.3264   5.3398   5.4180   5.4527
     5.5090   5.5736   5.5872   5.6278   5.6311   5.6642   5.6939   5.7457
     5.8051   5.8582   5.8730   5.9331   5.9716   5.9887   6.0344   6.0664
     6.1063   6.1113   6.1699   6.1767   6.2418   6.2483   6.2794   6.2980
     6.3058   6.3372   6.3694   6.4142   6.4304   6.4565   6.5052   6.5564
     6.5925   6.6203   6.6422   6.6574   6.6846   6.7294   6.7703   6.7764
     6.8303   6.8747   6.8833   6.8848   6.9123   6.9475   6.9812   6.9986
     6.9995   7.1036   7.1369   7.1532   7.1995   7.2305   7.3001   7.3877
     7.4057   7.4139   7.4730   7.4754   7.5192   7.5522   7.5697   7.6043
     7.6071   7.6697   7.6751   7.7124   7.7385   7.7919   7.8089   7.8602
     7.8928   7.8962   7.9376   7.9851   7.9961   8.0101   8.1047   8.1073
     8.1865   8.1877   8.2019   8.2449   8.2772   8.3381   8.3709   8.3717
     8.4128   8.4245   8.5042   8.5331   8.5586   8.6995   8.7246   8.7506
     8.7795   8.7804   8.7927   8.8049   8.8242   8.9105   8.9592   9.0014
     9.1145   9.5751   9.5874   9.6016   9.6305   9.7185   9.8704  10.1388
    10.2191  10.5375  10.8279  11.0470  11.6292  11.6526  12.2875  12.3523
    13.0321  13.2889  13.7097  14.4500  14.6218  15.3294  16.2479  16.2527
    16.4298  16.6268  16.7239  16.8528  16.9718  17.1049  17.4242  17.5218
    17.7450  17.7723  17.9892  18.0774

          k = 0.3750 0.5774 0.0000 ( 23521 PWs)   bands (ev):

     3.8168   3.9175   4.0533   4.2177   4.2886   4.3412   4.3757   4.4114
     4.4894   4.4945   4.5688   4.5734   4.6599   4.6776   4.6901   4.7720
     4.8236   4.8297   4.8438   4.8641   4.8995   4.9229   4.9321   4.9879
     5.0153   5.0302   5.0776   5.0971   5.1183   5.1719   5.2265   5.2285
     5.2996   5.3479   5.3523   5.3975   5.4712   5.4886   5.6189   5.6671
     5.7693   5.8621   5.9136   6.0369   6.0694   6.1297   6.1400   6.1641
     6.1969   6.2993   6.3299   6.3570   6.3989   6.4601   6.4764   6.5338
     6.5350   6.5448   6.5670   6.5910   6.6101   6.6299   6.6985   6.7431
     6.7557   6.7870   6.8508   6.8646   6.9174   6.9209   6.9573   7.0237
     7.0397   7.0607   7.1051   7.1668   7.1685   7.2757   7.3367   7.3562
[...]
     8.2195   8.2457   8.2766   8.3020   8.3904   8.4043   8.4248   8.4628
     8.4961   8.5192   8.5551   8.5934   8.6175   8.6334   8.6621   8.6903
     8.7063   8.7230   8.7494   8.7636   8.7960   8.8267   8.9458   9.0959
     9.4046   9.5381   9.9678  10.0748  10.5987  10.7365  11.2854  11.5070
    12.0138  12.3973  12.7889  13.1280  13.5597  14.4097  15.1862  15.4760
    15.7578  15.9118  16.6108  17.1048  17.2651  17.3297  17.4414  17.6408
    17.8720  18.0268  18.3058  18.7599

          k =-0.5000 0.0000-0.0000 ( 23442 PWs)   bands (ev):

     3.1119   3.1119   3.2184   3.2184   3.4011   3.4011   3.6361   3.6361
     3.9119   3.9119   4.2027   4.2028   4.4715   4.4715   4.6563   4.6563
     4.7578   4.7578   4.8760   4.8761   5.0139   5.0139   5.1388   5.1389
     5.1730   5.1730   5.2157   5.2157   5.3126   5.3126   5.4471   5.4471
     5.5845   5.5845   5.7128   5.7129   5.8210   5.8210   5.8903   5.8904
     5.9267   5.9267   5.9918   5.9918   6.0572   6.0572   6.1486   6.1486
     6.2105   6.2105   6.2570   6.2570   6.3942   6.3942   6.5040   6.5040
     6.5482   6.5482   6.5897   6.5897   6.6283   6.6284   6.6573   6.6573
     6.6810   6.6810   6.6891   6.6891   6.7008   6.7008   6.7477   6.7478
     6.8130   6.8131   6.8444   6.8444   6.9023   6.9024   6.9561   6.9561
     6.9767   6.9768   7.1337   7.1338   7.1977   7.1978   7.2012   7.2013
     7.2209   7.2210   7.2664   7.2665   7.3371   7.3371   7.4170   7.4170
     7.4433   7.4433   7.5001   7.5001   7.5441   7.5441   7.5608   7.5608
     7.6083   7.6083   7.6227   7.6227   7.6629   7.6629   7.7027   7.7027
     7.8052   7.8053   7.8198   7.8198   7.9042   7.9042   7.9816   7.9816
     8.0414   8.0414   8.0584   8.0584   8.1131   8.1132   8.1704   8.1704
     8.2487   8.2488   8.3778   8.3778   8.3896   8.3896   8.5576   8.5576
     8.7053   8.7053   8.8150   8.8150   8.8237   8.8237   8.8675   8.8675
     9.3194   9.3194   9.8832   9.8832  10.5100  10.5100  11.2110  11.2110
    11.9995  11.9995  12.8677  12.8677  13.9767  13.9768  14.8525  14.8526
    15.8678  15.8679  16.4288  16.4294  17.4051  17.4054  17.8038  17.8042
    19.1520  19.1524  19.2939  19.2941

          k =-0.5000 0.1443-0.0000 ( 23476 PWs)   bands (ev):

     3.2492   3.2521   3.3526   3.3529   3.5279   3.5292   3.7553   3.7564
     4.0251   4.0255   4.3144   4.3152   4.5943   4.5948   4.7993   4.8035
     4.8987   4.8991   5.0084   5.0089   5.1378   5.1378   5.2128   5.2168
     5.2800   5.2820   5.2987   5.3042   5.3793   5.3815   5.4916   5.4952
     5.6012   5.6070   5.6768   5.6858   5.7463   5.7509   5.7547   5.7609
     5.8461   5.8462   5.8651   5.8668   5.9561   5.9563   6.0023   6.0094
     6.0513   6.0632   6.0836   6.0862   6.2364   6.2452   6.3805   6.3977
     6.4587   6.4659   6.4894   6.5010   6.5316   6.5451   6.5610   6.5885
     6.6011   6.6210   6.6315   6.6499   6.6579   6.6595   6.6742   6.6753
     6.7024   6.7174   6.7268   6.7328   6.7632   6.7638   6.8803   6.8816
     6.9832   6.9866   7.0725   7.0754   7.1690   7.1743   7.3027   7.3036
     7.3567   7.3630   7.3822   7.3853   7.3882   7.3904   7.4041   7.4145
     7.4528   7.4726   7.4979   7.5021   7.5838   7.5890   7.6335   7.6411
     7.7094   7.7105   7.7688   7.7712   7.7808   7.7850   7.8313   7.8386
     7.8622   7.8672   7.9387   7.9449   8.0874   8.0877   8.1066   8.1071
     8.1635   8.1764   8.1911   8.2033   8.2339   8.2392   8.2998   8.3021
     8.3053   8.3068   8.3481   8.3500   8.4296   8.4342   8.5680   8.5752
     8.6331   8.6526   8.7156   8.7164   8.7543   8.7591   9.0048   9.0141
     9.4641   9.4785  10.0064  10.0205  10.6263  10.6430  11.3346  11.3433
    12.1226  12.1355  12.9840  12.9871  14.1995  14.2072  14.9807  14.9887
    15.9891  15.9905  16.5243  16.5292  17.5466  17.5565  17.8605  17.8641
    19.2099  19.2151  19.3750  19.3855

          k =-0.5000 0.2887-0.0000 ( 23540 PWs)   bands (ev):

     3.6126   3.6229   3.7018   3.7030   3.8469   3.8514   4.0380   4.0425
     4.2690   4.2719   4.5227   4.5284   4.7886   4.7941   5.0505   5.0522
     5.2364   5.2443   5.2819   5.2938   5.3207   5.3300   5.3625   5.3651
     5.3942   5.3970   5.4220   5.4299   5.4504   5.4521   5.5166   5.5183
     5.5257   5.5268   5.5453   5.5591   5.5948   5.6014   5.6538   5.6555
     5.7231   5.7287   5.7828   5.7903   5.8287   5.8308   5.8348   5.8374
     5.9979   6.0057   6.0528   6.0598   6.0751   6.0778   6.1584   6.1631
     6.2115   6.2229   6.2578   6.2651   6.3428   6.3530   6.4077   6.4213
     6.4529   6.4665   6.4925   6.5056   6.5307   6.5351   6.5476   6.5930
     6.6068   6.6068   6.6075   6.6160   6.9759   6.9803   6.9804   6.9888
     7.0024   7.0094   7.0479   7.0545   7.1482   7.1810   7.1878   7.2044
     7.2689   7.2752   7.3427   7.3586   7.4336   7.4601   7.5194   7.5275
     7.5752   7.5778   7.6355   7.6363   7.6881   7.6958   7.7792   7.7804
     7.7901   7.7996   7.9508   7.9554   8.0236   8.0265   8.0434   8.0456
     8.1760   8.1894   8.1967   8.2038   8.2420   8.2493   8.3696   8.3705
     8.4056   8.4097   8.4338   8.4345   8.4454   8.4512   8.4891   8.4905
     8.5231   8.5334   8.5497   8.5738   8.5993   8.5995   8.6340   8.6392
     8.6854   8.6859   8.7106   8.7239   8.8451   8.8483   9.2712   9.2818
     9.7627   9.7804  10.3218  10.3418  10.9538  10.9824  11.6758  11.6900
    12.4564  12.4815  13.2810  13.2890  14.7779  14.7971  15.3684  15.3821
    16.3290  16.3376  16.8336  16.8489  17.9041  17.9341  18.0458  18.0506
    19.2856  19.2942  19.3235  19.3547

          k =-0.5000 0.4330-0.0000 ( 23522 PWs)   bands (ev):

     3.9644   3.9899   4.0542   4.0562   4.1761   4.1910   4.3173   4.3299
     4.4490   4.4620   4.5784   4.5921   4.7270   4.7365   4.8708   4.8760
     4.9706   4.9782   5.0343   5.0407   5.0920   5.0997   5.1449   5.1483
     5.2080   5.2119   5.3025   5.3074   5.3489   5.3546   5.4655   5.4656
     5.5102   5.5128   5.5981   5.5996   5.6362   5.6596   5.7506   5.7564
     5.8620   5.8630   5.9317   5.9399   6.0005   6.0007   6.0567   6.0591
     6.1154   6.1243   6.1873   6.1900   6.2264   6.2337   6.2806   6.2807
     6.3331   6.3410   6.4012   6.4122   6.4439   6.4441   6.4831   6.4980
     6.5368   6.5458   6.6256   6.6408   6.7141   6.7173   6.7472   6.7653
     6.7973   6.8128   6.8379   6.8390   6.8924   6.9055   6.9261   6.9316
     7.0298   7.0335   7.1153   7.1190   7.2280   7.2324   7.3993   7.3995
     7.4926   7.4953   7.5245   7.5307   7.5572   7.5577   7.5842   7.5997
     7.6140   7.6189   7.6887   7.6963   7.8159   7.8188   7.8485   7.8505
     8.0131   8.0145   8.0977   8.1065   8.2102   8.2135   8.2735   8.2742
     8.3616   8.3654   8.4596   8.4618   8.5052   8.5077   8.5325   8.5351
     8.5693   8.5701   8.6328   8.6335   8.6649   8.6868   8.7782   8.7801
     8.7852   8.7871   8.8210   8.8372   8.8539   8.8565   8.8769   8.8797
     8.9239   8.9246   9.0125   9.0127   9.2058   9.2075   9.6285   9.6373
    10.1651  10.1822  10.7768  10.7962  11.4438  11.4786  12.1787  12.1950
    12.9360  12.9709  13.7028  13.7150  15.4314  15.4643  15.9373  15.9544
    16.7575  16.7730  17.3702  17.4137  17.4685  17.5020  17.6796  17.6952
    17.9545  17.9751  18.1116  18.1134

          k =-0.5000 0.5774-0.0000 ( 23534 PWs)   bands (ev):

     4.0262   4.0513   4.1354   4.1359   4.2887   4.3089   4.4389   4.4624
     4.4880   4.4893   4.5120   4.5123   4.5875   4.6036   4.6364   4.6448
     4.7308   4.7315   4.7511   4.7525   4.8151   4.8158   4.8755   4.8773
     4.9342   4.9417   5.0289   5.0390   5.0965   5.0970   5.2474   5.2491
     5.2676   5.2686   5.3527   5.3551   5.5589   5.5656   5.7378   5.7416
     5.8757   5.8835   6.0425   6.0537   6.1916   6.2110   6.2501   6.2807
     6.3271   6.3275   6.3556   6.3561   6.4263   6.4322   6.4936   6.4959
     6.5388   6.5447   6.5680   6.5745   6.6000   6.6017   6.7050   6.7137
     6.7370   6.7420   6.8296   6.8406   6.9534   6.9573   7.0164   7.0215
     7.0997   7.1057   7.1879   7.1951   7.2561   7.2632   7.3069   7.3234
     7.4295   7.4356   7.5671   7.5680   7.6496   7.6592   7.7682   7.7856
     7.8329   7.8344   7.9118   7.9120   7.9357   7.9370   8.0250   8.0272
     8.1430   8.1558   8.1891   8.2046   8.2094   8.2115   8.2193   8.2213
     8.2707   8.2739   8.2817   8.2877   8.4386   8.4388   8.4815   8.4838
     8.5168   8.5211   8.5814   8.5827   8.5973   8.6004   8.6691   8.6723
     8.7369   8.7369   8.7807   8.7879   8.8089   8.8293   8.9080   8.9088
     8.9440   8.9630   9.1141   9.1146   9.2310   9.2315   9.3237   9.3275
     9.3611   9.3718   9.4559   9.4592   9.6802   9.6840  10.1158  10.1186
    10.7025  10.7142  11.3812  11.3931  12.0972  12.1311  12.8445  12.8605
    13.5593  13.6028  14.2701  14.2804  15.2856  15.2924  15.3575  15.3751
    15.5666  15.5772  15.7047  15.7150  15.9880  16.0020  16.4296  16.4432
    16.9043  16.9070  17.1924  17.1956

          k =-0.5000 0.7217-0.0000 ( 23516 PWs)   bands (ev):

     3.9749   3.9966   4.0872   4.0873   4.2484   4.2644   4.2695   4.2804
     4.3455   4.3461   4.4480   4.4519   4.4677   4.4686   4.5515   4.5554
     4.5816   4.5838   4.6249   4.6250   4.6403   4.6469   4.6950   4.6956
     4.7547   4.7610   4.8075   4.8145   4.9387   4.9406   5.0716   5.0717
     5.0989   5.0991   5.2163   5.2164   5.4879   5.4888   5.7446   5.7517
     5.9242   5.9304   6.0618   6.0903   6.1748   6.1830   6.2399   6.2675
     6.3053   6.3137   6.3626   6.3627   6.3871   6.3984   6.4626   6.4645
     6.5242   6.5307   6.6061   6.6267   6.7365   6.7506   6.7986   6.8005
     6.9072   6.9184   7.0143   7.0202   7.0802   7.0890   7.2949   7.3020
     7.3367   7.3377   7.4277   7.4307   7.5974   7.6015   7.7426   7.7622
     7.8300   7.8307   7.8860   7.8970   8.1261   8.1291   8.1430   8.1498
     8.2467   8.2487   8.3935   8.3984   8.4642   8.4661   8.5464   8.5533
     8.5595   8.5636   8.5942   8.5956   8.6494   8.6516   8.6714   8.6755
     8.6962   8.6980   8.7140   8.7172   8.7237   8.7252   8.7360   8.7375
     8.7597   8.7634   8.7751   8.7823   8.7998   8.8005   8.8434   8.8442
     8.8715   8.8740   8.9250   8.9299   8.9902   9.0115   9.0750   9.0751
     9.0801   9.0841   9.5688   9.5864   9.8177   9.8189  10.0508  10.0627
    10.2130  10.2259  10.3058  10.3213  10.4682  10.4856  10.8328  10.8458
    11.3869  11.3913  12.0408  12.0543  12.7409  12.7455  13.3222  13.3604
    13.4685  13.4702  13.5459  13.5756  13.6467  13.7181  13.9419  13.9559
    14.2222  14.2831  14.5380  14.5579  14.8373  14.8910  15.2328  15.2732
    15.5933  15.6096  15.8847  15.9101

          k =-0.5000-0.8660-0.0000 ( 23552 PWs)   bands (ev):

     3.9467   3.9671   4.0589   4.0591   4.1996   4.2105   4.2213   4.2383
     4.2809   4.2817   4.3976   4.4018   4.4323   4.4329   4.4863   4.4903
     4.5320   4.5349   4.5596   4.5602   4.6071   4.6135   4.6550   4.6616
     4.6901   4.6945   4.7109   4.7118   4.8818   4.8838   5.0117   5.0126
     5.0342   5.0343   5.1712   5.1713   5.4571   5.4575   5.7390   5.7460
     5.9474   5.9487   6.0409   6.0768   6.1612   6.1629   6.2238   6.2497
     6.3143   6.3185   6.3213   6.3225   6.3504   6.3519   6.4182   6.4190
     6.5612   6.5814   6.7199   6.7334   6.7655   6.7656   6.7934   6.7991
     7.0062   7.0162   7.0500   7.0644   7.1378   7.1418   7.2806   7.2841
     7.4774   7.4831   7.5657   7.5675   7.5754   7.5853   7.8489   7.8517
     7.9354   7.9615   8.0443   8.0510   8.1180   8.1236   8.3741   8.3759
     8.3893   8.3893   8.4881   8.4933   8.5729   8.5794   8.6905   8.6968
     8.6970   8.7143   8.7397   8.7409   8.7838   8.7982   8.8008   8.8013
     8.8115   8.8255   8.8383   8.8395   8.8408   8.8426   8.8590   8.8619
     8.8831   8.8848   8.9053   8.9120   8.9437   8.9440   8.9759   8.9832
     9.0214   9.0233   9.0251   9.0290   9.0642   9.0664   9.2360   9.2362
     9.2365   9.2366  10.1836  10.2278  10.5551  10.5604  10.9193  10.9500
    11.2312  11.2502  11.4688  11.4733  11.6115  11.6316  11.7105  11.7359
    11.7846  11.8006  11.8226  11.8654  11.8814  11.8871  11.8951  12.0354
    12.1305  12.1306  12.1309  12.1316  13.4916  13.6024  13.7308  13.7426
    13.9565  14.0438  14.2706  14.2925  14.5164  14.5778  14.8738  14.9166
    15.3193  15.3987  15.8546  15.9247

     the Fermi energy is    10.7333 ev

!    total energy              =  -20153.51450247 Ry

     total all-electron energy =   -988623.512870 Ry
     estimated scf accuracy    <          3.3E-09 Ry
     smearing contrib. (-TS)   =      -0.00037151 Ry
     internal energy E=F+TS    =  -20153.51413096 Ry

     The total energy is F=E-TS. E is the sum of the following terms:
     one-electron contribution =   -8801.56550312 Ry
     hartree contribution      =    4726.30001613 Ry
     xc contribution           =    -833.58641983 Ry
     ewald contribution        =    2760.66891208 Ry
     one-center paw contrib.   =  -18005.33113622 Ry

     convergence has been achieved in  10 iterations

     negative rho (up, down):  2.448E-03 0.000E+00

     Forces acting on atoms (cartesian axes, Ry/au):

     atom    1 type  1   force =    -0.00000933    0.00001795   -0.00022246
     atom    2 type  1   force =     0.00000484   -0.00005181    0.00022306
     atom    3 type  1   force =     0.00004634   -0.00000793    0.00026444
     atom    4 type  1   force =     0.00053266    0.00284289    0.00001102
     atom    5 type  1   force =    -0.00003949   -0.00000264   -0.00013371
     atom    6 type  1   force =     0.00004708   -0.00001594   -0.00016970
     atom    7 type  1   force =    -0.00009866   -0.00002895   -0.00092006
     atom    8 type  1   force =    -0.00047181   -0.00287589   -0.00000879
     atom    9 type  1   force =     0.00001341   -0.00001060   -0.00024955
     atom   10 type  1   force =     0.00010162   -0.00000171    0.00092028
     atom   11 type  1   force =    -0.00004783   -0.00001140    0.00014691
     atom   12 type  1   force =    -0.00002161    0.00028010    0.00043983
     atom   13 type  1   force =    -0.00005770   -0.00028981   -0.00030016
     atom   14 type  1   force =     0.00004854   -0.00001474   -0.00017093
     atom   15 type  1   force =    -0.00009962    0.00002150   -0.00091794
     atom   16 type  1   force =    -0.00047142   -0.00282302   -0.00000747
     atom   17 type  1   force =     0.00001239   -0.00001052   -0.00024982
     atom   18 type  1   force =     0.00009591   -0.00000209    0.00091763
     atom   19 type  1   force =    -0.00004954    0.00004635    0.00014212
     atom   20 type  1   force =    -0.00002073    0.00033280    0.00044061
     atom   21 type  1   force =    -0.00005695   -0.00028905   -0.00029830
     atom   22 type  1   force =    -0.00000093    0.00000875   -0.00022084
     atom   23 type  1   force =     0.00000528   -0.00000115    0.00022356
     atom   24 type  1   force =     0.00004878    0.00004442    0.00026414
     atom   25 type  1   force =     0.00053470    0.00284437    0.00001049
     atom   26 type  1   force =    -0.00004591   -0.00000190   -0.00013436

     Total force =     0.002131     Total SCF correction =     0.000202
     Energy error            =      9.4E-06 Ry
     Gradient error          =      9.2E-04 Ry/Bohr

     bfgs converged in   8 scf cycles and   7 bfgs steps
     (criteria: energy <  1.0E-04 Ry, force <  1.0E-03 Ry/Bohr)

     End of BFGS Geometry Optimization

     Final energy             =  -20153.5145024706 Ry

     File ./pwscf.bfgs deleted, as requested
Begin final coordinates

ATOMIC_POSITIONS (angstrom)
Au            0.0000000000        0.0000000000       -0.0106578393    0   0   1
Au            5.0991277561        0.1568322104       28.8559433219    0   0   1
Au            5.0991339819        0.1568322104       21.6350277226    0   0   1
Au            5.0991389889        0.0000000000       14.4192058311    0   0   1
Au            5.0991452147        0.0000000000        7.2100678843    0   0   1
Au            1.6997150733        0.0000000000        2.4187538820    0   0   1
Au            1.6996977676        0.1568322104       24.0393418843    0   0   1
Au            1.6997039934        0.1568322104       16.8304314902    0   0   1
Au            1.6997090005        0.0000000000        9.6132798208    0   0   1
Au            3.3994301414        0.0000000000        4.8058545939    0   0   1
Au            3.3994129888        0.1568322104       26.4265855714    0   0   1
Au            3.3994189086        0.1568322104       19.2327090245    0   0   1
Au            3.3994248284        0.0000000000       12.0169553900    0   0   1
Au            4.2492909414        1.4719970299        2.4187711054    0   0   1
Au            4.2492725751        1.6288292403       24.0393645118    0   0   1
Au            4.2492788009        1.6288292403       16.8304310113    0   0   1
Au            4.2492850215        1.4719970299        9.6132692583    0   0   1
Au            0.8498539674        1.4719970299        4.8058295325    0   0   1
Au            0.8498368147        1.6288292403       26.4265916525    0   0   1
Au            0.8498428875        1.6288292403       19.2327328793    0   0   1
Au            0.8498488838        1.4719970299       12.0169786083    0   0   1
Au            2.5495761740        1.4719970299       -0.0106194972    0   0   1
Au            2.5495526478        1.6288292403       28.8559384168    0   0   1
Au            2.5495578078        1.6288292403       21.6350413594    0   0   1
Au            2.5495637276        1.4719970299       14.4191934662    0   0   1
Au            2.5495699534        1.4719970299        7.2100445943    0   0   1
End final coordinates



     Writing all to output data dir ./pwscf.save/
 
     init_run     :     25.88s CPU     27.09s WALL (       1 calls)
     electrons    :  11232.04s CPU  11348.40s WALL (      10 calls)
     update_pot   :      5.04s CPU      5.13s WALL (       9 calls)
     forces       :     89.15s CPU     90.39s WALL (      10 calls)

     Called by init_run:
     wfcinit      :     25.28s CPU     26.00s WALL (       1 calls)
     potinit      :      0.33s CPU      0.54s WALL (       1 calls)
     hinit0       :      0.18s CPU      0.38s WALL (       1 calls)

     Called by electrons:
     c_bands      :  10249.62s CPU  10350.48s WALL (     147 calls)
     sum_band     :    934.91s CPU    944.45s WALL (     147 calls)
     v_of_rho     :      5.33s CPU      8.36s WALL (     151 calls)
     newd         :      8.23s CPU      9.19s WALL (     151 calls)
     PAW_pot      :     38.67s CPU     39.01s WALL (     160 calls)
     mix_rho      :      0.51s CPU      0.57s WALL (     147 calls)

     Called by c_bands:
     init_us_2    :     37.04s CPU     37.47s WALL (   15700 calls)
     init_us_2:cp :     36.96s CPU     37.44s WALL (   15700 calls)
     cegterg      :   9901.86s CPU   9998.07s WALL (    7451 calls)

     Called by *egterg:
     cdiaghg      :    864.76s CPU    879.06s WALL (   30997 calls)
     h_psi        :   6090.80s CPU   6150.08s WALL (   31898 calls)
     s_psi        :    724.84s CPU    728.99s WALL (   31898 calls)
     g_psi        :     13.81s CPU     13.98s WALL (   24397 calls)

     Called by h_psi:
     h_psi:calbec :    789.28s CPU    794.65s WALL (   31898 calls)
     vloc_psi     :   4502.71s CPU   4550.10s WALL (   31898 calls)
     add_vuspsi   :    784.76s CPU    789.30s WALL (   31898 calls)

     General routines
     calbec       :   1156.68s CPU   1164.63s WALL (   41698 calls)
     fft          :      6.30s CPU      9.82s WALL (    1786 calls)
     ffts         :      0.21s CPU      0.25s WALL (     147 calls)
     fftw         :   4885.56s CPU   4934.53s WALL ( 8133204 calls)
 
     Parallel routines
 
     PWSCF        :      3h10m CPU      3h12m WALL

 
   This run was terminated on:  12:52:14  16Feb2024            

=------------------------------------------------------------------------------=
   JOB DONE.
=------------------------------------------------------------------------------=
