MPI startup(): Warning: I_MPI_PMI_LIBRARY will be ignored since the hydra process manager was found
MPI startup(): Warning: I_MPI_PMI_LIBRARY will be ignored since the hydra process manager was found
MPI startup(): Warning: I_MPI_PMI_LIBRARY will be ignored since the hydra process manager was found
MPI startup(): Warning: I_MPI_PMI_LIBRARY will be ignored since the hydra process manager was found
MPI startup(): Warning: I_MPI_PMI_LIBRARY will be ignored since the hydra process manager was found
MPI startup(): Warning: I_MPI_PMI_LIBRARY will be ignored since the hydra process manager was found
MPI startup(): Warning: I_MPI_PMI_LIBRARY will be ignored since the hydra process manager was found
MPI startup(): Warning: I_MPI_PMI_LIBRARY will be ignored since the hydra process manager was found
MPI startup(): Warning: I_MPI_PMI_LIBRARY will be ignored since the hydra process manager was found
MPI startup(): Warning: I_MPI_PMI_LIBRARY will be ignored since the hydra process manager was found

     Program PWSCF v.7.0 starts on 14Feb2024 at 17:49: 7 

     This program is part of the open-source Quantum ESPRESSO suite
     for quantum simulation of materials; please cite
         "P. Giannozzi et al., J. Phys.:Condens. Matter 21 395502 (2009);
         "P. Giannozzi et al., J. Phys.:Condens. Matter 29 465901 (2017);
         "P. Giannozzi et al., J. Chem. Phys. 152 154105 (2020);
          URL http://www.quantum-espresso.org", 
     in publications or presentations arising from this work. More details at
     http://www.quantum-espresso.org/quote

     Parallel version (MPI), running on    10 processors

     MPI processes distributed on     1 nodes
     R & G space division:  proc/nbgrp/npool/nimage =      10
     183562 MiB available memory on the printing compute node when the environment starts
 
     Reading input from GSF111R_0.1.in
Warning: card &CELL ignored
Warning: card / ignored

     Current dimensions of program PWSCF are:
     Max number of different atomic species (ntypx) = 10
     Max number of k-points (npk) =  40000
     Max angular momentum in pseudopotentials (lmaxx) =  4
     file Au.pbe-n-kjpaw_psl.1.0.0.UPF: wavefunction(s)  6S 5D renormalized
     Found identity + ( -0.5000  0.5000  0.0000) symmetry
     This is a supercell, fractional translations are disabled

     Subspace diagonalization in iterative solution of the eigenvalue problem:
     one sub-group per band group will be used
     scalapack distributed-memory algorithm (size of sub-group:  3*  3 procs)

 
     Parallelization info
     --------------------
     sticks:   dense  smooth     PW     G-vecs:    dense   smooth      PW
     Min          85      85     25                18799    18799    3045
     Max          87      87     26                18816    18816    3065
     Sum         859     859    251               188065   188065   30575
 
     Using Slab Decomposition
 


     bravais-lattice index     =            0
     lattice parameter (alat)  =       9.6360  a.u.
     unit-cell volume          =    3935.2145 (a.u.)^3
     number of atoms/cell      =           26
     number of atomic types    =            1
     number of electrons       =       286.00
     number of Kohn-Sham states=          172
     kinetic-energy cutoff     =      50.0000  Ry
     charge density cutoff     =     200.0000  Ry
     scf convergence threshold =      1.0E-06
     mixing beta               =       0.7000
     number of iterations used =            8  plain     mixing
     energy convergence thresh.=      1.0E-04
     force convergence thresh. =      1.0E-03
     Exchange-correlation= SLA  PW   PBX  PBC
                           (   1   4   3   4   0   0   0)
     nstep                     =           50


     celldm(1)=   9.635999  celldm(2)=   0.000000  celldm(3)=   0.000000
     celldm(4)=   0.000000  celldm(5)=   0.000000  celldm(6)=   0.000000

     crystal axes: (cart. coord. in units of alat)
               a(1) = (   1.000000   0.000000   0.000000 )  
               a(2) = (   0.000000   0.577350   0.000000 )  
               a(3) = (  -0.000005   0.000000   7.617966 )  

     reciprocal axes: (cart. coord. in units 2 pi/alat)
               b(1) = (  1.000000  0.000000  0.000001 )  
               b(2) = (  0.000000  1.732052  0.000000 )  
               b(3) = (  0.000000  0.000000  0.131269 )  


     PseudoPot. # 1 for Au read from file:
     ./Au.pbe-n-kjpaw_psl.1.0.0.UPF
     MD5 check sum: 4db85c736373c707a97ce4c36c2a9d23
     Pseudo is Projector augmented-wave + core cor, Zval = 11.0
     Generated using &quot;atomic&quot; code by A. Dal Corso  v.6.3
     Shape of augmentation charge: PSQ
     Using radial grid of 1279 points,  6 beta functions with: 
                l(1) =   0
                l(2) =   0
                l(3) =   1
                l(4) =   1
                l(5) =   2
                l(6) =   2
     Q(r) pseudized with 0 coefficients 


     atomic species   valence    mass     pseudopotential
        Au            11.00   196.96657     Au( 1.00)

     No symmetry found



   Cartesian axes

     site n.     atom                  positions (alat units)
         1           Au  tau(   1) = (   0.0000000   0.0000000   0.0000000  )
         2           Au  tau(   2) = (   0.9999954   0.0577351   5.6568550  )
         3           Au  tau(   3) = (   0.9999966   0.0577351   4.2426411  )
         4           Au  tau(   4) = (   0.9999976   0.0000000   2.8284275  )
         5           Au  tau(   5) = (   0.9999988   0.0000000   1.4142138  )
         6           Au  tau(   6) = (   0.3333329   0.0000000   0.4714045  )
         7           Au  tau(   7) = (   0.3333296   0.0577351   4.7140455  )
         8           Au  tau(   8) = (   0.3333308   0.0577351   3.2998319  )
         9           Au  tau(   9) = (   0.3333318   0.0000000   1.8856185  )
        10           Au  tau(  10) = (   0.6666659   0.0000000   0.9428093  )
        11           Au  tau(  11) = (   0.6666625   0.0577351   5.1854506  )
        12           Au  tau(  12) = (   0.6666637   0.0577351   3.7712367  )
        13           Au  tau(  13) = (   0.6666649   0.0000000   2.3570234  )
        14           Au  tau(  14) = (   0.8333330   0.2886749   0.4714045  )
        15           Au  tau(  15) = (   0.8333294   0.3464100   4.7140455  )
        16           Au  tau(  16) = (   0.8333306   0.3464100   3.2998319  )
        17           Au  tau(  17) = (   0.8333318   0.2886749   1.8856185  )
        18           Au  tau(  18) = (   0.1666658   0.2886749   0.9428093  )
        19           Au  tau(  19) = (   0.1666624   0.3464100   5.1854506  )
        20           Au  tau(  20) = (   0.1666636   0.3464100   3.7712367  )
        21           Au  tau(  21) = (   0.1666648   0.2886749   2.3570234  )
        22           Au  tau(  22) = (   0.5000001   0.2886749   0.0000000  )
        23           Au  tau(  23) = (   0.4999955   0.3464100   5.6568550  )
        24           Au  tau(  24) = (   0.4999965   0.3464100   4.2426411  )
        25           Au  tau(  25) = (   0.4999977   0.2886749   2.8284275  )
        26           Au  tau(  26) = (   0.4999989   0.2886749   1.4142138  )

     number of k points=    50  Gaussian smearing, width (Ry)=  0.0020
                       cart. coord. in units 2pi/alat
        k(    1) = (   0.0000000   0.0000000   0.0000000), wk =   0.0208333
        k(    2) = (   0.0000000   0.1443376   0.0000000), wk =   0.0416667
        k(    3) = (   0.0000000   0.2886753   0.0000000), wk =   0.0416667
        k(    4) = (   0.0000000   0.4330129   0.0000000), wk =   0.0416667
        k(    5) = (   0.0000000   0.5773506   0.0000000), wk =   0.0416667
        k(    6) = (   0.0000000   0.7216882   0.0000000), wk =   0.0416667
        k(    7) = (   0.0000000  -0.8660259   0.0000000), wk =   0.0208333
        k(    8) = (   0.1250000   0.0000000   0.0000001), wk =   0.0416667
        k(    9) = (   0.1250000   0.1443376   0.0000001), wk =   0.0416667
        k(   10) = (   0.1250000   0.2886753   0.0000001), wk =   0.0416667
        k(   11) = (   0.1250000   0.4330129   0.0000001), wk =   0.0416667
        k(   12) = (   0.1250000   0.5773506   0.0000001), wk =   0.0416667
        k(   13) = (   0.1250000   0.7216882   0.0000001), wk =   0.0416667
        k(   14) = (   0.1250000  -0.8660259   0.0000001), wk =   0.0416667
        k(   15) = (   0.1250000  -0.7216882   0.0000001), wk =   0.0416667
        k(   16) = (   0.1250000  -0.5773506   0.0000001), wk =   0.0416667
        k(   17) = (   0.1250000  -0.4330129   0.0000001), wk =   0.0416667
        k(   18) = (   0.1250000  -0.2886753   0.0000001), wk =   0.0416667
        k(   19) = (   0.1250000  -0.1443376   0.0000001), wk =   0.0416667
        k(   20) = (   0.2500000   0.0000000   0.0000002), wk =   0.0416667
        k(   21) = (   0.2500000   0.1443376   0.0000002), wk =   0.0416667
        k(   22) = (   0.2500000   0.2886753   0.0000002), wk =   0.0416667
        k(   23) = (   0.2500000   0.4330129   0.0000002), wk =   0.0416667
        k(   24) = (   0.2500000   0.5773506   0.0000002), wk =   0.0416667
        k(   25) = (   0.2500000   0.7216882   0.0000002), wk =   0.0416667
        k(   26) = (   0.2500000  -0.8660259   0.0000002), wk =   0.0416667
        k(   27) = (   0.2500000  -0.7216882   0.0000002), wk =   0.0416667
        k(   28) = (   0.2500000  -0.5773506   0.0000002), wk =   0.0416667
        k(   29) = (   0.2500000  -0.4330129   0.0000002), wk =   0.0416667
        k(   30) = (   0.2500000  -0.2886753   0.0000002), wk =   0.0416667
        k(   31) = (   0.2500000  -0.1443376   0.0000002), wk =   0.0416667
        k(   32) = (   0.3750000   0.0000000   0.0000002), wk =   0.0416667
        k(   33) = (   0.3750000   0.1443376   0.0000002), wk =   0.0416667
        k(   34) = (   0.3750000   0.2886753   0.0000002), wk =   0.0416667
        k(   35) = (   0.3750000   0.4330129   0.0000002), wk =   0.0416667
        k(   36) = (   0.3750000   0.5773506   0.0000002), wk =   0.0416667
        k(   37) = (   0.3750000   0.7216882   0.0000002), wk =   0.0416667
        k(   38) = (   0.3750000  -0.8660259   0.0000002), wk =   0.0416667
        k(   39) = (   0.3750000  -0.7216882   0.0000002), wk =   0.0416667
        k(   40) = (   0.3750000  -0.5773506   0.0000002), wk =   0.0416667
        k(   41) = (   0.3750000  -0.4330129   0.0000002), wk =   0.0416667
        k(   42) = (   0.3750000  -0.2886753   0.0000002), wk =   0.0416667
        k(   43) = (   0.3750000  -0.1443376   0.0000002), wk =   0.0416667
        k(   44) = (  -0.5000000   0.0000000  -0.0000003), wk =   0.0208333
        k(   45) = (  -0.5000000   0.1443376  -0.0000003), wk =   0.0416667
        k(   46) = (  -0.5000000   0.2886753  -0.0000003), wk =   0.0416667
        k(   47) = (  -0.5000000   0.4330129  -0.0000003), wk =   0.0416667
        k(   48) = (  -0.5000000   0.5773506  -0.0000003), wk =   0.0416667
        k(   49) = (  -0.5000000   0.7216882  -0.0000003), wk =   0.0416667
        k(   50) = (  -0.5000000  -0.8660259  -0.0000003), wk =   0.0208333

     Dense  grid:   188065 G-vectors     FFT dimensions: (  45,  25, 360)

     Estimated max dynamical RAM per process >     418.32 MB

     Estimated total dynamical RAM >       4.09 GB

     Initial potential from superposition of free atoms

     starting charge     285.9971, renormalised to     286.0000

     negative rho (up, down):  2.404E-03 0.000E+00
     Starting wfcs are  234 randomized atomic wfcs
     Checking if some PAW data can be deallocated... 

     total cpu time spent up to now is       24.0 secs

     Self-consistent Calculation

     iteration #  1     ecut=    50.00 Ry     beta= 0.70
     Davidson diagonalization with overlap
     ethr =  1.00E-02,  avg # of iterations =  4.8

     Threshold (ethr) on eigenvalues was too large:
     Diagonalizing with lowered threshold

     Davidson diagonalization with overlap
     ethr =  3.97E-04,  avg # of iterations =  4.8

     negative rho (up, down):  1.662E-03 0.000E+00

     total cpu time spent up to now is      166.9 secs

     total energy              =  -20152.82954187 Ry
     estimated scf accuracy    <       1.44772832 Ry

     iteration #  2     ecut=    50.00 Ry     beta= 0.70
     Davidson diagonalization with overlap
     c_bands:  1 eigenvalues not converged
     c_bands:  3 eigenvalues not converged
     ethr =  5.06E-04,  avg # of iterations = 16.5

     negative rho (up, down):  1.663E-03 0.000E+00

     total cpu time spent up to now is      310.4 secs

     total energy              =  -20133.65125959 Ry
     estimated scf accuracy    <    2635.44252667 Ry

     iteration #  3     ecut=    50.00 Ry     beta= 0.70
     Davidson diagonalization with overlap
     ethr =  5.06E-04,  avg # of iterations = 11.3

     negative rho (up, down):  1.881E-03 0.000E+00

     total cpu time spent up to now is      420.5 secs

     total energy              =  -20152.56678375 Ry
     estimated scf accuracy    <       3.65073455 Ry

     iteration #  4     ecut=    50.00 Ry     beta= 0.70
     Davidson diagonalization with overlap
     ethr =  5.06E-04,  avg # of iterations = 10.5

     negative rho (up, down):  1.899E-03 0.000E+00

     total cpu time spent up to now is      517.0 secs

     total energy              =  -20148.57921310 Ry
     estimated scf accuracy    <     260.38771694 Ry

     iteration #  5     ecut=    50.00 Ry     beta= 0.70
     Davidson diagonalization with overlap
     ethr =  5.06E-04,  avg # of iterations = 12.1

     negative rho (up, down):  1.642E-03 0.000E+00

     total cpu time spent up to now is      628.6 secs

     total energy              =  -20139.45224892 Ry
     estimated scf accuracy    <    2366.51651838 Ry

     iteration #  6     ecut=    50.00 Ry     beta= 0.70
     Davidson diagonalization with overlap
     c_bands:  1 eigenvalues not converged
     ethr =  5.06E-04,  avg # of iterations = 11.1

     negative rho (up, down):  1.588E-03 0.000E+00

     total cpu time spent up to now is      724.0 secs

     total energy              =  -20153.36973422 Ry
     estimated scf accuracy    <       1.70730201 Ry

     iteration #  7     ecut=    50.00 Ry     beta= 0.70
     Davidson diagonalization with overlap
     ethr =  5.06E-04,  avg # of iterations =  2.2

     negative rho (up, down):  1.646E-03 0.000E+00

     total cpu time spent up to now is      778.3 secs

     total energy              =  -20153.45940771 Ry
     estimated scf accuracy    <       1.50468565 Ry

     iteration #  8     ecut=    50.00 Ry     beta= 0.70
     Davidson diagonalization with overlap
     ethr =  5.06E-04,  avg # of iterations =  1.1

     negative rho (up, down):  1.719E-03 0.000E+00

     total cpu time spent up to now is      826.0 secs

     total energy              =  -20153.49282103 Ry
     estimated scf accuracy    <       0.43094318 Ry

     iteration #  9     ecut=    50.00 Ry     beta= 0.70
     Davidson diagonalization with overlap
     ethr =  1.51E-04,  avg # of iterations =  4.6

     negative rho (up, down):  1.847E-03 0.000E+00

     total cpu time spent up to now is      883.3 secs

     total energy              =  -20153.48712741 Ry
     estimated scf accuracy    <       0.76666972 Ry

     iteration # 10     ecut=    50.00 Ry     beta= 0.70
     Davidson diagonalization with overlap
     ethr =  1.51E-04,  avg # of iterations =  1.4

     negative rho (up, down):  2.094E-03 0.000E+00

     total cpu time spent up to now is      933.4 secs

     total energy              =  -20153.50686620 Ry
     estimated scf accuracy    <       0.10795296 Ry

     iteration # 11     ecut=    50.00 Ry     beta= 0.70
     Davidson diagonalization with overlap
     c_bands:  1 eigenvalues not converged
     ethr =  3.77E-05,  avg # of iterations =  6.9

     negative rho (up, down):  2.247E-03 0.000E+00

     total cpu time spent up to now is      994.2 secs

     total energy              =  -20153.50890969 Ry
     estimated scf accuracy    <       0.01827599 Ry

     iteration # 12     ecut=    50.00 Ry     beta= 0.70
     Davidson diagonalization with overlap
     c_bands:  1 eigenvalues not converged
     c_bands:  1 eigenvalues not converged
     c_bands:  1 eigenvalues not converged
     c_bands:  1 eigenvalues not converged
     c_bands:  1 eigenvalues not converged
     ethr =  6.39E-06,  avg # of iterations = 12.7

     negative rho (up, down):  2.164E-03 0.000E+00

     total cpu time spent up to now is     1078.3 secs

     total energy              =  -20153.50229379 Ry
     estimated scf accuracy    <       0.44956726 Ry

     iteration # 13     ecut=    50.00 Ry     beta= 0.70
     Davidson diagonalization with overlap
     ethr =  6.39E-06,  avg # of iterations =  9.1

     negative rho (up, down):  2.293E-03 0.000E+00

     total cpu time spent up to now is     1146.2 secs

     total energy              =  -20153.51066628 Ry
     estimated scf accuracy    <       0.02533398 Ry

     iteration # 14     ecut=    50.00 Ry     beta= 0.70
     Davidson diagonalization with overlap
     ethr =  6.39E-06,  avg # of iterations =  2.5

     negative rho (up, down):  2.241E-03 0.000E+00

     total cpu time spent up to now is     1201.3 secs

     total energy              =  -20153.51056581 Ry
     estimated scf accuracy    <       0.01723199 Ry

     iteration # 15     ecut=    50.00 Ry     beta= 0.70
     Davidson diagonalization with overlap
     c_bands:  1 eigenvalues not converged
     ethr =  6.03E-06,  avg # of iterations = 12.4

     negative rho (up, down):  2.242E-03 0.000E+00

     total cpu time spent up to now is     1276.1 secs

     total energy              =  -20153.50042552 Ry
     estimated scf accuracy    <       0.99308375 Ry

     iteration # 16     ecut=    50.00 Ry     beta= 0.70
     Davidson diagonalization with overlap
     c_bands:  1 eigenvalues not converged
     c_bands:  1 eigenvalues not converged
     ethr =  6.03E-06,  avg # of iterations = 12.6

     negative rho (up, down):  2.243E-03 0.000E+00

     total cpu time spent up to now is     1347.2 secs

     total energy              =  -20153.51169513 Ry
     estimated scf accuracy    <       0.00797799 Ry

     iteration # 17     ecut=    50.00 Ry     beta= 0.70
     Davidson diagonalization with overlap
     ethr =  2.79E-06,  avg # of iterations =  2.4

     negative rho (up, down):  2.244E-03 0.000E+00

     total cpu time spent up to now is     1400.8 secs

     total energy              =  -20153.51198567 Ry
     estimated scf accuracy    <       0.00014688 Ry

     iteration # 18     ecut=    50.00 Ry     beta= 0.70
     Davidson diagonalization with overlap
     ethr =  5.14E-08,  avg # of iterations =  4.7

     negative rho (up, down):  2.245E-03 0.000E+00

     total cpu time spent up to now is     1483.5 secs

     total energy              =  -20153.51203094 Ry
     estimated scf accuracy    <       0.00068714 Ry

     iteration # 19     ecut=    50.00 Ry     beta= 0.70
     Davidson diagonalization with overlap
     ethr =  5.14E-08,  avg # of iterations =  1.2

     negative rho (up, down):  2.248E-03 0.000E+00

     total cpu time spent up to now is     1531.9 secs

     total energy              =  -20153.51203868 Ry
     estimated scf accuracy    <       0.00007332 Ry

     iteration # 20     ecut=    50.00 Ry     beta= 0.70
     Davidson diagonalization with overlap
     ethr =  2.56E-08,  avg # of iterations =  2.0

     negative rho (up, down):  2.251E-03 0.000E+00

     total cpu time spent up to now is     1586.5 secs

     total energy              =  -20153.51202031 Ry
     estimated scf accuracy    <       0.00015564 Ry

     iteration # 21     ecut=    50.00 Ry     beta= 0.70
     Davidson diagonalization with overlap
     ethr =  2.56E-08,  avg # of iterations =  2.0

     negative rho (up, down):  2.253E-03 0.000E+00

     total cpu time spent up to now is     1648.2 secs

     total energy              =  -20153.51200284 Ry
     estimated scf accuracy    <       0.00077570 Ry

     iteration # 22     ecut=    50.00 Ry     beta= 0.70
     Davidson diagonalization with overlap
     ethr =  2.56E-08,  avg # of iterations =  2.0

     negative rho (up, down):  2.254E-03 0.000E+00

     total cpu time spent up to now is     1702.8 secs

     total energy              =  -20153.51203141 Ry
     estimated scf accuracy    <       0.00020589 Ry

     iteration # 23     ecut=    50.00 Ry     beta= 0.70
     Davidson diagonalization with overlap
     ethr =  2.56E-08,  avg # of iterations =  1.8

     negative rho (up, down):  2.253E-03 0.000E+00

     total cpu time spent up to now is     1754.6 secs

     total energy              =  -20153.51203363 Ry
     estimated scf accuracy    <       0.00034800 Ry

     iteration # 24     ecut=    50.00 Ry     beta= 0.70
     Davidson diagonalization with overlap
     ethr =  2.56E-08,  avg # of iterations =  1.9

     negative rho (up, down):  2.253E-03 0.000E+00

     total cpu time spent up to now is     1807.0 secs

     total energy              =  -20153.51202244 Ry
     estimated scf accuracy    <       0.00065554 Ry

     iteration # 25     ecut=    50.00 Ry     beta= 0.70
     Davidson diagonalization with overlap
     ethr =  2.56E-08,  avg # of iterations =  1.1

     negative rho (up, down):  2.253E-03 0.000E+00

     total cpu time spent up to now is     1854.9 secs

     total energy              =  -20153.51204293 Ry
     estimated scf accuracy    <       0.00006093 Ry

     iteration # 26     ecut=    50.00 Ry     beta= 0.70
     Davidson diagonalization with overlap
     ethr =  2.13E-08,  avg # of iterations =  1.0

     negative rho (up, down):  2.253E-03 0.000E+00

     total cpu time spent up to now is     1901.8 secs

     total energy              =  -20153.51204192 Ry
     estimated scf accuracy    <       0.00025860 Ry

     iteration # 27     ecut=    50.00 Ry     beta= 0.70
     Davidson diagonalization with overlap
     ethr =  2.13E-08,  avg # of iterations =  1.0

     negative rho (up, down):  2.253E-03 0.000E+00

     total cpu time spent up to now is     1949.0 secs

     total energy              =  -20153.51204530 Ry
     estimated scf accuracy    <       0.00000610 Ry

     iteration # 28     ecut=    50.00 Ry     beta= 0.70
     Davidson diagonalization with overlap
     ethr =  2.13E-09,  avg # of iterations =  1.0

     negative rho (up, down):  2.253E-03 0.000E+00

     total cpu time spent up to now is     1996.2 secs

     total energy              =  -20153.51204556 Ry
     estimated scf accuracy    <       0.00000109 Ry

     iteration # 29     ecut=    50.00 Ry     beta= 0.70
     Davidson diagonalization with overlap
     ethr =  3.81E-10,  avg # of iterations =  2.0

     negative rho (up, down):  2.254E-03 0.000E+00

     total cpu time spent up to now is     2049.6 secs

     End of self-consistent calculation

          k = 0.0000 0.0000 0.0000 ( 23605 PWs)   bands (ev):

     1.5100   1.6549   1.8880   2.1942   2.5537   2.9456   3.3227   3.6272
     3.8147   3.8984   3.9260   3.9607   4.0713   4.0764   4.0772   4.2108
     4.2369   4.2919   4.4119   4.4349   4.5054   4.5402   4.5726   4.6067
     4.6651   4.7036   4.7141   4.8830   4.9832   5.0042   5.1606   5.4420
     5.7284   5.9205   5.9986   6.0534   6.1548   6.1589   6.1913   6.2405
     6.2529   6.2809   6.3144   6.3221   6.3238   6.3287   6.3512   6.3569
     6.3588   6.3671   6.3972   6.3980   6.4086   6.4110   6.4201   6.4254
     6.4370   6.4698   6.4790   6.4867   6.4951   6.5241   6.5372   6.5431
     6.5607   6.5643   6.5842   6.5900   6.6048   6.6109   6.6463   6.7366
     6.7449   6.7464   6.8224   6.8726   6.8729   6.8733   6.8736   7.0215
     7.0713   7.1404   7.1709   7.2767   7.4800   7.5107   7.5659   7.5801
     7.6429   7.6848   7.6911   7.6957   7.7092   7.7201   7.7441   7.7713
     7.7984   7.8092   7.8580   7.8688   7.8929   7.9555   8.0044   8.0111
     8.0434   8.1198   8.1709   8.1854   8.3160   8.3686   8.3838   8.3916
     8.4846   8.5195   8.5274   8.5651   8.5728   8.6205   8.7000   8.7031
     8.7084   8.7371   8.7634   8.7650   8.7783   8.8006   8.8074   8.8240
     8.8251   8.8410   8.8468   8.8668   8.8875   8.9089   8.9456   8.9709
     9.0221   9.0311   9.0871   9.2222   9.2227   9.4065  10.2064  10.5087
    10.5643  10.6303  10.9348  11.2458  11.4727  11.6283  11.7316  11.8013
    11.8548  11.8908  11.9206  12.1243  12.1250  13.5584  13.7376  13.9426
    14.0027  14.2920  14.5546  14.8686  14.8904  15.0612  15.3555  15.9026
    16.2002  16.3786  16.4735  16.5727

          k = 0.0000 0.1443 0.0000 ( 23551 PWs)   bands (ev):

     1.6626   1.8063   2.0375   2.3417   2.6994   3.0906   3.4679   3.7714
     3.9536   4.0298   4.0523   4.0844   4.1941   4.2121   4.2128   4.3060
     4.3583   4.3939   4.5236   4.5602   4.5914   4.6485   4.6688   4.7428
     4.7780   4.8036   4.8534   4.9432   5.1033   5.1290   5.2172   5.4742
     5.7295   5.8709   5.9586   5.9626   6.0536   6.0981   6.1320   6.1513
     6.1534   6.2105   6.2440   6.2518   6.2775   6.2887   6.3412   6.3577
     6.3685   6.3933   6.4060   6.4196   6.4295   6.4340   6.4520   6.4726
     6.4769   6.4795   6.4947   6.5112   6.5514   6.5517   6.5538   6.5760
     6.5872   6.6015   6.6246   6.6359   6.6418   6.6531   6.6768   6.6888
     6.6927   6.7079   6.8047   6.8061   6.8420   6.8586   6.9505   6.9580
     6.9723   6.9725   7.1548   7.2388   7.3430   7.3482   7.4381   7.4474
     7.5107   7.5783   7.5836   7.6001   7.6321   7.6886   7.7331   7.7391
     7.7664   7.7738   7.7779   7.8079   7.8439   7.9192   7.9216   7.9465
     8.0519   8.0710   8.0823   8.1046   8.1353   8.2071   8.2629   8.2768
     8.3702   8.3923   8.4390   8.4772   8.4801   8.5098   8.5257   8.5840
     8.6151   8.6342   8.6394   8.6811   8.7070   8.7162   8.7388   8.7420
     8.7558   8.7734   8.7807   8.8052   8.8489   8.8736   8.8908   8.9376
     8.9377   9.0235   9.0583   9.0879   9.3964  10.0471  10.8524  10.9176
    11.0716  11.1095  11.3155  11.5237  11.6815  11.8028  11.9045  12.0029
    12.1134  12.2392  12.3780  12.5084  12.5363  13.5626  13.7776  13.9736
    14.0788  14.3854  14.6598  14.9306  15.0254  15.1706  15.5166  16.0644
    16.1070  16.4671  16.5411  16.6224

          k = 0.0000 0.2887 0.0000 ( 23495 PWs)   bands (ev):

     2.1050   2.2440   2.4669   2.7617   3.1100   3.4945   3.8696   4.1694
     4.3348   4.3896   4.3993   4.4214   4.5192   4.5239   4.5855   4.5863
     4.6153   4.6713   4.7646   4.8711   4.8819   4.9298   4.9516   5.0316
     5.0903   5.1355   5.1552   5.2449   5.3275   5.4114   5.4817   5.6079
     5.7201   5.7564   5.7620   5.8140   5.8525   5.9041   5.9211   5.9587
     6.0003   6.0164   6.0468   6.0470   6.0685   6.0934   6.1451   6.1622
     6.1763   6.2156   6.2668   6.2868   6.3790   6.4076   6.4466   6.4850
     6.5347   6.5369   6.5684   6.6069   6.6179   6.6289   6.6541   6.6636
     6.6773   6.6880   6.6932   6.6993   6.7195   6.7396   6.7649   6.7836
     6.8158   6.8168   6.8343   6.8629   6.8693   6.9123   6.9286   6.9621
     6.9756   6.9822   7.0493   7.0978   7.1227   7.1998   7.2127   7.2275
     7.2994   7.3170   7.3448   7.3782   7.3882   7.4179   7.4610   7.4722
     7.5252   7.5575   7.6125   7.6786   7.7135   7.7762   7.7838   7.8014
     7.8628   7.9086   7.9350   7.9534   7.9574   7.9666   8.0456   8.0659
     8.1366   8.1801   8.2208   8.2513   8.3108   8.3290   8.3496   8.4491
     8.5078   8.5176   8.5258   8.5577   8.5799   8.6103   8.6191   8.6653
     8.6920   8.7151   8.7207   8.7310   8.7890   8.7973   8.8746   8.9334
     8.9480   8.9879   9.1343   9.5753  10.1717  10.8929  11.7446  11.9643
    11.9789  11.9981  12.0465  12.1239  12.1559  12.2276  12.3602  12.5246
    12.7215  12.9408  13.1623  13.3832  13.6144  13.6492  14.0143  14.1181
    14.3959  14.7091  14.9777  15.1493  15.4296  15.5013  15.6763  16.0474
    16.1766  16.6789  16.7479  16.7617

          k = 0.0000 0.4330 0.0000 ( 23423 PWs)   bands (ev):

     2.7884   2.9144   3.1138   3.3794   3.6936   4.0463   4.4027   4.6985
     4.7712   4.8446   4.8598   4.8654   4.8743   4.8776   4.9287   4.9919
     5.0100   5.0778   5.0790   5.1134   5.1869   5.2516   5.3332   5.3699
     5.3753   5.4086   5.4457   5.5110   5.5403   5.5629   5.5693   5.6070
     5.6649   5.6923   5.6988   5.7598   5.7751   5.7912   5.7915   5.8005
     5.8121   5.8267   5.8311   5.8385   5.8823   5.9129   5.9216   5.9384
     5.9734   6.0644   6.0702   6.0894   6.0928   6.2014   6.2873   6.3115
     6.3164   6.3457   6.4466   6.4841   6.5334   6.5569   6.5603   6.6303
     6.6416   6.6574   6.6909   6.7117   6.7174   6.7475   6.7548   6.7607
     6.7648   6.7665   6.8237   6.8898   6.8942   6.9726   7.0052   7.0768
     7.1103   7.1304   7.1647   7.1905   7.1906   7.2698   7.2799   7.3275
     7.3537   7.3857   7.3912   7.4035   7.4055   7.4173   7.4332   7.4536
     7.5025   7.5070   7.5278   7.5521   7.5719   7.6245   7.6310   7.7000
     7.7549   7.8223   7.8284   7.8443   7.8974   7.9114   7.9911   8.0042
     8.0063   8.0572   8.0894   8.1550   8.1664   8.2937   8.3810   8.3930
     8.4166   8.4482   8.5142   8.5212   8.5380   8.5622   8.6152   8.6367
     8.6624   8.6628   8.6813   8.7250   8.7647   8.7936   8.8146   8.8437
     8.8615   9.2220   9.6860  10.2359  10.9125  11.6846  12.5142  12.5242
    12.5771  12.6483  12.6588  12.8568  12.8938  13.1303  13.2172  13.4261
    13.5225  13.5473  13.8764  13.9989  14.2947  14.3502  14.5066  14.5429
    14.8599  15.2759  15.3370  15.5423  15.6036  15.6517  16.0119  16.0621
    16.0997  16.5125  16.6823  17.0633

          k = 0.0000 0.5774 0.0000 ( 23470 PWs)   bands (ev):

     3.6195   3.7136   3.8550   4.0451   4.2652   4.5150   4.7797   4.9775
     5.0379   5.0418   5.0651   5.1146   5.1170   5.1189   5.2137   5.2403
     5.2413   5.2625   5.2909   5.3254   5.3679   5.3707   5.3746   5.4037
     5.4251   5.4430   5.4569   5.5261   5.5313   5.5394   5.5550   5.5566
     5.5692   5.5985   5.6466   5.6610   5.6762   5.6818   5.7152   5.7257
     5.7486   5.7757   5.7799   5.8001   5.8028   5.8189   5.8368   5.9710
     5.9719   5.9980   6.0538   6.0757   6.1500   6.2118   6.2569   6.3009
     6.3336   6.3385   6.3604   6.4009   6.4060   6.4089   6.4293   6.4618
     6.4757   6.4887   6.5180   6.5398   6.5456   6.5775   6.5917   6.5931
     6.5947   6.6060   6.9680   6.9852   6.9989   7.0522   7.0527   7.0569
     7.0574   7.0596   7.1663   7.1964   7.2613   7.3473   7.4451   7.4541
     7.5059   7.5261   7.5288   7.5443   7.5478   7.5508   7.5709   7.5795
     7.5845   7.6021   7.6473   7.6581   7.6914   7.7899   7.8044   7.8269
     7.8277   7.9471   8.0279   8.0596   8.1894   8.2031   8.2511   8.3760
     8.3915   8.4115   8.4344   8.4386   8.4533   8.4575   8.4758   8.4965
     8.5300   8.5385   8.5633   8.5673   8.5839   8.6021   8.6309   8.6478
     8.6524   8.6751   8.6873   8.6933   8.7116   8.7177   8.7433   8.8492
     9.2808   9.7778  10.3433  10.9727  11.6922  12.4668  13.0538  13.1291
    13.1758  13.2792  13.2864  13.2918  13.2950  13.4740  13.5285  13.5841
    13.7465  13.7869  13.8624  13.9777  14.7905  14.9202  14.9258  15.0303
    15.3265  15.3361  15.3848  15.5456  15.8731  15.8813  16.1567  16.3379
    16.4432  16.5078  16.8539  16.9057

          k = 0.0000 0.7217 0.0000 ( 23446 PWs)   bands (ev):

     4.4249   4.4644   4.4907   4.5469   4.6207   4.7236   4.8442   4.8518
     4.9048   4.9658   4.9670   4.9964   5.0659   5.0941   5.1491   5.1921
     5.1970   5.2158   5.2489   5.2573   5.2837   5.2863   5.3641   5.3666
     5.4240   5.4457   5.4986   5.5341   5.5656   5.5818   5.6124   5.6154
     5.6169   5.6351   5.6476   5.6688   5.7164   5.7219   5.7379   5.7563
     5.7717   5.7829   5.7918   5.8068   5.8122   5.8241   5.8764   5.9272
     6.0296   6.0558   6.1187   6.1478   6.1688   6.2000   6.2220   6.2389
     6.2599   6.3094   6.3125   6.3333   6.3506   6.3638   6.3741   6.4018
     6.4243   6.4270   6.4946   6.4953   6.5864   6.6218   6.6961   6.7142
     6.7150   6.7477   6.9755   6.9768   7.0171   7.0177   7.1058   7.1430
     7.1769   7.1775   7.1816   7.2270   7.3282   7.3576   7.3756   7.4083
     7.4108   7.4407   7.4805   7.5095   7.5351   7.6087   7.6242   7.6375
     7.6589   7.6735   7.7099   7.7235   7.7964   7.8243   7.8583   7.8649
     7.9227   8.0585   8.1070   8.1263   8.2482   8.3050   8.3899   8.5291
     8.5743   8.6328   8.6679   8.6804   8.6831   8.6907   8.7172   8.7318
     8.7348   8.7592   8.7671   8.7752   8.7995   8.8107   8.8886   8.8977
     8.9305   8.9364   9.3362   9.3491   9.3609   9.4313   9.5593   9.8078
    10.2181  10.7419  11.3418  11.7029  11.8072  11.9947  12.0067  12.2711
    12.6131  12.7049  13.0220  13.4325  13.4586  13.7987  13.9516  14.0118
    14.1388  14.1525  14.3146  14.4467  14.6593  14.7336  15.0276  15.1138
    15.5455  15.6103  16.0346  16.1330  16.1747  16.3090  16.4582  16.6101
    16.7142  16.8070  17.0831  17.1193

          k = 0.0000-0.8660 0.0000 ( 23420 PWs)   bands (ev):

     4.7164   4.7164   4.7725   4.7725   4.8266   4.8266   4.8305   4.8306
     4.9173   4.9173   4.9439   4.9440   5.0314   5.0315   5.0373   5.0373
     5.1152   5.1152   5.1856   5.1856   5.2536   5.2537   5.2546   5.2546
     5.4611   5.4611   5.4761   5.4761   5.5327   5.5327   5.5610   5.5610
     5.6320   5.6320   5.6738   5.6738   5.7710   5.7711   5.7764   5.7764
     5.8725   5.8725   5.9048   5.9048   5.9207   5.9207   5.9869   5.9869
     6.0095   6.0095   6.0568   6.0569   6.1137   6.1138   6.1517   6.1517
     6.2005   6.2005   6.2573   6.2573   6.3768   6.3768   6.4171   6.4171
     6.5430   6.5430   6.5761   6.5761   6.6458   6.6458   6.7113   6.7113
     6.9876   6.9877   6.9897   6.9897   7.0320   7.0321   7.0342   7.0343
     7.2217   7.2218   7.2568   7.2568   7.3041   7.3042   7.3425   7.3425
     7.3870   7.3870   7.4781   7.4781   7.5973   7.5973   7.6371   7.6371
     7.6996   7.6996   7.7344   7.7344   7.8019   7.8019   7.8633   7.8634
     7.9345   7.9346   8.0272   8.0272   8.2042   8.2043   8.4344   8.4344
     8.6449   8.6449   8.7954   8.7955   8.8244   8.8244   8.8395   8.8396
     8.8704   8.8704   8.8876   8.8876   8.9408   8.9408   9.0308   9.0308
     9.0705   9.0705  10.4176  10.4176  10.4563  10.4564  10.5565  10.5565
    10.7109  10.7109  10.9501  10.9501  11.2888  11.2888  11.7248  11.7249
    12.2397  12.2398  12.8117  12.8118  13.4128  13.4129  14.0247  14.0247
    14.5857  14.5858  15.0255  15.0255  15.7248  15.7249  15.7352  15.7352
    15.8995  15.8995  15.9463  15.9463  16.1727  16.1727  16.2515  16.2515
    16.5040  16.5041  16.6002  16.6002

          k = 0.1250 0.0000 0.0000 ( 23563 PWs)   bands (ev):

     1.6248   1.7688   2.0005   2.3052   2.6634   3.0549   3.4322   3.7360
     3.9197   3.9574   3.9976   4.0217   4.0678   4.1786   4.1793   4.2327
     4.2542   4.3295   4.4258   4.4452   4.5473   4.5580   4.6066   4.6202
     4.6604   4.7551   4.7760   4.9259   5.0115   5.0394   5.1950   5.4680
     5.7397   5.9141   6.0064   6.0360   6.0734   6.1532   6.1771   6.1778
     6.2211   6.2378   6.2658   6.2752   6.3045   6.3416   6.3474   6.3493
     6.3651   6.3781   6.4018   6.4205   6.4238   6.4265   6.4422   6.4562
     6.4597   6.4760   6.4782   6.4939   6.5384   6.5514   6.5521   6.5649
     6.5951   6.6027   6.6200   6.6260   6.6316   6.6631   6.6672   6.6810
     6.7264   6.7737   6.8245   6.8321   6.8523   6.9355   6.9358   6.9366
     7.0025   7.0424   7.1107   7.2830   7.3752   7.4172   7.4385   7.5013
     7.5646   7.5647   7.5930   7.6036   7.6453   7.7081   7.7322   7.7647
     7.8013   7.8208   7.8343   7.8573   7.8726   7.9100   7.9414   7.9518
     8.0257   8.1013   8.1154   8.1893   8.2066   8.2390   8.3242   8.3560
     8.3704   8.4086   8.4828   8.5300   8.5360   8.5856   8.6018   8.6618
     8.6626   8.6883   8.6974   8.7012   8.7236   8.7333   8.7556   8.7699
     8.7837   8.7898   8.8118   8.8343   8.8555   8.8574   8.8715   8.9186
     8.9559   9.0087   9.1247   9.1257   9.2864   9.3442   9.6670   9.9387
     9.9473  10.1362  10.2168  10.3365  10.6929  10.8259  11.0008  11.2731
    11.9567  12.6646  13.2789  13.4561  13.5350  13.6696  13.9256  13.9651
    14.2243  14.5248  14.8390  14.9146  15.1432  15.2163  15.5804  15.8957
    16.3700  16.4445  16.5361  16.9269

          k = 0.1250 0.1443 0.0000 ( 23537 PWs)   bands (ev):

     1.7763   1.9180   2.1481   2.4498   2.8060   3.1962   3.5737   3.8764
     4.0556   4.0841   4.1242   4.1484   4.1927   4.3099   4.3106   4.3497
     4.3572   4.4330   4.5481   4.5621   4.6360   4.6826   4.6965   4.7487
     4.7960   4.8250   4.9127   4.9840   5.1311   5.1660   5.2452   5.4918
     5.7258   5.8763   5.8870   5.9890   6.0020   6.0418   6.1016   6.1100
     6.1370   6.1939   6.1972   6.2291   6.2448   6.2749   6.2789   6.3013
     6.3267   6.3608   6.4044   6.4384   6.4444   6.4690   6.4778   6.4854
     6.4945   6.5119   6.5166   6.5217   6.5494   6.5734   6.5862   6.6087
     6.6200   6.6221   6.6472   6.6624   6.6855   6.6873   6.7015   6.7151
     6.7471   6.7484   6.7610   6.7789   6.8233   6.8805   6.8905   6.9255
     7.0168   7.0180   7.1375   7.1785   7.1914   7.2351   7.3712   7.4189
     7.4635   7.5198   7.5389   7.5499   7.5553   7.5737   7.6049   7.6734
     7.7143   7.7359   7.7654   7.8180   7.8446   7.8549   7.8634   7.8876
     7.9346   7.9869   8.0385   8.0535   8.1366   8.1476   8.2201   8.2306
     8.2700   8.3292   8.3625   8.3636   8.3919   8.4744   8.4936   8.5300
     8.5413   8.5461   8.5782   8.5879   8.6174   8.6341   8.6663   8.7008
     8.7138   8.7509   8.7556   8.7690   8.7878   8.7947   8.8386   8.8989
     8.9971   9.0376   9.1034   9.1471   9.6543   9.9783  10.1422  10.3086
    10.3511  10.4442  10.5713  10.7937  11.1649  11.1735  11.4149  11.7032
    12.3324  13.0003  13.4721  13.5586  13.6567  13.7414  13.9982  14.0183
    14.3326  14.6325  14.9438  14.9809  15.2519  15.3411  15.7046  15.9393
    16.4160  16.5307  16.6395  16.9740

          k = 0.1250 0.2887 0.0000 ( 23467 PWs)   bands (ev):

     2.2123   2.3472   2.5686   2.8579   3.2023   3.5821   3.9538   4.2488
     4.4080   4.4276   4.4545   4.4969   4.5230   4.5631   4.6496   4.6621
     4.6630   4.6714   4.7886   4.8669   4.9250   4.9524   4.9784   5.0798
     5.0929   5.1211   5.2059   5.2534   5.3450   5.4233   5.4856   5.5961
     5.6180   5.7017   5.7735   5.8256   5.8547   5.8695   5.8923   5.9682
     5.9829   6.0192   6.0424   6.0507   6.0693   6.0814   6.0856   6.1050
     6.1451   6.2049   6.2323   6.2894   6.3360   6.3865   6.4766   6.5031
     6.5308   6.5491   6.5840   6.6019   6.6085   6.6216   6.6457   6.6672
     6.6773   6.6976   6.7327   6.7514   6.7625   6.7693   6.7944   6.7966
     6.8391   6.8448   6.8615   6.8783   6.8840   6.9085   6.9151   6.9743
     6.9880   7.0255   7.0255   7.0396   7.0522   7.1024   7.1834   7.1860
     7.2136   7.2276   7.2542   7.2909   7.3564   7.3609   7.4081   7.4864
     7.4993   7.5217   7.5771   7.6222   7.6762   7.6850   7.7570   7.7824
     7.7856   7.7931   7.8516   7.8725   7.9385   7.9629   7.9842   8.0652
     8.1019   8.1223   8.1485   8.2113   8.2323   8.2347   8.2673   8.2756
     8.3313   8.3783   8.4278   8.4978   8.5463   8.6535   8.6591   8.6935
     8.7601   8.7613   8.7837   8.7869   8.8210   8.8321   8.8913   8.9726
     9.0196   9.1000   9.1914   9.7023  10.3098  10.7441  10.8190  10.9331
    11.0631  11.0997  11.3336  11.6644  11.8981  12.0923  12.3772  12.6099
    13.2027  13.5960  13.7189  13.8318  13.9525  14.1589  14.1950  14.4437
    14.6921  14.9741  15.2101  15.2799  15.5843  15.6240  15.9399  16.1154
    16.4187  16.8003  16.9273  16.9618

          k = 0.1250 0.4330 0.0000 ( 23435 PWs)   bands (ev):

     2.8773   2.9938   3.1913   3.4436   3.7466   4.0801   4.4123   4.6684
     4.7878   4.7933   4.8510   4.8601   4.8682   4.8931   4.9720   4.9853
     5.0080   5.0921   5.0957   5.1052   5.1420   5.2133   5.2567   5.3432
     5.3512   5.3785   5.3870   5.4337   5.4793   5.5235   5.6036   5.6141
     5.6521   5.7095   5.7273   5.7514   5.7528   5.7719   5.7929   5.8104
     5.8345   5.8430   5.8643   5.8828   5.9287   5.9377   5.9562   5.9865
     6.0213   6.0391   6.0732   6.0969   6.2169   6.2640   6.2834   6.3529
     6.3962   6.4312   6.4737   6.4984   6.5265   6.5292   6.5667   6.5939
     6.6244   6.6391   6.6594   6.6632   6.6840   6.7069   6.7243   6.7448
     6.7663   6.7789   6.8772   6.8906   6.9605   6.9690   6.9972   7.0478
     7.1370   7.1650   7.1764   7.2024   7.2036   7.2361   7.2494   7.2911
     7.3107   7.3297   7.3461   7.3470   7.3940   7.4166   7.4447   7.4832
     7.4958   7.5383   7.5410   7.5541   7.6026   7.6212   7.6352   7.6429
     7.6633   7.7248   7.8069   7.8085   7.8543   7.9239   7.9326   7.9385
     7.9705   8.0522   8.0968   8.1013   8.1652   8.1908   8.2036   8.2920
     8.3687   8.4450   8.4913   8.5079   8.6241   8.6384   8.6823   8.7302
     8.7331   8.7504   8.7625   8.7758   8.8004   8.8336   8.8818   8.9425
     9.0238   9.2302   9.7311  10.3224  10.9975  11.3686  11.4629  11.6310
    11.7884  11.8730  12.1864  12.5831  12.6552  13.0393  13.5179  13.5822
    13.7810  13.9421  14.2033  14.2949  14.5327  14.6088  14.6656  14.8225
    15.1643  15.3300  15.4936  15.6630  15.6723  15.8663  16.1191  16.1531
    16.3460  16.6669  16.8180  17.2554

          k = 0.1250 0.5774 0.0000 ( 23447 PWs)   bands (ev):

     3.6531   3.7309   3.8820   4.0503   4.2530   4.4651   4.6822   4.8633
     4.8654   4.9244   4.9565   4.9707   4.9879   5.0440   5.0727   5.0814
     5.1171   5.1213   5.2128   5.2148   5.2274   5.2393   5.3135   5.3314
     5.3944   5.4376   5.4426   5.4539   5.4566   5.4917   5.5426   5.5433
     5.5973   5.6084   5.6736   5.6914   5.7048   5.7410   5.7590   5.7677
     5.7754   5.7881   5.8020   5.8576   5.8968   5.9385   5.9444   5.9618
     6.0080   6.0754   6.0978   6.1273   6.1538   6.1554   6.2682   6.2752
     6.3118   6.4047   6.4393   6.4638   6.5055   6.5261   6.5341   6.5668
     6.5872   6.5992   6.6118   6.6156   6.6464   6.6800   6.7048   6.7371
     6.7577   6.7719   6.8681   6.8891   6.9549   6.9722   6.9798   7.0892
     7.1985   7.2533   7.2570   7.2775   7.3042   7.3558   7.3902   7.4234
     7.4398   7.4697   7.5062   7.5216   7.5437   7.5552   7.6060   7.6316
     7.6369   7.6529   7.7202   7.7209   7.7727   7.7771   7.9054   7.9146
     7.9263   7.9681   8.0792   8.0943   8.1660   8.2126   8.2422   8.2492
     8.3402   8.3526   8.4023   8.4339   8.4593   8.4605   8.4796   8.5131
     8.5265   8.5598   8.5660   8.6024   8.6275   8.6379   8.6470   8.6685
     8.6975   8.7298   8.7484   8.7647   8.7704   8.8223   8.8272   8.9028
     9.2609   9.7818  10.3731  11.0329  11.7482  12.0691  12.1957  12.4082
    12.5350  12.6994  13.0468  13.2826  13.3345  13.4231  13.4565  13.6702
    13.9164  14.0389  14.1806  14.2872  14.4023  14.5933  14.8692  15.0820
    15.1988  15.4431  15.4467  15.6812  15.8282  15.9333  16.2426  16.3030
    16.3913  16.7465  16.9066  16.9598

          k = 0.1250 0.7217 0.0000 ( 23455 PWs)   bands (ev):

     4.2608   4.3211   4.4689   4.5533   4.6044   4.6666   4.7311   4.7423
     4.7452   4.8060   4.8248   4.8642   4.9229   4.9606   4.9757   5.0277
     5.0704   5.0988   5.1022   5.1255   5.2017   5.2113   5.2492   5.2671
     5.2671   5.3011   5.3147   5.3490   5.4244   5.4258   5.4575   5.4669
     5.5120   5.5872   5.6036   5.6301   5.6678   5.7250   5.7306   5.7694
     5.7962   5.8286   5.8394   5.8678   5.9010   5.9201   5.9575   6.0154
     6.0385   6.0779   6.0953   6.1649   6.2457   6.2597   6.2648   6.2980
     6.3399   6.3504   6.3748   6.4378   6.4872   6.4937   6.5277   6.6154
     6.6433   6.6636   6.7539   6.7790   6.7821   6.7942   6.8313   6.8420
     6.9130   6.9201   6.9572   7.0253   7.0258   7.0410   7.0892   7.1037
     7.1928   7.1933   7.2609   7.2684   7.3714   7.4136   7.4877   7.4995
     7.5370   7.5424   7.5913   7.6402   7.6548   7.6591   7.7133   7.7384
     7.7518   7.7997   7.8578   7.8805   7.9247   7.9346   8.0459   8.0535
     8.0624   8.1759   8.2342   8.2455   8.3383   8.3426   8.4477   8.5584
     8.5723   8.5732   8.5942   8.6567   8.6653   8.6660   8.7036   8.7440
     8.7514   8.7786   8.7790   8.8074   8.8128   8.8555   8.8958   8.8996
     8.9306   8.9431   9.2649   9.3250   9.3588   9.4079   9.5266   9.7667
    10.1843  10.7288  11.3516  11.7850  11.8782  12.0336  12.0668  12.3123
    12.6395  12.7443  13.0275  13.0743  13.2157  13.4358  13.4831  13.5105
    13.7340  14.0113  14.0746  14.1712  14.4673  14.5797  14.8304  15.1480
    15.2421  15.5482  15.7269  15.9094  16.0026  16.2702  16.3261  16.4942
    16.5462  16.6512  16.8236  16.9809

          k = 0.1250-0.8660 0.0000 ( 23492 PWs)   bands (ev):

     4.5082   4.5478   4.6069   4.6133   4.6278   4.6727   4.7293   4.7364
     4.7479   4.7635   4.8509   4.8774   4.9250   4.9285   5.0108   5.0110
     5.0634   5.0753   5.1165   5.1233   5.1347   5.1363   5.1584   5.1626
     5.2329   5.2407   5.2942   5.2979   5.3431   5.3432   5.3794   5.3840
     5.4793   5.4797   5.5775   5.5942   5.6445   5.6466   5.7384   5.7417
     5.8299   5.8421   5.9216   5.9301   5.9434   5.9678   6.0107   6.0269
     6.0546   6.0578   6.0846   6.0908   6.1671   6.1810   6.2510   6.2537
     6.4248   6.4258   6.4401   6.4549   6.6014   6.6072   6.6364   6.6434
     6.7127   6.7306   6.7585   6.7612   6.8481   6.8492   6.8860   6.8952
     6.9160   6.9245   6.9674   6.9886   7.0713   7.0774   7.1297   7.1725
     7.2313   7.2604   7.3239   7.3486   7.4370   7.4508   7.4891   7.4923
     7.5369   7.5559   7.6182   7.6377   7.7213   7.7233   7.7902   7.8241
     7.8633   7.8672   7.9084   7.9321   7.9920   7.9989   8.0139   8.0253
     8.0898   8.1079   8.1433   8.1588   8.2482   8.2500   8.4432   8.4462
     8.6407   8.6475   8.7377   8.7494   8.7922   8.7927   8.8102   8.8317
     8.8660   8.8726   8.9006   8.9298   8.9428   8.9520   9.0313   9.0315
     9.0666   9.0747  10.4134  10.4158  10.4609  10.4630  10.5605  10.5607
    10.7042  10.7092  10.9328  10.9362  11.2607  11.2685  11.6952  11.7034
    12.2211  12.2260  12.8145  12.8162  13.4171  13.4487  13.9905  14.0064
    14.4409  14.4529  14.6430  14.6454  14.7958  14.8321  15.0066  15.0354
    15.2503  15.2592  15.4591  15.4777  15.8046  15.8201  15.9005  15.9430
    16.2375  16.2391  16.5818  16.5990

          k = 0.1250-0.7217 0.0000 ( 23455 PWs)   bands (ev):

     4.2080   4.3222   4.4361   4.5913   4.6553   4.6599   4.6768   4.7582
     4.7700   4.8047   4.8294   4.8615   4.9290   4.9384   4.9668   5.0212
     5.0805   5.0869   5.1050   5.1238   5.2005   5.2254   5.2455   5.2553
     5.2679   5.3056   5.3229   5.3587   5.4187   5.4281   5.4584   5.4692
     5.5176   5.5758   5.6055   5.6127   5.6689   5.7293   5.7312   5.7610
     5.8045   5.8291   5.8380   5.8509   5.9016   5.9172   5.9488   6.0321
     6.0495   6.0739   6.0897   6.1734   6.2158   6.2740   6.2858   6.3267
     6.3378   6.3521   6.3986   6.4252   6.4558   6.5156   6.5234   6.6036
     6.6867   6.6914   6.7713   6.7892   6.7993   6.8055   6.8505   6.8541
     6.9040   6.9228   6.9769   7.0113   7.0292   7.0517   7.1043   7.1212
     7.1539   7.1892   7.2168   7.2825   7.3550   7.4101   7.4770   7.4984
     7.5173   7.5494   7.5740   7.6257   7.6340   7.6590   7.7029   7.7249
     7.7262   7.8158   7.8628   7.8813   7.9320   7.9836   8.0359   8.0459
     8.0736   8.1711   8.2316   8.2580   8.3448   8.3465   8.4506   8.5506
     8.5550   8.5938   8.5957   8.6539   8.6633   8.6670   8.7380   8.7382
     8.7425   8.7728   8.7788   8.8001   8.8133   8.8295   8.8947   8.8995
     8.9352   8.9390   9.2694   9.3282   9.3583   9.4107   9.5274   9.7713
    10.1876  10.7263  11.3479  11.7780  11.8773  12.0068  12.0599  12.3082
    12.6280  12.7307  13.0154  13.0715  13.2094  13.4228  13.4454  13.5138
    13.7309  13.9812  14.1386  14.1740  14.4336  14.5893  14.8187  15.1326
    15.2632  15.5694  15.7261  15.8774  16.0381  16.2778  16.3481  16.4883
    16.5596  16.6599  16.9221  16.9632

          k = 0.1250-0.5774 0.0000 ( 23447 PWs)   bands (ev):

     3.6209   3.7339   3.8679   4.0618   4.2594   4.4774   4.6913   4.7926
     4.8590   4.9225   4.9394   4.9471   5.0018   5.0411   5.0645   5.0716
     5.1114   5.1427   5.2141   5.2198   5.2432   5.2442   5.3250   5.3337
     5.3983   5.4144   5.4607   5.4614   5.4690   5.4914   5.5512   5.5523
     5.5962   5.6048   5.6763   5.6792   5.6949   5.7317   5.7579   5.7662
     5.7781   5.7971   5.8319   5.8485   5.9062   5.9299   5.9339   5.9582
     6.0034   6.0826   6.1144   6.1161   6.1306   6.1385   6.2680   6.2857
     6.3291   6.3973   6.4564   6.4889   6.4903   6.5456   6.5676   6.5733
     6.5948   6.6021   6.6254   6.6549   6.6697   6.7056   6.7175   6.7477
     6.7642   6.8234   6.8390   6.8917   6.9551   6.9654   6.9938   7.0815
     7.2074   7.2123   7.2575   7.2617   7.3039   7.3336   7.3562   7.4047
     7.4421   7.4570   7.5002   7.5229   7.5302   7.5509   7.5896   7.6210
     7.6260   7.6785   7.7197   7.7210   7.7841   7.8323   7.9055   7.9206
     7.9225   7.9577   8.0817   8.0888   8.1763   8.2024   8.2252   8.2462
     8.3450   8.3565   8.4038   8.4257   8.4435   8.4563   8.4795   8.5141
     8.5439   8.5690   8.5794   8.6014   8.6266   8.6339   8.6529   8.6944
     8.7164   8.7298   8.7391   8.7586   8.7628   8.8278   8.8310   8.8593
     9.2607   9.7739  10.3639  10.9976  11.7335  12.0670  12.1941  12.4102
    12.4932  12.6981  13.0543  13.2740  13.3372  13.4215  13.4786  13.6589
    13.8938  14.0188  14.1456  14.2685  14.3157  14.6850  14.8285  15.0516
    15.2091  15.4455  15.4615  15.7005  15.7984  15.9277  16.2951  16.3651
    16.3787  16.7864  16.9049  16.9837

          k = 0.1250-0.4330 0.0000 ( 23435 PWs)   bands (ev):

     2.8652   2.9947   3.1848   3.4463   3.7464   4.0824   4.4120   4.6640
     4.7603   4.7757   4.7893   4.8537   4.8704   4.8985   4.9344   4.9766
     4.9987   5.0963   5.1034   5.1073   5.1542   5.2257   5.2739   5.3606
     5.3759   5.3841   5.3997   5.4300   5.4880   5.5140   5.6132   5.6373
     5.6612   5.7024   5.7434   5.7471   5.7578   5.7684   5.7894   5.7995
     5.8423   5.8526   5.8686   5.8773   5.9450   5.9522   5.9637   5.9765
     6.0243   6.0531   6.0550   6.0880   6.1991   6.2594   6.2942   6.3670
     6.4217   6.4234   6.4686   6.5027   6.5188   6.5560   6.5821   6.5986
     6.6007   6.6406   6.6627   6.6651   6.6823   6.7171   6.7247   6.7473
     6.7611   6.8361   6.8784   6.9049   6.9651   6.9687   7.0065   7.0336
     7.1334   7.1401   7.1605   7.2040   7.2064   7.2348   7.2695   7.2932
     7.2977   7.3207   7.3430   7.3475   7.4116   7.4189   7.4474   7.4826
     7.4933   7.5362   7.5387   7.5541   7.6048   7.6229   7.6501   7.6507
     7.6664   7.7294   7.8065   7.8108   7.8530   7.9241   7.9294   7.9392
     7.9976   8.0316   8.0619   8.0863   8.1558   8.1907   8.2061   8.2825
     8.3496   8.4412   8.5067   8.5178   8.6271   8.6482   8.6879   8.7316
     8.7391   8.7537   8.7859   8.7918   8.8316   8.8334   8.8421   8.9468
     8.9722   9.2219   9.7209  10.2813  10.9816  11.3671  11.4603  11.6310
    11.7402  11.8702  12.1908  12.5889  12.6551  13.0540  13.5434  13.5516
    13.7583  13.9575  14.2006  14.2549  14.5458  14.6256  14.6359  14.7490
    15.1551  15.2437  15.5387  15.6607  15.6683  15.9092  16.1576  16.1651
    16.3674  16.6423  16.9235  17.2299

          k = 0.1250-0.2887 0.0000 ( 23467 PWs)   bands (ev):

     2.2075   2.3473   2.5658   2.8585   3.2016   3.5817   3.9517   4.2458
     4.3971   4.4181   4.4500   4.4778   4.5225   4.5565   4.6508   4.6620
     4.6629   4.6669   4.7885   4.8658   4.9199   4.9538   4.9830   5.0732
     5.0922   5.1187   5.2142   5.2502   5.3393   5.4150   5.4742   5.5978
     5.6843   5.6855   5.7830   5.8068   5.8413   5.9074   5.9426   5.9711
     5.9883   6.0246   6.0308   6.0512   6.0691   6.0757   6.0917   6.1279
     6.1464   6.1992   6.2330   6.2997   6.3339   6.4064   6.4659   6.4938
     6.5313   6.5355   6.5844   6.5981   6.6055   6.6317   6.6489   6.6644
     6.6691   6.7063   6.7275   6.7449   6.7570   6.7791   6.7880   6.7964
     6.8374   6.8505   6.8538   6.8739   6.8911   6.9135   6.9195   6.9740
     6.9950   7.0151   7.0238   7.0376   7.0520   7.1336   7.1725   7.1921
     7.2052   7.2270   7.2654   7.2945   7.3534   7.3844   7.4045   7.4858
     7.5023   7.5578   7.5872   7.5985   7.6834   7.6874   7.7536   7.7844
     7.7956   7.8219   7.8419   7.8504   7.9406   7.9480   7.9902   8.0538
     8.0972   8.1334   8.1387   8.1857   8.2145   8.2327   8.2625   8.2741
     8.3402   8.3652   8.4486   8.5100   8.5391   8.6628   8.6754   8.6964
     8.7587   8.7792   8.7881   8.7913   8.8362   8.8367   8.9118   8.9493
     9.0228   9.0437   9.1839   9.6567  10.2941  10.7500  10.8147  10.9314
    11.0096  11.0938  11.3326  11.6663  11.8960  12.1007  12.3562  12.6251
    13.2177  13.5851  13.7168  13.8437  13.9441  14.1734  14.1951  14.4446
    14.6831  14.9620  15.2068  15.2832  15.5902  15.6115  15.8705  16.1014
    16.4305  16.8128  16.9134  16.9655

          k = 0.1250-0.1443 0.0000 ( 23537 PWs)   bands (ev):

     1.7745   1.9181   2.1470   2.4498   2.8056   3.1957   3.5725   3.8749
     4.0518   4.0823   4.1237   4.1401   4.1924   4.3099   4.3106   4.3496
     4.3566   4.4331   4.5474   4.5633   4.6332   4.6802   4.6987   4.7482
     4.7968   4.8230   4.9042   4.9869   5.1301   5.1642   5.2436   5.4925
     5.7113   5.8494   5.9446   5.9763   6.0008   6.0516   6.1004   6.1366
     6.1791   6.1801   6.1959   6.2056   6.2390   6.2728   6.2809   6.3099
     6.3618   6.3771   6.3980   6.4200   6.4415   6.4635   6.4835   6.4888
     6.5015   6.5153   6.5193   6.5220   6.5434   6.5717   6.5919   6.5939
     6.6136   6.6306   6.6400   6.6594   6.6753   6.6932   6.7098   6.7187
     6.7418   6.7438   6.7695   6.7942   6.8201   6.8872   6.8946   6.9228
     7.0168   7.0182   7.1221   7.1686   7.1992   7.2413   7.3716   7.4127
     7.4698   7.5185   7.5415   7.5545   7.5554   7.5895   7.6242   7.6729
     7.7136   7.7307   7.7511   7.7939   7.8197   7.8542   7.8779   7.8802
     7.9138   7.9984   8.0307   8.0493   8.1410   8.1471   8.2264   8.2437
     8.2902   8.3239   8.3569   8.3840   8.4024   8.4616   8.4924   8.5315
     8.5350   8.5381   8.5763   8.5930   8.6351   8.6646   8.6945   8.6998
     8.7098   8.7471   8.7567   8.7667   8.8012   8.8262   8.8396   8.9119
     8.9679   9.0434   9.0527   9.0966   9.6403   9.9859  10.1414  10.2976
    10.3104  10.4377  10.5660  10.7928  11.1636  11.1788  11.4041  11.7126
    12.3428  13.0093  13.4740  13.5581  13.6640  13.7350  14.0060  14.0154
    14.3290  14.6311  14.9438  14.9805  15.2542  15.3416  15.6760  15.9219
    16.4199  16.5381  16.6404  16.9672

          k = 0.2500 0.0000 0.0000 ( 23536 PWs)   bands (ev):

     1.9600   2.1005   2.3267   2.6248   2.9768   3.3641   3.7400   3.9082
     4.0162   4.0406   4.1766   4.2113   4.2722   4.2908   4.3570   4.3638
     4.4123   4.4643   4.4651   4.4785   4.5119   4.6128   4.6869   4.7424
     4.7689   4.8748   4.9168   5.0339   5.1099   5.1365   5.3024   5.5449
     5.7848   5.8135   5.9145   5.9202   5.9268   6.0426   6.0607   6.0867
     6.1144   6.1533   6.1608   6.1849   6.2089   6.2294   6.2935   6.2964
     6.3438   6.3838   6.3990   6.4156   6.4523   6.4774   6.5029   6.5176
     6.5307   6.5591   6.5638   6.5844   6.5900   6.6075   6.6277   6.6383
     6.6504   6.6754   6.7027   6.7029   6.7168   6.7290   6.7332   6.7585
     6.7909   6.8094   6.8220   6.8415   6.8559   6.8629   6.8972   6.9175
     6.9828   7.0352   7.0964   7.1051   7.1099   7.2421   7.2671   7.2956
     7.3215   7.3883   7.4171   7.4635   7.4956   7.5293   7.5568   7.5794
     7.6519   7.6565   7.6903   7.7194   7.7469   7.8145   7.8287   7.8632
     7.9324   7.9839   7.9839   8.0291   8.0456   8.1245   8.2032   8.2176
     8.2296   8.3007   8.3095   8.3519   8.3653   8.3966   8.4051   8.4214
     8.4590   8.4740   8.5074   8.5353   8.5364   8.5585   8.5755   8.5817
     8.6114   8.6227   8.6378   8.6743   8.6765   8.7250   8.7854   8.7947
     8.8111   8.8378   8.8453   8.8852   8.9218   8.9262   8.9439   8.9481
     9.1098   9.3913   9.6989   9.9632  10.4010  10.6735  11.1451  11.5083
    11.8446  11.9059  12.6650  13.4036  14.0607  14.1291  15.0705  15.1141
    15.3292  15.3915  15.5140  15.6062  15.9162  16.3556  16.6468  16.7731
    16.8146  17.1124  17.4063  17.7939

          k = 0.2500 0.1443 0.0000 ( 23484 PWs)   bands (ev):

     2.1072   2.2441   2.4682   2.7617   3.1105   3.4951   3.8712   4.0434
     4.1486   4.1719   4.3066   4.3392   4.3907   4.4099   4.4598   4.4949
     4.5223   4.5854   4.5862   4.6033   4.6427   4.7297   4.7693   4.8264
     4.8729   4.9504   5.0353   5.0964   5.2322   5.2453   5.3455   5.5486
     5.7359   5.7498   5.8073   5.8736   5.9038   5.9203   6.0192   6.0455
     6.0527   6.0578   6.0926   6.1294   6.1424   6.1704   6.2169   6.2337
     6.2814   6.3453   6.3706   6.3732   6.4093   6.4429   6.4638   6.4766
     6.5184   6.5453   6.5712   6.5883   6.6052   6.6110   6.6152   6.6337
     6.6538   6.6736   6.6972   6.7004   6.7196   6.7517   6.7640   6.7702
     6.7910   6.8237   6.8303   6.8381   6.8735   6.9078   6.9341   6.9545
     6.9716   6.9864   7.0247   7.0965   7.1076   7.1991   7.2103   7.2154
     7.2654   7.3042   7.3217   7.3400   7.4001   7.4319   7.4519   7.4722
     7.5158   7.5582   7.6196   7.6593   7.7170   7.7664   7.7886   7.8181
     7.8392   7.8504   7.9021   7.9303   7.9407   7.9859   8.0182   8.0325
     8.1396   8.1641   8.1986   8.2040   8.2176   8.2258   8.2816   8.2912
     8.3084   8.4328   8.4542   8.4776   8.5232   8.5293   8.5668   8.5885
     8.6085   8.6736   8.7166   8.7259   8.7421   8.7720   8.7973   8.8476
     8.9104   8.9797   9.1148   9.1374   9.2348   9.3284   9.3742   9.4559
     9.6009   9.6715  10.1100  10.1790  10.7095  10.9208  11.3935  11.7455
    12.1177  12.1656  12.8574  13.5758  14.1110  14.2910  15.1501  15.2940
    15.3757  15.4989  15.5747  15.7133  16.0035  16.4398  16.7405  16.8716
    16.9045  17.1972  17.4663  17.8221

          k = 0.2500 0.2887 0.0000 ( 23496 PWs)   bands (ev):

     2.5230   2.6494   2.8623   3.1367   3.4664   3.8304   4.1904   4.4077
     4.4734   4.4939   4.6125   4.6296   4.6555   4.6598   4.7243   4.7370
     4.7991   4.8398   4.8820   4.8842   4.9309   4.9890   5.0484   5.0983
     5.1090   5.2097   5.2523   5.3142   5.3860   5.4522   5.4713   5.5839
     5.6132   5.6244   5.7249   5.7423   5.7841   5.8328   5.8931   5.9136
     5.9220   5.9327   5.9602   6.0149   6.0178   6.0620   6.0954   6.1084
     6.1268   6.1278   6.1747   6.2188   6.2445   6.3383   6.3669   6.3712
     6.4305   6.4701   6.5042   6.5193   6.5662   6.5716   6.5770   6.6319
     6.6442   6.6612   6.6789   6.6937   6.7005   6.7480   6.7752   6.8073
     6.8333   6.8359   6.8544   6.8787   6.9064   6.9327   6.9519   6.9587
     6.9897   7.0061   7.0212   7.0448   7.1114   7.1369   7.1451   7.1570
     7.1799   7.2192   7.2446   7.2729   7.2876   7.3471   7.3604   7.3629
     7.4341   7.4406   7.4807   7.5455   7.5456   7.5798   7.6278   7.6801
     7.7209   7.7483   7.7489   7.8026   7.8390   7.8391   7.8915   7.9124
     7.9415   7.9744   8.0095   8.0698   8.0949   8.1596   8.1745   8.2220
     8.2497   8.3841   8.3865   8.4718   8.6170   8.6189   8.6490   8.7024
     8.7691   8.7744   8.7897   8.7971   8.8404   8.8687   8.9425   8.9948
     9.0085   9.0729   9.4601   9.8036   9.8537   9.9127  10.0122  10.0186
    10.1829  10.4688  10.6563  10.8848  11.4115  11.4393  12.0195  12.2894
    12.6739  12.9658  13.3661  14.0271  14.3309  14.6881  15.4084  15.5182
    15.6785  15.8364  15.8633  16.0052  16.2515  16.6368  17.0029  17.0476
    17.2084  17.2814  17.5439  17.6087

          k = 0.2500 0.4330 0.0000 ( 23431 PWs)   bands (ev):

     3.1271   3.2280   3.4130   3.6350   3.9034   4.1881   4.4631   4.6592
     4.7656   4.7717   4.7833   4.8190   4.8282   4.8801   4.9276   4.9513
     4.9944   5.0347   5.0354   5.1185   5.1286   5.1558   5.1671   5.2005
     5.2539   5.2548   5.3137   5.4344   5.4642   5.4798   5.5327   5.5670
     5.5882   5.6317   5.6836   5.7137   5.7637   5.7931   5.8225   5.8628
     5.8740   5.8922   5.9183   5.9293   5.9666   5.9923   6.0076   6.0518
     6.0653   6.1133   6.1403   6.1503   6.1940   6.2039   6.2452   6.2835
     6.3751   6.3929   6.4153   6.4873   6.5336   6.5566   6.5729   6.5846
     6.6304   6.6517   6.6523   6.6748   6.6961   6.7032   6.7111   6.7591
     6.8052   6.8570   6.9070   6.9427   6.9733   6.9873   6.9897   7.0318
     7.0335   7.1287   7.1852   7.1874   7.2080   7.2455   7.2598   7.2670
     7.3136   7.3346   7.3461   7.3837   7.4153   7.4598   7.4711   7.4982
     7.5341   7.5631   7.6040   7.6145   7.6274   7.6315   7.6658   7.7009
     7.7079   7.7342   7.7962   7.7991   7.8173   7.8630   7.8955   7.9348
     7.9740   8.0289   8.0463   8.0648   8.1169   8.1769   8.2155   8.2618
     8.3814   8.3968   8.4322   8.5733   8.6391   8.6930   8.7852   8.8102
     8.8254   8.8286   8.8394   8.8563   8.8593   8.8745   8.9681   9.0279
     9.1080   9.3362   9.9039  10.4090  10.4557  10.5452  10.5527  10.7141
    10.9516  11.2336  11.2905  11.7229  12.0362  12.2326  12.8030  12.8753
    13.3926  14.0078  14.0232  14.5640  14.8467  15.0748  15.7063  15.8124
    15.8846  15.9081  15.9360  16.1774  16.2584  16.4277  16.5309  16.6004
    16.9332  17.0084  17.4027  17.4408

          k = 0.2500 0.5774 0.0000 ( 23466 PWs)   bands (ev):

     3.7268   3.7985   3.9619   4.1038   4.2602   4.3938   4.5284   4.6377
     4.6471   4.6953   4.7202   4.7605   4.7616   4.8396   4.8848   4.9054
     4.9124   5.0034   5.0065   5.0500   5.0583   5.1260   5.1302   5.1858
     5.2028   5.2250   5.2295   5.2575   5.2875   5.3435   5.3706   5.4120
     5.4354   5.4890   5.5325   5.6331   5.6762   5.6844   5.7656   5.8213
     5.8562   5.8638   5.8985   5.9511   5.9582   5.9660   6.0061   6.0897
     6.1209   6.1924   6.2550   6.2715   6.3157   6.3996   6.4289   6.4613
     6.4842   6.4997   6.5338   6.5718   6.5932   6.6225   6.6428   6.6455
     6.6577   6.7215   6.7703   6.7711   6.7945   6.8209   6.8551   6.9149
     6.9271   6.9755   6.9993   7.0117   7.0891   7.1002   7.1664   7.1738
     7.2812   7.2818   7.3322   7.3456   7.3974   7.4862   7.4874   7.5157
     7.5258   7.5490   7.5545   7.6480   7.6663   7.7435   7.7895   7.8210
     7.8885   7.8900   7.9177   7.9376   7.9571   7.9690   7.9995   8.0651
     8.0705   8.0840   8.0869   8.1222   8.1270   8.1352   8.1994   8.2058
     8.2707   8.3113   8.3501   8.3608   8.4165   8.4471   8.4640   8.4917
     8.5001   8.5456   8.5803   8.6338   8.6987   8.7028   8.7446   8.7526
     8.7575   8.8283   8.8287   8.8611   8.8674   8.9324   8.9886   9.0655
     9.2362   9.8340  10.4889  11.0644  11.1404  11.1978  11.2788  11.4854
    11.7640  11.9211  12.1349  12.5842  12.7126  13.0982  13.4763  13.6003
    13.7443  13.8610  14.0800  14.3050  14.4163  14.7636  15.0212  15.0579
    15.1548  15.4611  15.6373  15.7332  15.8752  16.1749  16.4106  16.5411
    16.6558  17.0948  17.2501  17.4183

          k = 0.2500 0.7217 0.0000 ( 23545 PWs)   bands (ev):

     4.0683   4.1458   4.3247   4.4118   4.4223   4.4955   4.5176   4.5219
     4.5415   4.5903   4.6151   4.6480   4.6658   4.7330   4.7560   4.7735
     4.8251   4.8658   4.8715   4.8721   4.9265   4.9394   4.9509   5.0201
     5.0436   5.0856   5.0961   5.1362   5.1550   5.2304   5.2457   5.2459
     5.3197   5.3471   5.4113   5.4859   5.5546   5.6065   5.7299   5.7324
     5.7679   5.8656   5.8771   5.9470   6.0019   6.0202   6.0472   6.1527
     6.1832   6.2497   6.2725   6.3458   6.3530   6.4010   6.4106   6.4777
     6.5434   6.5498   6.5651   6.6002   6.6548   6.6719   6.6993   6.7284
     6.7560   6.8138   6.8209   6.8452   6.9503   6.9683   7.0218   7.0695
     7.1127   7.1187   7.1978   7.2211   7.2762   7.2912   7.3012   7.3755
     7.4100   7.4210   7.5577   7.5727   7.6479   7.6829   7.7538   7.8012
     7.8290   7.9021   7.9094   7.9286   7.9557   7.9613   8.0182   8.0743
     8.1470   8.1795   8.2087   8.2185   8.2296   8.2423   8.2783   8.3001
     8.3287   8.3466   8.4402   8.4766   8.4849   8.5355   8.5367   8.5620
     8.5851   8.5889   8.6011   8.6120   8.6669   8.6862   8.6946   8.7098
     8.7439   8.7820   8.7929   8.8289   8.8847   8.9117   8.9337   8.9522
     8.9572   8.9837   9.1232   9.2353   9.3346   9.3663   9.4535   9.6685
    10.1128  10.7184  11.4033  11.9433  11.9817  12.0031  12.0566  12.1338
    12.1429  12.2408  12.3798  12.5383  12.7539  12.8713  12.9533  13.2026
    13.3882  13.5252  13.6165  13.7250  13.9966  14.2819  14.3379  14.6950
    14.9294  15.3035  15.3619  15.3861  15.5679  15.7261  15.7339  15.9966
    16.0153  16.1887  16.4488  16.6332

          k = 0.2500-0.8660 0.0000 ( 23532 PWs)   bands (ev):

     4.2150   4.2528   4.3358   4.3360   4.4270   4.4662   4.4837   4.5086
     4.5413   4.5425   4.6526   4.6687   4.7050   4.7067   4.7375   4.7424
     4.8026   4.8035   4.8170   4.8177   4.8982   4.9079   4.9124   4.9202
     4.9532   4.9569   5.0478   5.0539   5.0766   5.0769   5.2339   5.2375
     5.3071   5.3133   5.3312   5.3320   5.5243   5.5260   5.6934   5.6945
     5.8320   5.8555   5.9611   5.9804   6.0563   6.0611   6.1217   6.1340
     6.1661   6.1716   6.2300   6.2388   6.4285   6.4307   6.4654   6.4704
     6.5393   6.5532   6.5764   6.5892   6.6501   6.6706   6.7118   6.7185
     6.7762   6.7969   6.8861   6.9068   7.0113   7.0208   7.0813   7.0946
     7.1673   7.1780   7.3081   7.3185   7.3654   7.3753   7.4363   7.4521
     7.5051   7.5205   7.6630   7.6878   7.6985   7.7004   7.8984   7.9191
     7.9227   7.9494   8.0651   8.0662   8.0938   8.1034   8.1053   8.1164
     8.2631   8.2654   8.3149   8.3436   8.3572   8.3655   8.3954   8.3992
     8.4056   8.4154   8.4361   8.4448   8.4740   8.4794   8.5312   8.5385
     8.6550   8.6667   8.7010   8.7145   8.7576   8.7620   8.7928   8.8117
     8.8342   8.8442   8.9066   8.9204   8.9760   8.9763   9.0367   9.0383
     9.0657   9.0787  10.3898  10.3974  10.4855  10.4912  10.6099  10.6147
    10.7345  10.7489  10.9215  10.9294  11.2014  11.2198  11.6071  11.6275
    12.1270  12.1447  12.7256  12.7561  13.3648  13.3828  13.5254  13.5450
    13.6479  13.6487  13.7852  13.8390  13.9252  14.0064  14.1395  14.1703
    14.4238  14.5268  14.7569  14.7976  15.0384  15.1220  15.4623  15.4980
    15.7925  15.8096  15.9675  15.9752

          k = 0.2500-0.7217 0.0000 ( 23545 PWs)   bands (ev):

     4.0172   4.1465   4.2880   4.4385   4.4691   4.4892   4.4985   4.5219
     4.5265   4.6145   4.6173   4.6331   4.6837   4.7238   4.7508   4.7559
     4.8271   4.8660   4.8728   4.8775   4.9284   4.9481   4.9511   5.0147
     5.0256   5.0943   5.1017   5.1334   5.1562   5.2330   5.2463   5.2490
     5.3244   5.3399   5.4114   5.4825   5.5478   5.6066   5.7233   5.7340
     5.7795   5.8621   5.8648   5.9534   6.0045   6.0352   6.0377   6.1707
     6.1825   6.2827   6.2906   6.3062   6.3645   6.4112   6.4425   6.5137
     6.5368   6.5413   6.5844   6.6077   6.6452   6.6772   6.7010   6.7136
     6.7572   6.8118   6.8487   6.8502   6.9472   6.9876   7.0190   7.0271
     7.1037   7.1137   7.1724   7.2356   7.2542   7.2831   7.3262   7.3915
     7.4121   7.4429   7.5429   7.5739   7.6473   7.6736   7.7536   7.7939
     7.8293   7.9017   7.9025   7.9416   7.9510   7.9539   8.0406   8.0678
     8.1377   8.1758   8.1857   8.2143   8.2224   8.2720   8.2743   8.2947
     8.3289   8.3590   8.4467   8.4890   8.4970   8.5188   8.5393   8.5562
     8.5800   8.5892   8.6029   8.6413   8.6678   8.6767   8.6887   8.7394
     8.7572   8.7823   8.7895   8.8099   8.8804   8.9115   8.9302   8.9472
     8.9477   8.9617   9.1259   9.2394   9.3314   9.3795   9.4562   9.6791
    10.1196  10.7129  11.3983  11.9542  11.9965  12.0186  12.0440  12.0975
    12.1224  12.2202  12.3460  12.5142  12.6937  12.8487  12.9290  13.1248
    13.3745  13.5473  13.5503  13.7450  14.0345  14.2840  14.4559  14.7246
    15.0336  15.2910  15.3825  15.4607  15.5688  15.5851  15.7129  15.9726
    16.1051  16.1632  16.4155  16.6907

          k = 0.2500-0.5774 0.0000 ( 23466 PWs)   bands (ev):

     3.6757   3.8018   3.9334   4.1216   4.2739   4.4123   4.5356   4.6309
     4.6363   4.6486   4.7239   4.7409   4.7619   4.8493   4.8806   4.8820
     4.9139   5.0035   5.0153   5.0468   5.0644   5.1252   5.1367   5.1873
     5.2102   5.2116   5.2323   5.2638   5.2877   5.3504   5.3798   5.4127
     5.4347   5.4894   5.5374   5.6186   5.6679   5.6928   5.7681   5.8259
     5.8467   5.8510   5.9315   5.9507   5.9601   5.9894   6.0161   6.0936
     6.1310   6.1969   6.2700   6.2834   6.3235   6.4036   6.4153   6.4562
     6.4988   6.5146   6.5507   6.5765   6.6145   6.6329   6.6452   6.6480
     6.6759   6.7210   6.7416   6.7754   6.8147   6.8255   6.8726   6.9155
     6.9263   6.9597   6.9816   7.0096   7.0942   7.1156   7.1422   7.1801
     7.2541   7.2875   7.3362   7.3378   7.4537   7.4737   7.5080   7.5186
     7.5247   7.5439   7.5582   7.6301   7.6618   7.7331   7.7991   7.8345
     7.8647   7.8932   7.9129   7.9331   7.9597   7.9945   8.0065   8.0655
     8.0710   8.0760   8.0777   8.1167   8.1200   8.1399   8.1956   8.2112
     8.2626   8.3152   8.3398   8.3620   8.4225   8.4467   8.4610   8.4849
     8.5092   8.5439   8.5783   8.6565   8.7002   8.7045   8.7526   8.7526
     8.7923   8.8300   8.8319   8.8784   8.8789   8.8935   8.9913   9.0194
     9.2308   9.8124  10.4688  11.0603  11.1361  11.1370  11.2755  11.4772
    11.7600  11.8952  12.1288  12.5823  12.6425  13.1054  13.4816  13.6435
    13.7112  13.8693  14.0471  14.3445  14.4046  14.7310  14.9906  15.0186
    15.1245  15.4801  15.6608  15.6917  15.8759  16.2138  16.4176  16.5073
    16.6891  17.2053  17.2689  17.4771

          k = 0.2500-0.4330 0.0000 ( 23431 PWs)   bands (ev):

     3.1022   3.2300   3.4002   3.6416   3.9045   4.1942   4.4640   4.6480
     4.7032   4.7420   4.7462   4.8244   4.8318   4.8710   4.9128   4.9281
     4.9873   5.0300   5.0605   5.1105   5.1385   5.1631   5.1988   5.2315
     5.2540   5.2555   5.3178   5.4625   5.4713   5.4744   5.5327   5.5613
     5.5905   5.6370   5.6670   5.7155   5.7574   5.7880   5.8224   5.8717
     5.9145   5.9158   5.9276   5.9326   5.9923   5.9971   6.0241   6.0384
     6.0477   6.1144   6.1511   6.1596   6.2041   6.2158   6.2439   6.2636
     6.3852   6.3991   6.4194   6.5036   6.5305   6.5485   6.5843   6.5854
     6.6228   6.6471   6.6608   6.6876   6.7019   6.7036   6.7337   6.7540
     6.8124   6.8661   6.8993   6.9702   6.9879   6.9891   7.0210   7.0300
     7.0336   7.1282   7.1711   7.1841   7.1897   7.2309   7.2680   7.2758
     7.3034   7.3355   7.3457   7.3900   7.4148   7.4279   7.4844   7.4911
     7.5590   7.5615   7.6057   7.6243   7.6305   7.6487   7.6600   7.7038
     7.7069   7.7424   7.7774   7.8081   7.8422   7.8625   7.8950   7.9246
     7.9761   8.0276   8.0381   8.0609   8.1051   8.1639   8.1969   8.2424
     8.3909   8.4055   8.4359   8.5610   8.6489   8.7329   8.7934   8.8097
     8.8145   8.8266   8.8545   8.8721   8.8846   8.8880   8.9227   9.0317
     9.0551   9.3073   9.8782  10.4076  10.4518  10.4779  10.5493  10.7078
    10.9493  11.2059  11.2906  11.7308  11.9627  12.2514  12.8231  12.8782
    13.4362  13.9555  14.0196  14.6039  14.8745  14.9562  15.6485  15.7429
    15.8625  15.8989  15.9545  16.1609  16.2564  16.4494  16.4877  16.6150
    16.9969  17.0751  17.4271  17.4740

          k = 0.2500-0.2887 0.0000 ( 23496 PWs)   bands (ev):

     2.5131   2.6499   2.8568   3.1383   3.4655   3.8304   4.1870   4.3927
     4.4667   4.4934   4.5895   4.6226   4.6410   4.6534   4.7036   4.7261
     4.7980   4.8375   4.8820   4.8838   4.9351   4.9905   5.0375   5.1004
     5.1152   5.2105   5.2349   5.3263   5.3769   5.4592   5.5341   5.5607
     5.6195   5.6314   5.7224   5.7867   5.8083   5.8188   5.8976   5.9065
     5.9171   5.9330   5.9642   6.0214   6.0248   6.0514   6.1019   6.1162
     6.1249   6.1451   6.1817   6.2401   6.2740   6.3445   6.3631   6.3936
     6.4356   6.4756   6.5155   6.5161   6.5300   6.5674   6.5842   6.6315
     6.6411   6.6582   6.6880   6.6993   6.7180   6.7381   6.7758   6.7992
     6.8123   6.8318   6.8611   6.8777   6.9089   6.9304   6.9573   6.9850
     6.9882   6.9949   7.0135   7.0550   7.0974   7.1223   7.1442   7.1795
     7.1820   7.2390   7.2655   7.2832   7.2875   7.3455   7.3641   7.3680
     7.4453   7.4541   7.4992   7.5522   7.5681   7.5845   7.6321   7.6760
     7.7026   7.7437   7.7559   7.7720   7.8253   7.8312   7.8967   7.9033
     7.9415   7.9765   7.9859   8.0491   8.0946   8.1657   8.1682   8.2124
     8.2550   8.3889   8.3953   8.4652   8.6266   8.6358   8.6808   8.6944
     8.7679   8.7745   8.8007   8.8253   8.8422   8.8833   8.9036   8.9822
     8.9973   9.0183   9.4360   9.8092   9.8520   9.9087   9.9546  10.0063
    10.1794  10.4705  10.6305  10.8952  11.3705  11.4305  12.0406  12.2875
    12.7020  12.9318  13.3717  14.0473  14.3560  14.6465  15.4011  15.4931
    15.6810  15.8481  15.8550  16.0109  16.2177  16.6058  17.0221  17.0246
    17.2170  17.2704  17.5354  17.6127

          k = 0.2500-0.1443 0.0000 ( 23484 PWs)   bands (ev):

     2.1036   2.2442   2.4662   2.7620   3.1098   3.4944   3.8689   4.0408
     4.1480   4.1684   4.3052   4.3324   4.3893   4.3949   4.4588   4.4936
     4.5227   4.5853   4.5861   4.6053   4.6420   4.7300   4.7599   4.8299
     4.8697   4.9497   5.0218   5.1008   5.2323   5.2440   5.3423   5.5532
     5.7256   5.8005   5.8168   5.8448   5.9083   5.9186   6.0204   6.0333
     6.0444   6.0623   6.0953   6.1349   6.1596   6.1733   6.2183   6.2823
     6.2901   6.3180   6.3719   6.3769   6.4422   6.4474   6.4535   6.5036
     6.5088   6.5288   6.5768   6.5789   6.6049   6.6117   6.6186   6.6368
     6.6451   6.6980   6.7063   6.7169   6.7175   6.7549   6.7690   6.7760
     6.7791   6.8185   6.8315   6.8449   6.8692   6.9121   6.9269   6.9546
     6.9655   6.9896   7.0263   7.0942   7.1124   7.2000   7.2004   7.2107
     7.2554   7.2910   7.3129   7.3378   7.4110   7.4405   7.4716   7.4752
     7.5595   7.5764   7.6137   7.6427   7.7105   7.7610   7.7756   7.8037
     7.8338   7.8675   7.9018   7.9228   7.9386   7.9650   8.0361   8.0450
     8.1326   8.1391   8.1980   8.2130   8.2223   8.2389   8.2707   8.2858
     8.3117   8.4435   8.4444   8.4781   8.5193   8.5226   8.5861   8.6057
     8.6391   8.6734   8.7149   8.7390   8.7420   8.7833   8.7868   8.7992
     8.9122   8.9351   9.1213   9.1216   9.2392   9.3307   9.3668   9.4525
     9.5540   9.6747  10.1220  10.1605  10.7258  10.8729  11.4101  11.7435
    12.1332  12.1491  12.8634  13.5841  14.1251  14.2760  15.1489  15.2936
    15.3663  15.5036  15.5747  15.7157  15.9875  16.4307  16.7543  16.8732
    16.8972  17.1935  17.4695  17.8134

          k = 0.3750 0.0000 0.0000 ( 23492 PWs)   bands (ev):

     2.4835   2.6152   2.8264   3.1051   3.4348   3.6662   3.7667   3.7998
     3.9150   4.0851   4.1577   4.2405   4.3733   4.4384   4.4994   4.5725
     4.6130   4.6292   4.6885   4.7233   4.8515   4.8537   4.8575   4.9084
     4.9861   5.0217   5.1101   5.1921   5.2297   5.3265   5.4838   5.5172
     5.6242   5.6736   5.7726   5.8208   5.8693   5.9007   5.9221   5.9447
     5.9693   5.9784   6.0425   6.0775   6.1052   6.1272   6.1464   6.2065
     6.2961   6.3406   6.3743   6.4134   6.4247   6.4800   6.4951   6.5184
     6.5233   6.5643   6.5652   6.5936   6.5939   6.6196   6.6395   6.6513
     6.6659   6.6940   6.6984   6.7020   6.7537   6.7751   6.8157   6.8191
     6.8275   6.8497   6.8923   6.9130   6.9218   6.9353   6.9519   6.9717
     7.0025   7.0048   7.0197   7.0672   7.1145   7.1270   7.1417   7.1869
     7.2038   7.2093   7.2487   7.3144   7.3190   7.3462   7.3914   7.4298
     7.4915   7.4971   7.5287   7.5409   7.6177   7.6213   7.6511   7.6660
     7.6696   7.7548   7.7789   7.7898   7.8827   7.8996   7.9535   7.9661
     7.9750   7.9906   8.0128   8.0349   8.0394   8.0544   8.0721   8.0722
     8.0865   8.1325   8.1840   8.2026   8.2322   8.2391   8.2724   8.3255
     8.3554   8.3617   8.3915   8.4401   8.4670   8.5313   8.5559   8.5906
     8.6324   8.6841   8.7258   8.8053   8.8322   8.8550   8.8902   8.9421
     9.1657   9.4090   9.7756   9.9563  10.4372  10.6058  11.1343  11.3676
    11.8703  12.2466  12.6421  12.8842  13.4478  14.3216  14.9648  15.3801
    15.6135  15.8166  16.4898  16.9810  17.1936  17.2619  17.4285  17.6148
    17.7859  17.9672  18.2676  18.7147

          k = 0.3750 0.1443 0.0000 ( 23495 PWs)   bands (ev):

     2.6254   2.7519   2.9602   3.2319   3.5569   3.8091   3.9061   3.9186
     4.0454   4.2069   4.2802   4.3521   4.4822   4.5724   4.6157   4.7120
     4.7379   4.7503   4.7943   4.8463   4.9573   4.9644   4.9657   4.9892
     5.0588   5.1185   5.2024   5.2808   5.3499   5.4166   5.5086   5.5248
     5.6409   5.6547   5.6731   5.7827   5.7907   5.8149   5.8543   5.8841
     5.9039   5.9284   5.9386   6.0079   6.0335   6.0365   6.0828   6.1221
     6.1415   6.2222   6.2620   6.2660   6.3089   6.3483   6.3798   6.4234
     6.4369   6.4425   6.4985   6.5027   6.5538   6.5568   6.5590   6.5937
     6.6181   6.6423   6.6806   6.6921   6.6961   6.7015   6.7201   6.7366
     6.7863   6.8009   6.8317   6.8428   6.8622   6.9175   6.9459   6.9925
     7.0262   7.0307   7.0736   7.0818   7.1500   7.1552   7.1801   7.2181
     7.2274   7.2836   7.2952   7.3182   7.3246   7.3610   7.3834   7.4005
     7.4267   7.4392   7.4748   7.4843   7.5087   7.5748   7.6105   7.6686
     7.7158   7.7290   7.7419   7.7691   7.7856   7.8326   7.9079   7.9185
     7.9512   7.9660   8.0446   8.0621   8.0747   8.0935   8.1628   8.1902
     8.2255   8.2581   8.2986   8.3132   8.3989   8.4114   8.4272   8.4731
     8.5004   8.5150   8.5477   8.5531   8.6230   8.6471   8.6682   8.6965
     8.7128   8.7176   8.7612   8.7625   8.7962   8.8421   8.9368   9.1187
     9.3953   9.5625   9.9602  10.1103  10.5944  10.7587  11.2775  11.5366
    12.0133  12.4058  12.7775  13.1461  13.5781  14.4073  15.1858  15.4808
    15.7759  15.9198  16.6197  17.0981  17.2737  17.3466  17.4587  17.6469
    17.8885  18.0405  18.3044  18.7626

          k = 0.3750 0.2887 0.0000 ( 23497 PWs)   bands (ev):

     3.0138   3.1247   3.3171   3.5605   3.8565   4.1848   4.1968   4.2699
     4.3559   4.4593   4.5215   4.5574   4.6765   4.8017   4.8197   4.9264
     4.9732   4.9794   5.0748   5.1087   5.1908   5.1959   5.1976   5.2349
     5.2710   5.3385   5.3741   5.3788   5.4290   5.5041   5.5173   5.5890
     5.6129   5.6296   5.6347   5.6915   5.7199   5.7361   5.7450   5.7606
     5.7823   5.8212   5.8547   5.8716   5.9061   5.9105   5.9680   5.9741
     5.9771   5.9914   6.0631   6.0949   6.1339   6.2153   6.2169   6.2686
     6.2887   6.3229   6.3350   6.3623   6.4003   6.4236   6.4363   6.4568
     6.4642   6.5372   6.5469   6.5826   6.6094   6.6230   6.6520   6.7041
     6.7147   6.7237   6.7393   6.7428   6.7938   6.8751   6.8989   6.9487
     6.9620   6.9995   7.0366   7.1196   7.1885   7.2378   7.2541   7.2805
     7.3062   7.3282   7.3371   7.3721   7.3766   7.4057   7.4317   7.4387
     7.4941   7.5208   7.5284   7.5979   7.6008   7.6288   7.6513   7.6572
     7.6945   7.7038   7.7174   7.7673   7.8629   7.9052   7.9491   7.9616
     7.9751   8.0976   8.1031   8.1278   8.1407   8.1485   8.1940   8.2291
     8.2743   8.3287   8.4063   8.5091   8.5317   8.5548   8.5800   8.6164
     8.6300   8.6784   8.6886   8.6946   8.7070   8.7670   8.8346   8.9016
     8.9336   9.0589   9.1056   9.1104   9.1693   9.2740   9.3575   9.4935
     9.8566   9.9045  10.4317  10.4536  11.0339  11.1282  11.6908  11.9255
    12.4175  12.7770  13.1565  13.8134  13.9214  14.7200  15.7716  15.7835
    16.2074  16.2552  16.9543  17.3865  17.4779  17.5214  17.5864  17.7817
    18.0697  18.1328  18.3529  18.6446
[...]
     8.7108   8.7209   8.7551   8.7572   8.7988   8.8218   8.9439   9.0962
     9.4130   9.5388   9.9828  10.0721  10.6170  10.7404  11.2996  11.5022
    12.0248  12.4055  12.7925  13.1292  13.5669  14.4239  15.1936  15.4784
    15.7646  15.9267  16.6180  17.1157  17.2763  17.3385  17.4441  17.6467
    17.8716  18.0356  18.3048  18.7524

          k =-0.5000 0.0000-0.0000 ( 23442 PWs)   bands (ev):

     3.1166   3.1166   3.2298   3.2298   3.4081   3.4081   3.6388   3.6388
     3.9047   3.9047   4.1915   4.1915   4.4646   4.4646   4.6599   4.6599
     4.7636   4.7636   4.8802   4.8802   5.0120   5.0120   5.1373   5.1373
     5.1699   5.1699   5.2185   5.2186   5.3148   5.3149   5.4519   5.4520
     5.5863   5.5863   5.7124   5.7124   5.8187   5.8188   5.8843   5.8843
     5.9251   5.9251   5.9898   5.9898   6.0471   6.0471   6.1406   6.1406
     6.2017   6.2017   6.2513   6.2513   6.3844   6.3844   6.4610   6.4610
     6.5362   6.5362   6.5906   6.5906   6.6309   6.6310   6.6736   6.6736
     6.6855   6.6855   6.6947   6.6947   6.7122   6.7122   6.7441   6.7441
     6.8095   6.8095   6.8737   6.8737   6.9038   6.9038   6.9534   6.9534
     6.9947   6.9947   7.1502   7.1503   7.1860   7.1861   7.1897   7.1897
     7.2364   7.2365   7.2740   7.2741   7.3451   7.3451   7.4148   7.4148
     7.4427   7.4427   7.5009   7.5009   7.5455   7.5455   7.5618   7.5619
     7.6113   7.6113   7.6254   7.6254   7.6676   7.6676   7.7059   7.7059
     7.7998   7.7998   7.8284   7.8285   7.8971   7.8972   7.9736   7.9736
     8.0364   8.0364   8.0708   8.0708   8.1097   8.1098   8.1684   8.1684
     8.2475   8.2476   8.3746   8.3747   8.4032   8.4032   8.5678   8.5678
     8.6941   8.6941   8.8212   8.8212   8.8295   8.8295   8.8671   8.8672
     9.3287   9.3287   9.8933   9.8933  10.5182  10.5183  11.2196  11.2196
    12.0016  12.0017  12.8771  12.8772  13.9823  13.9824  14.8627  14.8628
    15.8735  15.8737  16.4409  16.4425  17.4137  17.4145  17.8129  17.8133
    19.1507  19.1509  19.3085  19.3090

          k =-0.5000 0.1443-0.0000 ( 23476 PWs)   bands (ev):

     3.2523   3.2577   3.3640   3.3645   3.5345   3.5367   3.7579   3.7599
     4.0179   4.0187   4.3023   4.3038   4.5852   4.5860   4.7995   4.8072
     4.9044   4.9054   5.0127   5.0138   5.1372   5.1377   5.2191   5.2262
     5.2820   5.2841   5.2957   5.3047   5.3749   5.3790   5.4924   5.4988
     5.5987   5.6103   5.6746   5.6896   5.7430   5.7445   5.7578   5.7676
     5.8452   5.8506   5.8632   5.8662   5.9441   5.9455   5.9954   6.0084
     6.0440   6.0674   6.0785   6.0810   6.2301   6.2454   6.3648   6.3960
     6.4525   6.4661   6.4693   6.4882   6.5173   6.5252   6.5503   6.5828
     6.5968   6.6111   6.6256   6.6412   6.6634   6.6643   6.6779   6.6852
     6.7053   6.7163   6.7268   6.7358   6.7697   6.7773   6.8954   6.9010
     6.9789   6.9847   7.0779   7.0821   7.1718   7.1805   7.3003   7.3014
     7.3600   7.3620   7.3783   7.3839   7.3952   7.3953   7.4141   7.4276
     7.4503   7.4880   7.5036   7.5138   7.5783   7.5872   7.6416   7.6572
     7.7050   7.7090   7.7695   7.7722   7.7860   7.7949   7.8380   7.8528
     7.8660   7.8746   7.9355   7.9482   8.0802   8.0811   8.0975   8.0988
     8.1554   8.1701   8.1957   8.2107   8.2326   8.2438   8.2961   8.2994
     8.3050   8.3073   8.3525   8.3567   8.4369   8.4447   8.5587   8.5727
     8.6361   8.6670   8.7194   8.7210   8.7511   8.7571   9.0086   9.0234
     9.4662   9.4915  10.0106  10.0359  10.6276  10.6573  11.3396  11.3553
    12.1189  12.1421  12.9925  12.9977  14.2017  14.2155  14.9876  15.0017
    15.9942  15.9967  16.5351  16.5438  17.5509  17.5688  17.8686  17.8752
    19.2085  19.2171  19.3832  19.4029

          k =-0.5000 0.2887-0.0000 ( 23540 PWs)   bands (ev):

     3.6112   3.6306   3.7127   3.7151   3.8529   3.8600   4.0410   4.0489
     4.2630   4.2682   4.5098   4.5202   4.7745   4.7848   5.0403   5.0427
     5.2336   5.2477   5.2802   5.3048   5.3236   5.3406   5.3715   5.3776
     5.4051   5.4053   5.4251   5.4336   5.4576   5.4617   5.5176   5.5202
     5.5330   5.5340   5.5474   5.5671   5.5961   5.6074   5.6495   5.6520
     5.7157   5.7245   5.7724   5.7842   5.8173   5.8227   5.8305   5.8395
     5.9897   6.0061   6.0487   6.0583   6.0751   6.0774   6.1447   6.1541
     6.2049   6.2243   6.2457   6.2553   6.3285   6.3453   6.3983   6.4177
     6.4465   6.4499   6.4995   6.5131   6.5351   6.5360   6.5570   6.5864
     6.5935   6.5939   6.5960   6.6367   6.9658   6.9675   6.9764   6.9899
     7.0055   7.0168   7.0524   7.0567   7.1449   7.1805   7.1954   7.2092
     7.2605   7.2721   7.3354   7.3609   7.4250   7.4730   7.5265   7.5382
     7.5792   7.5829   7.6452   7.6469   7.6863   7.7013   7.7806   7.7831
     7.8060   7.8209   7.9417   7.9529   8.0233   8.0281   8.0551   8.0585
     8.1676   8.1933   8.2025   8.2161   8.2433   8.2561   8.3726   8.3731
     8.4048   8.4149   8.4316   8.4324   8.4495   8.4605   8.4925   8.4955
     8.5209   8.5339   8.5458   8.5828   8.6019   8.6020   8.6275   8.6370
     8.6868   8.6881   8.7079   8.7295   8.8454   8.8499   9.2712   9.2902
     9.7626   9.7948  10.3240  10.3602  10.9496  11.0007  11.6785  11.7041
    12.4468  12.4918  13.2876  13.3011  14.7753  14.8098  15.3721  15.3963
    16.3315  16.3470  16.8390  16.8664  17.8988  17.9520  18.0540  18.0631
    19.2759  19.2941  19.3322  19.3858

          k =-0.5000 0.4330-0.0000 ( 23522 PWs)   bands (ev):

     3.9557   4.0054   4.0639   4.0681   4.1795   4.2033   4.3151   4.3394
     4.4441   4.4674   4.5723   4.5963   4.7197   4.7374   4.8651   4.8735
     4.9658   4.9815   5.0362   5.0480   5.0942   5.1078   5.1419   5.1492
     5.2129   5.2180   5.2951   5.3048   5.3450   5.3550   5.4571   5.4576
     5.5061   5.5110   5.5901   5.5922   5.6230   5.6642   5.7424   5.7532
     5.8535   5.8542   5.9278   5.9410   6.0011   6.0015   6.0516   6.0551
     6.1146   6.1326   6.1745   6.1807   6.2298   6.2393   6.2824   6.2866
     6.3324   6.3343   6.3843   6.4065   6.4524   6.4572   6.4860   6.5051
     6.5415   6.5587   6.6232   6.6487   6.7134   6.7187   6.7427   6.7693
     6.7858   6.8095   6.8441   6.8461   6.8859   6.9078   6.9242   6.9265
     7.0149   7.0232   7.1085   7.1153   7.2244   7.2328   7.3915   7.3918
     7.4786   7.4827   7.5233   7.5277   7.5595   7.5600   7.5835   7.6073
     7.6156   7.6222   7.6971   7.7078   7.8207   7.8243   7.8534   7.8579
     8.0194   8.0228   8.0986   8.1156   8.2180   8.2242   8.2777   8.2791
     8.3647   8.3725   8.4622   8.4665   8.5088   8.5139   8.5373   8.5403
     8.5722   8.5735   8.6361   8.6377   8.6574   8.6979   8.7797   8.7828
     8.7896   8.7922   8.8191   8.8477   8.8582   8.8638   8.8790   8.8830
     8.9296   8.9311   9.0072   9.0078   9.1987   9.2014   9.6268   9.6430
    10.1654  10.1971  10.7806  10.8158  11.4367  11.4989  12.1801  12.2094
    12.9224  12.9847  13.7067  13.7275  15.4254  15.4851  15.9362  15.9672
    16.7598  16.7882  17.3328  17.4086  17.4852  17.5476  17.6792  17.7089
    17.9492  17.9854  18.1232  18.1269

          k =-0.5000 0.5774-0.0000 ( 23534 PWs)   bands (ev):

     4.0186   4.0671   4.1455   4.1467   4.2886   4.3238   4.4212   4.4686
     4.4953   4.4994   4.5217   4.5220   4.5907   4.6149   4.6338   4.6477
     4.7259   4.7337   4.7514   4.7606   4.8248   4.8267   4.8683   4.8710
     4.9389   4.9506   5.0187   5.0368   5.0976   5.0984   5.2303   5.2327
     5.2453   5.2471   5.3400   5.3445   5.5428   5.5546   5.7240   5.7326
     5.8625   5.8787   6.0317   6.0529   6.1758   6.1980   6.2278   6.2877
     6.3269   6.3382   6.3630   6.3657   6.4256   6.4375   6.4947   6.4985
     6.5347   6.5449   6.5730   6.5753   6.6109   6.6189   6.7024   6.7167
     6.7474   6.7521   6.8274   6.8468   6.9540   6.9592   7.0203   7.0247
     7.1022   7.1135   7.1820   7.1913   7.2603   7.2778   7.2984   7.3282
     7.4221   7.4328   7.5641   7.5648   7.6438   7.6621   7.7553   7.7875
     7.8276   7.8322   7.9025   7.9033   7.9296   7.9332   8.0276   8.0313
     8.1383   8.1557   8.1811   8.2065   8.2166   8.2188   8.2245   8.2269
     8.2738   8.2789   8.2868   8.2981   8.4429   8.4442   8.4824   8.4849
     8.5276   8.5324   8.5858   8.5885   8.6025   8.6091   8.6734   8.6784
     8.7398   8.7399   8.7782   8.7918   8.8024   8.8392   8.9102   8.9118
     8.9408   8.9766   9.1202   9.1212   9.2345   9.2351   9.3261   9.3322
     9.3624   9.3804   9.4529   9.4592   9.6722   9.6801  10.1153  10.1201
    10.7055  10.7273  11.3895  11.4113  12.0900  12.1510  12.8449  12.8737
    13.5439  13.6218  14.2721  14.2897  15.2909  15.3030  15.3577  15.3883
    15.5676  15.5853  15.7112  15.7271  15.9792  16.0056  16.4181  16.4428
    16.8945  16.8992  17.1920  17.1977

          k =-0.5000 0.7217-0.0000 ( 23516 PWs)   bands (ev):

     3.9691   4.0110   4.0971   4.0974   4.2477   4.2609   4.2820   4.2899
     4.3565   4.3578   4.4431   4.4513   4.4799   4.4799   4.5543   4.5614
     4.5828   4.5874   4.6307   4.6332   4.6448   4.6533   4.6916   4.6921
     4.7597   4.7663   4.8083   4.8175   4.9399   4.9429   5.0435   5.0436
     5.0716   5.0721   5.2042   5.2046   5.4710   5.4721   5.7237   5.7393
     5.9069   5.9242   6.0440   6.0948   6.1657   6.1852   6.2286   6.2511
     6.3153   6.3219   6.3537   6.3604   6.4007   6.4128   6.4713   6.4740
     6.5169   6.5240   6.6246   6.6471   6.7337   6.7562   6.8088   6.8097
     6.9037   6.9237   7.0111   7.0210   7.0795   7.0933   7.2727   7.2865
     7.3361   7.3400   7.4368   7.4455   7.5830   7.5910   7.7354   7.7703
     7.8344   7.8387   7.8809   7.9035   8.1191   8.1244   8.1514   8.1615
     8.2511   8.2566   8.3988   8.4073   8.4595   8.4635   8.5458   8.5561
     8.5635   8.5680   8.5998   8.6020   8.6491   8.6541   8.6700   8.6748
     8.7029   8.7066   8.7159   8.7213   8.7322   8.7357   8.7438   8.7449
     8.7603   8.7697   8.7815   8.7913   8.8060   8.8061   8.8437   8.8448
     8.8738   8.8772   8.9233   8.9314   8.9820   9.0188   9.0676   9.0683
     9.0729   9.0848   9.5698   9.6025   9.8197   9.8223  10.0483  10.0700
    10.2046  10.2291  10.3020  10.3273  10.4600  10.4918  10.8266  10.8516
    11.3916  11.3999  12.0488  12.0742  12.7452  12.7540  13.3149  13.3838
    13.4725  13.4777  13.5447  13.5909  13.6335  13.7481  13.9346  13.9606
    14.1938  14.3065  14.5313  14.5691  14.8185  14.9144  15.2114  15.2849
    15.5748  15.6032  15.8705  15.9171

          k =-0.5000-0.8660-0.0000 ( 23552 PWs)   bands (ev):

     3.9415   3.9810   4.0687   4.0688   4.1974   4.2185   4.2218   4.2503
     4.2922   4.2940   4.3969   4.4060   4.4367   4.4401   4.4903   4.4979
     4.5361   4.5409   4.5699   4.5707   4.6010   4.6117   4.6528   4.6637
     4.6911   4.6928   4.7206   4.7262   4.8817   4.8848   4.9824   4.9843
     5.0052   5.0055   5.1588   5.1590   5.4388   5.4404   5.7165   5.7323
     5.9300   5.9388   6.0231   6.0809   6.1608   6.1651   6.2087   6.2279
     6.3096   6.3174   6.3219   6.3238   6.3723   6.3797   6.4310   6.4320
     6.5601   6.6001   6.6948   6.7243   6.7698   6.7735   6.8097   6.8227
     6.9968   7.0126   7.0484   7.0747   7.1432   7.1508   7.2641   7.2697
     7.4657   7.4764   7.5529   7.5555   7.5867   7.6052   7.8457   7.8494
     7.9227   7.9690   8.0541   8.0632   8.1206   8.1316   8.3763   8.3793
     8.3855   8.3861   8.4942   8.5006   8.5759   8.5895   8.6843   8.7006
     8.7013   8.7279   8.7428   8.7448   8.7787   8.8043   8.8076   8.8097
     8.8173   8.8330   8.8421   8.8476   8.8484   8.8504   8.8674   8.8703
     8.8887   8.8921   8.9096   8.9183   8.9479   8.9502   8.9733   8.9860
     9.0212   9.0251   9.0281   9.0327   9.0657   9.0771   9.2220   9.2223
     9.2226   9.2229  10.1765  10.2580  10.5546  10.5649  10.9106  10.9674
    11.2133  11.2525  11.4650  11.4675  11.5863  11.6330  11.6925  11.7385
    11.7747  11.8020  11.8265  11.8728  11.8837  11.8913  11.9052  12.1230
    12.1238  12.1241  12.1245  12.1933  13.4131  13.6302  13.7285  13.7502
    13.9239  14.0806  14.2718  14.3134  14.5034  14.6109  14.8540  14.9314
    15.2829  15.4322  15.8378  15.9682

     the Fermi energy is    10.7391 ev

!    total energy              =  -20153.51204539 Ry

     total all-electron energy =   -988623.510413 Ry
     estimated scf accuracy    <       0.00000033 Ry
     smearing contrib. (-TS)   =      -0.00035156 Ry
     internal energy E=F+TS    =  -20153.51169383 Ry

     The total energy is F=E-TS. E is the sum of the following terms:
     one-electron contribution =   -8804.08978211 Ry
     hartree contribution      =    4727.60627623 Ry
     xc contribution           =    -833.60201625 Ry
     ewald contribution        =    2761.90826088 Ry
     one-center paw contrib.   =  -18005.33443260 Ry

     convergence has been achieved in  29 iterations

     negative rho (up, down):  2.254E-03 0.000E+00

     Forces acting on atoms (cartesian axes, Ry/au):

     atom    1 type  1   force =    -0.00005768    0.00003786   -0.00326311
     atom    2 type  1   force =     0.00004374   -0.00003591    0.00357526
     atom    3 type  1   force =     0.00004906    0.00003208    0.00028481
     atom    4 type  1   force =     0.00195093    0.00548185   -0.00420038
     atom    5 type  1   force =    -0.00004252   -0.00001227   -0.00018510
     atom    6 type  1   force =     0.00001307    0.00001658    0.00480802
     atom    7 type  1   force =    -0.00007909   -0.00000517    0.00170165
     atom    8 type  1   force =    -0.00186941   -0.00551989    0.00418801
     atom    9 type  1   force =     0.00000291   -0.00002049   -0.00052054
     atom   10 type  1   force =     0.00007966    0.00000371   -0.00206771
     atom   11 type  1   force =    -0.00001133   -0.00001610   -0.00490063
     atom   12 type  1   force =    -0.00003411    0.00055979    0.00078965
     atom   13 type  1   force =    -0.00005591   -0.00052422   -0.00020672
     atom   14 type  1   force =     0.00000370    0.00001862    0.00481363
     atom   15 type  1   force =    -0.00007470   -0.00000749    0.00169808
     atom   16 type  1   force =    -0.00186848   -0.00551936    0.00418623
     atom   17 type  1   force =     0.00000448   -0.00002222   -0.00051755
     atom   18 type  1   force =     0.00007342    0.00000460   -0.00206612
     atom   19 type  1   force =    -0.00000855   -0.00001371   -0.00489965
     atom   20 type  1   force =    -0.00003651    0.00055867    0.00078773
     atom   21 type  1   force =    -0.00005005   -0.00052241   -0.00020232
     atom   22 type  1   force =    -0.00005190    0.00003721   -0.00326506
     atom   23 type  1   force =     0.00006031   -0.00003824    0.00357483
     atom   24 type  1   force =     0.00004658    0.00003527    0.00028688
     atom   25 type  1   force =     0.00195231    0.00547928   -0.00420560
     atom   26 type  1   force =    -0.00003994   -0.00000804   -0.00019429

     Total force =     0.015100     Total SCF correction =     0.003705
     SCF correction compared to forces is large: reduce conv_thr to get better values
     Message from routine bfgs:
     history already reset at previous step: exiting
     Energy error            =      2.7E-03 Ry
     Gradient error          =      4.9E-03 Ry/Bohr

     bfgs converged in   4 scf cycles and   1 bfgs steps
     (criteria: energy <  1.0E-04 Ry, force <  1.0E-03 Ry/Bohr)

     End of BFGS Geometry Optimization

     Final energy             =  -20153.5120453877 Ry

     File ./pwscf.bfgs deleted, as requested
Begin final coordinates

ATOMIC_POSITIONS (angstrom)
Au            0.0000000000        0.0000000000        0.0000000000    0   0   1
Au            5.0991277561        0.2944000000       28.8451587017    0   0   1
Au            5.0991339819        0.2944000000       21.6338681730    0   0   1
Au            5.0991389889        0.0000000000       14.4225793509    0   0   1
Au            5.0991452147        0.0000000000        7.2112897049    0   0   1
Au            1.6997150733        0.0000000000        2.4037630192    0   0   1
Au            1.6996977676        0.2944000000       24.0376304861    0   0   1
Au            1.6997039934        0.2944000000       16.8263417228    0   0   1
Au            1.6997090005        0.0000000000        9.6150537833    0   0   1
Au            3.3994301414        0.0000000000        4.8075268622    0   0   1
Au            3.3994129888        0.2944000000       26.4413963887    0   0   1
Au            3.3994189086        0.2944000000       19.2301058012    0   0   1
Au            3.3994248284        0.0000000000       12.0188187443    0   0   1
Au            4.2492909414        1.4719970299        2.4037630192    0   0   1
Au            4.2492725751        1.7663970299       24.0376304861    0   0   1
Au            4.2492788009        1.7663970299       16.8263417228    0   0   1
Au            4.2492850215        1.4719970299        9.6150537833    0   0   1
Au            0.8498539674        1.4719970299        4.8075268622    0   0   1
Au            0.8498368147        1.7663970299       26.4413963887    0   0   1
Au            0.8498428875        1.7663970299       19.2301058012    0   0   1
Au            0.8498488838        1.4719970299       12.0188187443    0   0   1
Au            2.5495761740        1.4719970299        0.0000000000    0   0   1
Au            2.5495526478        1.7663970299       28.8451587017    0   0   1
Au            2.5495578078        1.7663970299       21.6338681730    0   0   1
Au            2.5495637276        1.4719970299       14.4225793509    0   0   1
Au            2.5495699534        1.4719970299        7.2112897049    0   0   1
End final coordinates



     Writing all to output data dir ./pwscf.save/
 
     init_run     :     22.78s CPU     23.77s WALL (       1 calls)
     electrons    :   1974.68s CPU   2025.64s WALL (       1 calls)
     forces       :      8.75s CPU      8.87s WALL (       1 calls)

     Called by init_run:
     wfcinit      :     22.12s CPU     23.04s WALL (       1 calls)
     potinit      :      0.34s CPU      0.37s WALL (       1 calls)
     hinit0       :      0.23s CPU      0.24s WALL (       1 calls)

     Called by electrons:
     c_bands      :   1784.27s CPU   1830.02s WALL (      30 calls)
     sum_band     :    181.05s CPU    185.24s WALL (      30 calls)
     v_of_rho     :      0.57s CPU      0.71s WALL (      30 calls)
     newd         :      1.71s CPU      2.46s WALL (      30 calls)
     PAW_pot      :      7.26s CPU      7.33s WALL (      30 calls)
     mix_rho      :      0.12s CPU      0.14s WALL (      30 calls)

     Called by c_bands:
     init_us_2    :      7.08s CPU      7.27s WALL (    3100 calls)
     init_us_2:cp :      7.07s CPU      7.27s WALL (    3100 calls)
     cegterg      :   1710.94s CPU   1754.79s WALL (    1500 calls)

     Called by *egterg:
     cdiaghg      :    205.97s CPU    210.32s WALL (    9499 calls)
     h_psi        :    904.96s CPU    924.11s WALL (    9599 calls)
     s_psi        :    150.60s CPU    152.36s WALL (    9599 calls)
     g_psi        :      2.58s CPU      2.63s WALL (    8049 calls)

     Called by h_psi:
     h_psi:calbec :    150.51s CPU    152.22s WALL (    9599 calls)
     vloc_psi     :    597.76s CPU    606.31s WALL (    9599 calls)
     add_vuspsi   :    153.65s CPU    155.21s WALL (    9599 calls)

     General routines
     calbec       :    212.12s CPU    214.62s WALL (   11299 calls)
     fft          :      0.53s CPU      0.71s WALL (     342 calls)
     ffts         :      0.03s CPU      0.04s WALL (      30 calls)
     fftw         :    680.40s CPU    690.23s WALL ( 1549750 calls)
     davcio       :      0.03s CPU      8.77s WALL (      50 calls)
 
     Parallel routines
 
     PWSCF        :  33m33.40s CPU  34m52.05s WALL

 
   This run was terminated on:  18:23:59  14Feb2024            

=------------------------------------------------------------------------------=
   JOB DONE.
=------------------------------------------------------------------------------=
