MPI startup(): Warning: I_MPI_PMI_LIBRARY will be ignored since the hydra process manager was found
MPI startup(): Warning: I_MPI_PMI_LIBRARY will be ignored since the hydra process manager was found
MPI startup(): Warning: I_MPI_PMI_LIBRARY will be ignored since the hydra process manager was found
MPI startup(): Warning: I_MPI_PMI_LIBRARY will be ignored since the hydra process manager was found
MPI startup(): Warning: I_MPI_PMI_LIBRARY will be ignored since the hydra process manager was found
MPI startup(): Warning: I_MPI_PMI_LIBRARY will be ignored since the hydra process manager was found
MPI startup(): Warning: I_MPI_PMI_LIBRARY will be ignored since the hydra process manager was found
MPI startup(): Warning: I_MPI_PMI_LIBRARY will be ignored since the hydra process manager was found
MPI startup(): Warning: I_MPI_PMI_LIBRARY will be ignored since the hydra process manager was found
MPI startup(): Warning: I_MPI_PMI_LIBRARY will be ignored since the hydra process manager was found

     Program PWSCF v.7.0 starts on 15Feb2024 at 19:26:26 

     This program is part of the open-source Quantum ESPRESSO suite
     for quantum simulation of materials; please cite
         "P. Giannozzi et al., J. Phys.:Condens. Matter 21 395502 (2009);
         "P. Giannozzi et al., J. Phys.:Condens. Matter 29 465901 (2017);
         "P. Giannozzi et al., J. Chem. Phys. 152 154105 (2020);
          URL http://www.quantum-espresso.org", 
     in publications or presentations arising from this work. More details at
     http://www.quantum-espresso.org/quote

     Parallel version (MPI), running on    10 processors

     MPI processes distributed on     1 nodes
     R & G space division:  proc/nbgrp/npool/nimage =      10
     113009 MiB available memory on the printing compute node when the environment starts
 
     Reading input from GSF111R_0.0.in
Warning: card &CELL ignored
Warning: card / ignored

     Current dimensions of program PWSCF are:
     Max number of different atomic species (ntypx) = 10
     Max number of k-points (npk) =  40000
     Max angular momentum in pseudopotentials (lmaxx) =  4
     file Au.pbe-n-kjpaw_psl.1.0.0.UPF: wavefunction(s)  6S 5D renormalized
     Found identity + ( -0.5000  0.5000  0.0000) symmetry
     This is a supercell, fractional translations are disabled

     Subspace diagonalization in iterative solution of the eigenvalue problem:
     one sub-group per band group will be used
     scalapack distributed-memory algorithm (size of sub-group:  3*  3 procs)

 
     Parallelization info
     --------------------
     sticks:   dense  smooth     PW     G-vecs:    dense   smooth      PW
     Min          85      85     25                18799    18799    3045
     Max          87      87     26                18816    18816    3065
     Sum         859     859    251               188065   188065   30575
 
     Using Slab Decomposition
 


     bravais-lattice index     =            0
     lattice parameter (alat)  =       9.6360  a.u.
     unit-cell volume          =    3935.2145 (a.u.)^3
     number of atoms/cell      =           26
     number of atomic types    =            1
     number of electrons       =       286.00
     number of Kohn-Sham states=          172
     kinetic-energy cutoff     =      50.0000  Ry
     charge density cutoff     =     200.0000  Ry
     scf convergence threshold =      1.0E-06
     mixing beta               =       0.1000
     number of iterations used =            8  plain     mixing
     energy convergence thresh.=      1.0E-04
     force convergence thresh. =      1.0E-03
     Exchange-correlation= SLA  PW   PBX  PBC
                           (   1   4   3   4   0   0   0)
     nstep                     =           50


     celldm(1)=   9.635999  celldm(2)=   0.000000  celldm(3)=   0.000000
     celldm(4)=   0.000000  celldm(5)=   0.000000  celldm(6)=   0.000000

     crystal axes: (cart. coord. in units of alat)
               a(1) = (   1.000000   0.000000   0.000000 )  
               a(2) = (   0.000000   0.577350   0.000000 )  
               a(3) = (  -0.000005   0.000000   7.617966 )  

     reciprocal axes: (cart. coord. in units 2 pi/alat)
               b(1) = (  1.000000  0.000000  0.000001 )  
               b(2) = (  0.000000  1.732052  0.000000 )  
               b(3) = (  0.000000  0.000000  0.131269 )  


     PseudoPot. # 1 for Au read from file:
     ./Au.pbe-n-kjpaw_psl.1.0.0.UPF
     MD5 check sum: 4db85c736373c707a97ce4c36c2a9d23
     Pseudo is Projector augmented-wave + core cor, Zval = 11.0
     Generated using &quot;atomic&quot; code by A. Dal Corso  v.6.3
     Shape of augmentation charge: PSQ
     Using radial grid of 1279 points,  6 beta functions with: 
                l(1) =   0
                l(2) =   0
                l(3) =   1
                l(4) =   1
                l(5) =   2
                l(6) =   2
     Q(r) pseudized with 0 coefficients 


     atomic species   valence    mass     pseudopotential
        Au            11.00   196.96657     Au( 1.00)

     No symmetry found



   Cartesian axes

     site n.     atom                  positions (alat units)
         1           Au  tau(   1) = (   0.0000000   0.0000000   0.0000000  )
         2           Au  tau(   2) = (   0.9999954   0.0000000   5.6568550  )
         3           Au  tau(   3) = (   0.9999966   0.0000000   4.2426411  )
         4           Au  tau(   4) = (   0.9999976   0.0000000   2.8284275  )
         5           Au  tau(   5) = (   0.9999988   0.0000000   1.4142138  )
         6           Au  tau(   6) = (   0.3333329   0.0000000   0.4714045  )
         7           Au  tau(   7) = (   0.3333296   0.0000000   4.7140455  )
         8           Au  tau(   8) = (   0.3333308   0.0000000   3.2998319  )
         9           Au  tau(   9) = (   0.3333318   0.0000000   1.8856185  )
        10           Au  tau(  10) = (   0.6666659   0.0000000   0.9428093  )
        11           Au  tau(  11) = (   0.6666625   0.0000000   5.1854506  )
        12           Au  tau(  12) = (   0.6666637   0.0000000   3.7712367  )
        13           Au  tau(  13) = (   0.6666649   0.0000000   2.3570234  )
        14           Au  tau(  14) = (   0.8333330   0.2886749   0.4714045  )
        15           Au  tau(  15) = (   0.8333294   0.2886749   4.7140455  )
        16           Au  tau(  16) = (   0.8333306   0.2886749   3.2998319  )
        17           Au  tau(  17) = (   0.8333318   0.2886749   1.8856185  )
        18           Au  tau(  18) = (   0.1666658   0.2886749   0.9428093  )
        19           Au  tau(  19) = (   0.1666624   0.2886749   5.1854506  )
        20           Au  tau(  20) = (   0.1666636   0.2886749   3.7712367  )
        21           Au  tau(  21) = (   0.1666648   0.2886749   2.3570234  )
        22           Au  tau(  22) = (   0.5000001   0.2886749   0.0000000  )
        23           Au  tau(  23) = (   0.4999955   0.2886749   5.6568550  )
        24           Au  tau(  24) = (   0.4999965   0.2886749   4.2426411  )
        25           Au  tau(  25) = (   0.4999977   0.2886749   2.8284275  )
        26           Au  tau(  26) = (   0.4999989   0.2886749   1.4142138  )

     number of k points=    50  Gaussian smearing, width (Ry)=  0.0020
                       cart. coord. in units 2pi/alat
        k(    1) = (   0.0000000   0.0000000   0.0000000), wk =   0.0208333
        k(    2) = (   0.0000000   0.1443376   0.0000000), wk =   0.0416667
        k(    3) = (   0.0000000   0.2886753   0.0000000), wk =   0.0416667
        k(    4) = (   0.0000000   0.4330129   0.0000000), wk =   0.0416667
        k(    5) = (   0.0000000   0.5773506   0.0000000), wk =   0.0416667
        k(    6) = (   0.0000000   0.7216882   0.0000000), wk =   0.0416667
        k(    7) = (   0.0000000  -0.8660259   0.0000000), wk =   0.0208333
        k(    8) = (   0.1250000   0.0000000   0.0000001), wk =   0.0416667
        k(    9) = (   0.1250000   0.1443376   0.0000001), wk =   0.0416667
        k(   10) = (   0.1250000   0.2886753   0.0000001), wk =   0.0416667
        k(   11) = (   0.1250000   0.4330129   0.0000001), wk =   0.0416667
        k(   12) = (   0.1250000   0.5773506   0.0000001), wk =   0.0416667
        k(   13) = (   0.1250000   0.7216882   0.0000001), wk =   0.0416667
        k(   14) = (   0.1250000  -0.8660259   0.0000001), wk =   0.0416667
        k(   15) = (   0.1250000  -0.7216882   0.0000001), wk =   0.0416667
        k(   16) = (   0.1250000  -0.5773506   0.0000001), wk =   0.0416667
        k(   17) = (   0.1250000  -0.4330129   0.0000001), wk =   0.0416667
        k(   18) = (   0.1250000  -0.2886753   0.0000001), wk =   0.0416667
        k(   19) = (   0.1250000  -0.1443376   0.0000001), wk =   0.0416667
        k(   20) = (   0.2500000   0.0000000   0.0000002), wk =   0.0416667
        k(   21) = (   0.2500000   0.1443376   0.0000002), wk =   0.0416667
        k(   22) = (   0.2500000   0.2886753   0.0000002), wk =   0.0416667
        k(   23) = (   0.2500000   0.4330129   0.0000002), wk =   0.0416667
        k(   24) = (   0.2500000   0.5773506   0.0000002), wk =   0.0416667
        k(   25) = (   0.2500000   0.7216882   0.0000002), wk =   0.0416667
        k(   26) = (   0.2500000  -0.8660259   0.0000002), wk =   0.0416667
        k(   27) = (   0.2500000  -0.7216882   0.0000002), wk =   0.0416667
        k(   28) = (   0.2500000  -0.5773506   0.0000002), wk =   0.0416667
        k(   29) = (   0.2500000  -0.4330129   0.0000002), wk =   0.0416667
        k(   30) = (   0.2500000  -0.2886753   0.0000002), wk =   0.0416667
        k(   31) = (   0.2500000  -0.1443376   0.0000002), wk =   0.0416667
        k(   32) = (   0.3750000   0.0000000   0.0000002), wk =   0.0416667
        k(   33) = (   0.3750000   0.1443376   0.0000002), wk =   0.0416667
        k(   34) = (   0.3750000   0.2886753   0.0000002), wk =   0.0416667
        k(   35) = (   0.3750000   0.4330129   0.0000002), wk =   0.0416667
        k(   36) = (   0.3750000   0.5773506   0.0000002), wk =   0.0416667
        k(   37) = (   0.3750000   0.7216882   0.0000002), wk =   0.0416667
        k(   38) = (   0.3750000  -0.8660259   0.0000002), wk =   0.0416667
        k(   39) = (   0.3750000  -0.7216882   0.0000002), wk =   0.0416667
        k(   40) = (   0.3750000  -0.5773506   0.0000002), wk =   0.0416667
        k(   41) = (   0.3750000  -0.4330129   0.0000002), wk =   0.0416667
        k(   42) = (   0.3750000  -0.2886753   0.0000002), wk =   0.0416667
        k(   43) = (   0.3750000  -0.1443376   0.0000002), wk =   0.0416667
        k(   44) = (  -0.5000000   0.0000000  -0.0000003), wk =   0.0208333
        k(   45) = (  -0.5000000   0.1443376  -0.0000003), wk =   0.0416667
        k(   46) = (  -0.5000000   0.2886753  -0.0000003), wk =   0.0416667
        k(   47) = (  -0.5000000   0.4330129  -0.0000003), wk =   0.0416667
        k(   48) = (  -0.5000000   0.5773506  -0.0000003), wk =   0.0416667
        k(   49) = (  -0.5000000   0.7216882  -0.0000003), wk =   0.0416667
        k(   50) = (  -0.5000000  -0.8660259  -0.0000003), wk =   0.0208333

     Dense  grid:   188065 G-vectors     FFT dimensions: (  45,  25, 360)

     Estimated max dynamical RAM per process >     418.32 MB

     Estimated total dynamical RAM >       4.09 GB

     Initial potential from superposition of free atoms

     starting charge     285.9971, renormalised to     286.0000

     negative rho (up, down):  2.179E-03 0.000E+00
     Starting wfcs are  234 randomized atomic wfcs
     Checking if some PAW data can be deallocated... 

     total cpu time spent up to now is       29.1 secs

     Self-consistent Calculation

     iteration #  1     ecut=    50.00 Ry     beta= 0.10
     Davidson diagonalization with overlap
     ethr =  1.00E-02,  avg # of iterations =  4.9

     Threshold (ethr) on eigenvalues was too large:
     Diagonalizing with lowered threshold

     Davidson diagonalization with overlap
     ethr =  3.96E-04,  avg # of iterations =  4.6

     negative rho (up, down):  2.046E-03 0.000E+00

     total cpu time spent up to now is      197.6 secs

     total energy              =  -20153.66808897 Ry
     estimated scf accuracy    <       1.44944647 Ry

     iteration #  2     ecut=    50.00 Ry     beta= 0.10
     Davidson diagonalization with overlap
     ethr =  5.07E-04,  avg # of iterations =  5.7

     negative rho (up, down):  2.046E-03 0.000E+00

     total cpu time spent up to now is      266.3 secs

     total energy              =  -20153.56339989 Ry
     estimated scf accuracy    <      12.16009113 Ry

     iteration #  3     ecut=    50.00 Ry     beta= 0.10
     Davidson diagonalization with overlap
     ethr =  5.07E-04,  avg # of iterations =  1.8

     negative rho (up, down):  1.974E-03 0.000E+00

     total cpu time spent up to now is      322.7 secs

     total energy              =  -20153.56698020 Ry
     estimated scf accuracy    <       1.06434542 Ry

     iteration #  4     ecut=    50.00 Ry     beta= 0.10
     Davidson diagonalization with overlap
     ethr =  3.72E-04,  avg # of iterations =  1.1

     negative rho (up, down):  1.856E-03 0.000E+00

     total cpu time spent up to now is      374.3 secs

     total energy              =  -20153.38653148 Ry
     estimated scf accuracy    <       0.82502339 Ry

     iteration #  5     ecut=    50.00 Ry     beta= 0.10
     Davidson diagonalization with overlap
     ethr =  2.88E-04,  avg # of iterations =  7.8

     negative rho (up, down):  1.814E-03 0.000E+00

     total cpu time spent up to now is      448.6 secs

     total energy              =  -20153.34088141 Ry
     estimated scf accuracy    <      13.99167483 Ry

     iteration #  6     ecut=    50.00 Ry     beta= 0.10
     Davidson diagonalization with overlap
     ethr =  2.88E-04,  avg # of iterations =  2.9

     negative rho (up, down):  1.841E-03 0.000E+00

     total cpu time spent up to now is      509.1 secs

     total energy              =  -20153.49012102 Ry
     estimated scf accuracy    <       0.04767826 Ry

     iteration #  7     ecut=    50.00 Ry     beta= 0.10
     Davidson diagonalization with overlap
     c_bands:  1 eigenvalues not converged
     c_bands:  1 eigenvalues not converged
     c_bands:  4 eigenvalues not converged
     c_bands:  1 eigenvalues not converged
     c_bands:  1 eigenvalues not converged
     c_bands:  1 eigenvalues not converged
     c_bands:  1 eigenvalues not converged
     c_bands:  1 eigenvalues not converged
     c_bands:  1 eigenvalues not converged
     c_bands:  1 eigenvalues not converged
     c_bands:  1 eigenvalues not converged
     c_bands:  1 eigenvalues not converged
     c_bands:  2 eigenvalues not converged
     c_bands:  2 eigenvalues not converged
     ethr =  1.67E-05,  avg # of iterations = 16.3

     negative rho (up, down):  1.856E-03 0.000E+00

     total cpu time spent up to now is      659.3 secs

     total energy              =  -20153.51622696 Ry
     estimated scf accuracy    <       0.04387770 Ry

     iteration #  8     ecut=    50.00 Ry     beta= 0.10
     Davidson diagonalization with overlap
     ethr =  1.53E-05,  avg # of iterations =  2.5

     negative rho (up, down):  1.853E-03 0.000E+00

     total cpu time spent up to now is      719.0 secs

     total energy              =  -20153.51857354 Ry
     estimated scf accuracy    <       0.02352097 Ry

     iteration #  9     ecut=    50.00 Ry     beta= 0.10
     Davidson diagonalization with overlap
     ethr =  8.22E-06,  avg # of iterations =  1.1

     negative rho (up, down):  1.942E-03 0.000E+00

     total cpu time spent up to now is      771.2 secs

     total energy              =  -20153.51877576 Ry
     estimated scf accuracy    <       0.02558994 Ry

     iteration # 10     ecut=    50.00 Ry     beta= 0.10
     Davidson diagonalization with overlap
     ethr =  8.22E-06,  avg # of iterations =  4.7

     negative rho (up, down):  1.950E-03 0.000E+00

     total cpu time spent up to now is      836.3 secs

     total energy              =  -20153.51556563 Ry
     estimated scf accuracy    <       0.01425214 Ry

     iteration # 11     ecut=    50.00 Ry     beta= 0.10
     Davidson diagonalization with overlap
     ethr =  4.98E-06,  avg # of iterations =  1.3

     negative rho (up, down):  1.956E-03 0.000E+00

     total cpu time spent up to now is      891.0 secs

     total energy              =  -20153.51454162 Ry
     estimated scf accuracy    <       0.00588199 Ry

     iteration # 12     ecut=    50.00 Ry     beta= 0.10
     Davidson diagonalization with overlap
     ethr =  2.06E-06,  avg # of iterations =  4.2

     negative rho (up, down):  1.972E-03 0.000E+00

     total cpu time spent up to now is      953.6 secs

     total energy              =  -20153.51414216 Ry
     estimated scf accuracy    <       0.00297515 Ry

     iteration # 13     ecut=    50.00 Ry     beta= 0.10
     Davidson diagonalization with overlap
     ethr =  1.04E-06,  avg # of iterations =  2.0

     negative rho (up, down):  1.977E-03 0.000E+00

     total cpu time spent up to now is     1016.6 secs

     total energy              =  -20153.51448575 Ry
     estimated scf accuracy    <       0.00405287 Ry

     iteration # 14     ecut=    50.00 Ry     beta= 0.10
     Davidson diagonalization with overlap
     ethr =  1.04E-06,  avg # of iterations =  1.2

     negative rho (up, down):  1.977E-03 0.000E+00

     total cpu time spent up to now is     1069.4 secs

     total energy              =  -20153.51454019 Ry
     estimated scf accuracy    <       0.00017594 Ry

     iteration # 15     ecut=    50.00 Ry     beta= 0.10
     Davidson diagonalization with overlap
     ethr =  6.15E-08,  avg # of iterations =  7.0

     negative rho (up, down):  1.976E-03 0.000E+00

     total cpu time spent up to now is     1228.7 secs

     total energy              =  -20153.51478813 Ry
     estimated scf accuracy    <       0.00019852 Ry

     iteration # 16     ecut=    50.00 Ry     beta= 0.10
     Davidson diagonalization with overlap
     ethr =  6.15E-08,  avg # of iterations =  1.7

     negative rho (up, down):  1.971E-03 0.000E+00

     total cpu time spent up to now is     1285.5 secs

     total energy              =  -20153.51472799 Ry
     estimated scf accuracy    <       0.00018926 Ry

     iteration # 17     ecut=    50.00 Ry     beta= 0.10
     Davidson diagonalization with overlap
     ethr =  6.15E-08,  avg # of iterations =  2.0

     negative rho (up, down):  1.973E-03 0.000E+00

     total cpu time spent up to now is     1360.4 secs

     total energy              =  -20153.51476650 Ry
     estimated scf accuracy    <       0.00006385 Ry

     iteration # 18     ecut=    50.00 Ry     beta= 0.10
     Davidson diagonalization with overlap
     ethr =  2.23E-08,  avg # of iterations =  1.1

     negative rho (up, down):  1.975E-03 0.000E+00

     total cpu time spent up to now is     1412.3 secs

     total energy              =  -20153.51476323 Ry
     estimated scf accuracy    <       0.00001795 Ry

     iteration # 19     ecut=    50.00 Ry     beta= 0.10
     Davidson diagonalization with overlap
     ethr =  6.28E-09,  avg # of iterations =  2.0

     negative rho (up, down):  1.977E-03 0.000E+00

     total cpu time spent up to now is     1486.3 secs

     total energy              =  -20153.51476922 Ry
     estimated scf accuracy    <       0.00000278 Ry

     iteration # 20     ecut=    50.00 Ry     beta= 0.10
     Davidson diagonalization with overlap
     ethr =  9.72E-10,  avg # of iterations =  6.1

     negative rho (up, down):  1.977E-03 0.000E+00

     total cpu time spent up to now is     1619.8 secs

     total energy              =  -20153.51477143 Ry
     estimated scf accuracy    <       0.00001151 Ry

     iteration # 21     ecut=    50.00 Ry     beta= 0.10
     Davidson diagonalization with overlap
     ethr =  9.72E-10,  avg # of iterations =  1.0

     negative rho (up, down):  1.977E-03 0.000E+00

     total cpu time spent up to now is     1672.2 secs

     total energy              =  -20153.51476876 Ry
     estimated scf accuracy    <       0.00000707 Ry

     iteration # 22     ecut=    50.00 Ry     beta= 0.10
     Davidson diagonalization with overlap
     ethr =  9.72E-10,  avg # of iterations =  2.0

     negative rho (up, down):  1.977E-03 0.000E+00

     total cpu time spent up to now is     1743.8 secs

     total energy              =  -20153.51476891 Ry
     estimated scf accuracy    <       0.00000153 Ry

     iteration # 23     ecut=    50.00 Ry     beta= 0.10
     Davidson diagonalization with overlap
     ethr =  5.35E-10,  avg # of iterations =  3.6

     negative rho (up, down):  1.978E-03 0.000E+00

     total cpu time spent up to now is     1833.4 secs

     total energy              =  -20153.51476941 Ry
     estimated scf accuracy    <       0.00000225 Ry

     iteration # 24     ecut=    50.00 Ry     beta= 0.10
     Davidson diagonalization with overlap
     ethr =  5.35E-10,  avg # of iterations =  1.0

     negative rho (up, down):  1.979E-03 0.000E+00

     total cpu time spent up to now is     1885.3 secs

     total energy              =  -20153.51476966 Ry
     estimated scf accuracy    <       0.00000180 Ry

     iteration # 25     ecut=    50.00 Ry     beta= 0.10
     Davidson diagonalization with overlap
     ethr =  5.35E-10,  avg # of iterations =  1.0

     negative rho (up, down):  1.979E-03 0.000E+00

     total cpu time spent up to now is     1937.6 secs

     End of self-consistent calculation

          k = 0.0000 0.0000 0.0000 ( 23605 PWs)   bands (ev):

     1.5105   1.6557   1.8878   2.1946   2.5535   2.9455   3.3225   3.6271
     3.8140   3.8995   3.9231   3.9639   4.0721   4.0767   4.0768   4.2118
     4.2382   4.2930   4.4111   4.4353   4.4957   4.5423   4.5734   4.6074
     4.6640   4.7055   4.7079   4.8837   4.9827   5.0038   5.1599   5.4426
     5.7339   5.9476   6.0650   6.1672   6.1688   6.1696   6.2529   6.2539
     6.2556   6.3227   6.3239   6.3240   6.3250   6.3303   6.3409   6.3581
     6.3594   6.3598   6.3601   6.3605   6.4124   6.4129   6.4140   6.4153
     6.4322   6.4805   6.4817   6.4857   6.4861   6.4869   6.5399   6.5408
     6.5588   6.5599   6.5788   6.5894   6.5906   6.5981   6.5993   6.7312
     6.7428   6.7723   6.7824   6.8724   6.8726   6.8727   6.8730   7.0007
     7.0646   7.1377   7.1677   7.2655   7.4916   7.5523   7.5767   7.6733
     7.6743   7.6746   7.6755   7.7013   7.7020   7.7157   7.7175   7.7732
     7.7742   7.7955   7.8464   7.8651   7.8657   7.9549   8.0009   8.0012
     8.0470   8.1273   8.1700   8.1709   8.3482   8.3486   8.3830   8.3923
     8.4893   8.5220   8.5222   8.5655   8.5826   8.6677   8.6678   8.7021
     8.7052   8.7465   8.7639   8.7640   8.7960   8.7968   8.7993   8.8081
     8.8234   8.8405   8.8471   8.8668   8.8880   8.9120   8.9466   8.9832
     9.0267   9.0294   9.0685   9.2219   9.2222   9.4050  10.2066  10.5082
    10.5637  10.6302  10.9348  11.2445  11.4729  11.6282  11.7319  11.8030
    11.8548  11.8927  11.9194  12.1246  12.1248  13.5636  13.7384  13.9349
    14.0059  14.2921  14.5559  14.8695  14.8904  15.0793  15.3566  15.9025
    16.1921  16.3808  16.4740  16.5735

          k = 0.0000 0.1443 0.0000 ( 23551 PWs)   bands (ev):

     1.6632   1.8071   2.0374   2.3421   2.6992   3.0905   3.4678   3.7714
     3.9531   4.0309   4.0497   4.0884   4.1949   4.2123   4.2125   4.3078
     4.3600   4.3949   4.5239   4.5608   4.5813   4.6501   4.6704   4.7437
     4.7697   4.8057   4.8538   4.9441   5.1028   5.1286   5.2166   5.4749
     5.7376   5.9018   6.0010   6.0494   6.0516   6.1020   6.1416   6.1478
     6.1811   6.2267   6.2473   6.2528   6.2555   6.2863   6.3426   6.3485
     6.3983   6.3994   6.4164   6.4202   6.4253   6.4259   6.4535   6.4734
     6.4767   6.4879   6.4888   6.5101   6.5449   6.5561   6.5705   6.5743
     6.5865   6.6018   6.6209   6.6234   6.6381   6.6392   6.6393   6.6691
     6.6869   6.6890   6.7936   6.8042   6.8412   6.8570   6.9489   6.9575
     6.9697   6.9721   7.1366   7.2435   7.3426   7.3557   7.4307   7.5018
     7.5034   7.5828   7.5846   7.5961   7.6576   7.6923   7.7401   7.7478
     7.7599   7.7725   7.7757   7.8096   7.8204   7.9185   7.9195   7.9240
     8.0582   8.0715   8.0829   8.0981   8.1299   8.2049   8.2580   8.2732
     8.3867   8.3905   8.4340   8.4788   8.4800   8.5105   8.5365   8.5863
     8.6152   8.6418   8.6446   8.6736   8.7074   8.7126   8.7411   8.7412
     8.7559   8.7728   8.7836   8.8085   8.8480   8.8739   8.8903   8.9359
     8.9490   9.0144   9.0667   9.0680   9.3920  10.0524  10.8520  10.9169
    11.0711  11.1104  11.3150  11.5224  11.6814  11.8028  11.9048  12.0042
    12.1142  12.2407  12.3796  12.5087  12.5370  13.5684  13.7784  13.9657
    14.0824  14.3856  14.6616  14.9316  15.0258  15.1883  15.5187  16.0693
    16.0913  16.4710  16.5415  16.6230

          k = 0.0000 0.2887 0.0000 ( 23495 PWs)   bands (ev):

     2.1060   2.2448   2.4671   2.7621   3.1099   3.4944   3.8696   4.1696
     4.3349   4.3910   4.3981   4.4289   4.5214   4.5236   4.5857   4.5861
     4.6164   4.6749   4.7660   4.8723   4.8735   4.9315   4.9526   5.0259
     5.0906   5.1381   5.1574   5.2483   5.3254   5.4114   5.4844   5.6085
     5.7399   5.7687   5.8054   5.8084   5.8722   5.9117   5.9191   5.9555
     6.0118   6.0273   6.0390   6.0456   6.0566   6.0940   6.1367   6.1642
     6.1711   6.2177   6.2751   6.2892   6.3793   6.4087   6.4544   6.4919
     6.5428   6.5495   6.5750   6.6072   6.6264   6.6300   6.6501   6.6653
     6.6790   6.6937   6.6946   6.7133   6.7141   6.7247   6.7640   6.7758
     6.8198   6.8255   6.8298   6.8309   6.8646   6.9143   6.9284   6.9579
     6.9767   6.9789   7.0462   7.0965   7.1152   7.2003   7.2125   7.2296
     7.2923   7.3340   7.3699   7.3776   7.3803   7.4059   7.4619   7.4721
     7.5300   7.5530   7.6095   7.6814   7.7122   7.7757   7.7931   7.8067
     7.8545   7.9048   7.9302   7.9541   7.9566   7.9678   8.0307   8.0699
     8.1388   8.1788   8.2198   8.2627   8.3079   8.3293   8.3558   8.4452
     8.5141   8.5184   8.5208   8.5577   8.5812   8.6154   8.6186   8.6686
     8.6923   8.7155   8.7207   8.7390   8.7878   8.7880   8.8884   8.9302
     8.9527   8.9630   9.1312   9.5809  10.1688  10.8996  11.7428  11.9697
    11.9701  11.9980  12.0460  12.1235  12.1584  12.2277  12.3611  12.5258
    12.7240  12.9420  13.1660  13.3840  13.6206  13.6565  14.0155  14.1107
    14.4001  14.7096  14.9809  15.1505  15.4317  15.5176  15.6585  16.0467
    16.1749  16.6803  16.7506  16.7508

          k = 0.0000 0.4330 0.0000 ( 23423 PWs)   bands (ev):

     2.7905   2.9151   3.1147   3.3798   3.6940   4.0465   4.4030   4.6991
     4.7715   4.8455   4.8628   4.8776   4.8778   4.8873   4.9266   5.0007
     5.0073   5.0780   5.0791   5.1120   5.1895   5.2560   5.3322   5.3742
     5.3758   5.4098   5.4411   5.5156   5.5621   5.5632   5.5743   5.6079
     5.6669   5.6952   5.6989   5.7689   5.7712   5.7923   5.8024   5.8051
     5.8142   5.8253   5.8264   5.8350   5.8738   5.9133   5.9225   5.9339
     5.9685   6.0695   6.0776   6.0784   6.0920   6.2005   6.2908   6.3110
     6.3246   6.3459   6.4532   6.4877   6.5436   6.5579   6.5668   6.6333
     6.6571   6.6732   6.6735   6.6972   6.7194   6.7522   6.7589   6.7625
     6.7663   6.7675   6.8226   6.8882   6.8906   6.9746   6.9993   7.0831
     7.1257   7.1296   7.1583   7.1830   7.1915   7.2664   7.2807   7.3350
     7.3555   7.3799   7.3900   7.4000   7.4048   7.4101   7.4327   7.4522
     7.5026   7.5073   7.5238   7.5519   7.5708   7.6205   7.6249   7.6950
     7.7568   7.8207   7.8259   7.8441   7.9054   7.9096   7.9911   8.0088
     8.0227   8.0497   8.0904   8.1584   8.1625   8.2940   8.3880   8.3920
     8.4121   8.4483   8.5207   8.5267   8.5346   8.5626   8.6160   8.6481
     8.6624   8.6627   8.6853   8.7236   8.7597   8.7947   8.8249   8.8362
     8.8402   9.2240   9.6861  10.2427  10.9099  11.6908  12.5170  12.5204
    12.5729  12.6497  12.6600  12.8608  12.8920  13.1335  13.2188  13.4297
    13.5373  13.5427  13.8868  13.9974  14.3153  14.3394  14.4840  14.5381
    14.8615  15.2887  15.3331  15.5197  15.6055  15.6503  16.0267  16.0760
    16.0810  16.5130  16.6780  17.0897

          k = 0.0000 0.5774 0.0000 ( 23470 PWs)   bands (ev):

     3.6238   3.7143   3.8576   4.0454   4.2664   4.5156   4.7808   5.0360
     5.0364   5.0382   5.0440   5.1166   5.1172   5.1200   5.2389   5.2390
     5.2422   5.2448   5.2930   5.3300   5.3700   5.3702   5.3760   5.4068
     5.4289   5.4463   5.4560   5.5295   5.5329   5.5497   5.5541   5.5620
     5.5620   5.6028   5.6487   5.6754   5.6756   5.6767   5.7197   5.7440
     5.7443   5.7473   5.7767   5.8006   5.8007   5.8207   5.8330   5.9717
     5.9717   6.0026   6.0556   6.0765   6.1539   6.2225   6.2536   6.3295
     6.3298   6.3416   6.3442   6.4051   6.4051   6.4166   6.4302   6.4699
     6.4945   6.4947   6.5081   6.5151   6.5382   6.5642   6.5932   6.5933
     6.5933   6.5997   6.9837   6.9941   7.0047   7.0519   7.0519   7.0552
     7.0567   7.0567   7.1625   7.1927   7.2650   7.3442   7.4451   7.5109
     7.5113   7.5127   7.5297   7.5412   7.5488   7.5492   7.5726   7.5765
     7.5989   7.5990   7.6101   7.6480   7.6895   7.7870   7.7948   7.8272
     7.8273   7.9457   8.0271   8.0570   8.1948   8.1987   8.2502   8.3760
     8.4071   8.4112   8.4357   8.4553   8.4564   8.4568   8.4576   8.4970
     8.5374   8.5575   8.5645   8.5656   8.5701   8.6010   8.6300   8.6489
     8.6633   8.6641   8.6874   8.7026   8.7152   8.7158   8.7219   8.8464
     9.2829   9.7824  10.3451  10.9793  11.6898  12.4716  13.1228  13.1268
    13.1273  13.2841  13.2886  13.2888  13.2892  13.5265  13.5266  13.5333
    13.7614  13.7614  13.8610  13.9647  14.7942  14.9222  14.9225  15.0286
    15.3353  15.3353  15.3838  15.5434  15.8786  15.8789  16.1579  16.3413
    16.4754  16.4758  16.8648  16.9045

          k = 0.0000 0.7217 0.0000 ( 23446 PWs)   bands (ev):

     4.4466   4.4623   4.4928   4.5439   4.6202   4.7237   4.8523   4.8864
     4.8873   4.9669   4.9674   4.9987   5.0815   5.0861   5.1515   5.1927
     5.1984   5.2113   5.2475   5.2551   5.2849   5.2851   5.3644   5.3669
     5.4311   5.4431   5.5005   5.5366   5.5763   5.5800   5.6180   5.6198
     5.6206   5.6326   5.6600   5.6629   5.7132   5.7261   5.7396   5.7616
     5.7712   5.7838   5.7931   5.8066   5.8091   5.8234   5.8749   5.9288
     6.0285   6.0658   6.1211   6.1524   6.1703   6.2005   6.2356   6.2369
     6.2845   6.2914   6.3068   6.3278   6.3507   6.3669   6.3737   6.4006
     6.4266   6.4412   6.4534   6.4937   6.5860   6.6220   6.7139   6.7146
     6.7193   6.7264   6.9754   6.9766   7.0172   7.0179   7.1378   7.1464
     7.1767   7.1767   7.1769   7.2198   7.3235   7.3578   7.3848   7.4153
     7.4349   7.4460   7.4816   7.5015   7.5356   7.6211   7.6278   7.6322
     7.6584   7.6825   7.6982   7.7046   7.7896   7.8335   7.8585   7.8645
     7.9059   8.0581   8.1058   8.1244   8.2489   8.3030   8.3933   8.5307
     8.5774   8.6371   8.6675   8.6796   8.6836   8.6840   8.7187   8.7328
     8.7417   8.7418   8.7610   8.7700   8.8041   8.8137   8.8881   8.8976
     8.9368   8.9413   9.3370   9.3431   9.3618   9.4312   9.5594   9.8092
    10.2214  10.7471  11.3448  11.6931  11.8086  12.0006  12.0027  12.2745
    12.6177  12.7029  13.0301  13.4357  13.4720  13.8190  13.9255  14.0073
    14.1324  14.1521  14.3138  14.4497  14.6578  14.7274  15.0425  15.1016
    15.5549  15.5998  16.0601  16.1355  16.1786  16.2696  16.4600  16.6106
    16.7161  16.8053  17.0909  17.1188

          k = 0.0000-0.8660 0.0000 ( 23420 PWs)   bands (ev):

     4.7556   4.7557   4.7562   4.7563   4.8275   4.8275   4.8309   4.8309
     4.9319   4.9319   4.9351   4.9352   5.0300   5.0300   5.0370   5.0371
     5.1163   5.1164   5.1828   5.1829   5.2542   5.2543   5.2545   5.2546
     5.4669   5.4670   5.4709   5.4709   5.5342   5.5342   5.5643   5.5643
     5.6341   5.6342   5.6745   5.6746   5.7742   5.7743   5.7804   5.7804
     5.8782   5.8782   5.9039   5.9040   5.9285   5.9286   5.9823   5.9824
     6.0127   6.0127   6.0544   6.0544   6.1151   6.1151   6.1593   6.1593
     6.1958   6.1959   6.2508   6.2509   6.3963   6.3964   6.4003   6.4003
     6.5408   6.5408   6.5763   6.5763   6.6658   6.6658   6.6876   6.6877
     6.9877   6.9877   6.9896   6.9896   7.0317   7.0318   7.0339   7.0340
     7.2223   7.2224   7.2771   7.2772   7.3119   7.3119   7.3410   7.3411
     7.3836   7.3837   7.4757   7.4757   7.6269   7.6269   7.6274   7.6274
     7.7123   7.7124   7.7478   7.7479   7.7610   7.7610   7.8623   7.8624
     7.9278   7.9279   8.0261   8.0262   8.2034   8.2035   8.4340   8.4341
     8.6474   8.6475   8.7987   8.7989   8.8258   8.8259   8.8382   8.8383
     8.8655   8.8656   8.8759   8.8761   8.9464   8.9466   9.0304   9.0305
     9.0769   9.0770  10.4100  10.4100  10.4570  10.4570  10.5520  10.5520
    10.7120  10.7120  10.9508  10.9508  11.2919  11.2919  11.7295  11.7295
    12.2458  12.2459  12.8161  12.8161  13.4187  13.4187  14.0214  14.0215
    14.5851  14.5851  15.0230  15.0231  15.7211  15.7212  15.7296  15.7296
    15.9033  15.9033  15.9446  15.9446  16.1700  16.1701  16.2507  16.2507
    16.5132  16.5134  16.6011  16.6012

          k = 0.1250 0.0000 0.0000 ( 23563 PWs)   bands (ev):

     1.6253   1.7695   2.0003   2.3056   2.6632   3.0547   3.4320   3.7359
     3.9190   3.9606   3.9987   4.0187   4.0687   4.1788   4.1790   4.2340
     4.2551   4.3304   4.4260   4.4445   4.5417   4.5557   4.6079   4.6209
     4.6592   4.7506   4.7764   4.9265   5.0110   5.0394   5.1943   5.4687
     5.7451   5.9417   6.0661   6.0888   6.0947   6.1577   6.1822   6.2029
     6.2640   6.2671   6.2862   6.2876   6.3059   6.3429   6.3591   6.3598
     6.3660   6.3676   6.3922   6.4030   6.4060   6.4278   6.4316   6.4559
     6.4586   6.4788   6.4841   6.4841   6.5373   6.5423   6.5514   6.5819
     6.6003   6.6047   6.6093   6.6146   6.6199   6.6275   6.6576   6.6675
     6.6766   6.7907   6.8066   6.8227   6.8514   6.9356   6.9360   6.9416
     6.9997   7.0150   7.1047   7.2745   7.3781   7.4337   7.4990   7.5228
     7.5276   7.5547   7.5988   7.6070   7.6796   7.6946   7.7410   7.7579
     7.8036   7.8133   7.8256   7.8407   7.8806   7.8840   7.9399   7.9527
     8.0117   8.1120   8.1267   8.1772   8.2024   8.2386   8.3411   8.3536
     8.3558   8.4065   8.4872   8.5272   8.5440   8.5839   8.6033   8.6608
     8.6730   8.6869   8.6996   8.7090   8.7237   8.7320   8.7563   8.7696
     8.7846   8.8035   8.8138   8.8392   8.8428   8.8578   8.8942   8.8949
     8.9547   9.0097   9.1244   9.1254   9.2842   9.3440   9.6666   9.9387
     9.9475  10.1368  10.2184  10.3371  10.6929  10.8253  11.0009  11.2728
    11.9562  12.6644  13.2783  13.4560  13.5358  13.6711  13.9262  13.9573
    14.2266  14.5253  14.8410  14.9155  15.1610  15.2164  15.5776  15.8927
    16.3688  16.4464  16.5433  16.9266

          k = 0.1250 0.1443 0.0000 ( 23537 PWs)   bands (ev):

     1.7760   1.9188   2.1475   2.4502   2.8056   3.1958   3.5730   3.8757
     4.0533   4.0872   4.1253   4.1414   4.1934   4.3101   4.3103   4.3521
     4.3579   4.4339   4.5483   4.5628   4.6256   4.6826   4.6981   4.7497
     4.7950   4.8187   4.9098   4.9862   5.1301   5.1653   5.2437   5.4930
     5.7275   5.8888   5.9510   6.0083   6.0400   6.0493   6.1085   6.1366
     6.1726   6.1956   6.2155   6.2236   6.2378   6.2561   6.2799   6.3023
     6.3628   6.3682   6.4230   6.4286   6.4580   6.4682   6.4811   6.4851
     6.4896   6.5145   6.5212   6.5228   6.5485   6.5761   6.5891   6.6022
     6.6124   6.6208   6.6429   6.6553   6.6650   6.6666   6.6921   6.7074
     6.7402   6.7471   6.7571   6.7653   6.8200   6.8841   6.8853   6.9192
     7.0165   7.0176   7.1171   7.1773   7.1911   7.2360   7.4014   7.4366
     7.4448   7.5254   7.5436   7.5491   7.5558   7.5793   7.6344   7.6645
     7.7147   7.7435   7.7587   7.8184   7.8258   7.8538   7.8607   7.8807
     7.9084   7.9939   8.0292   8.0370   8.1407   8.1414   8.2204   8.2454
     8.2779   8.3283   8.3591   8.3729   8.3989   8.4670   8.5103   8.5298
     8.5383   8.5396   8.5840   8.5929   8.6339   8.6619   8.6661   8.6987
     8.7099   8.7495   8.7582   8.7674   8.7998   8.8016   8.8382   8.9112
     8.9789   9.0397   9.0720   9.1262   9.6452   9.9813  10.1420  10.3094
    10.3284  10.4417  10.5695  10.7942  11.1634  11.1771  11.4103  11.7086
    12.3378  13.0050  13.4725  13.5588  13.6621  13.7400  13.9943  14.0174
    14.3334  14.6322  14.9461  14.9817  15.2704  15.3421  15.6870  15.9269
    16.4166  16.5365  16.6469  16.9694

          k = 0.1250 0.2887 0.0000 ( 23467 PWs)   bands (ev):

     2.2110   2.3480   2.5675   2.8586   3.2019   3.5818   3.9528   4.2476
     4.4033   4.4304   4.4533   4.4854   4.5236   4.5609   4.6513   4.6622
     4.6628   4.6727   4.7902   4.8672   4.9160   4.9522   4.9815   5.0801
     5.0857   5.1215   5.2134   5.2532   5.3419   5.4195   5.4830   5.5992
     5.6695   5.6994   5.7797   5.8265   5.8689   5.9210   5.9227   5.9734
     5.9789   6.0168   6.0475   6.0560   6.0611   6.0733   6.0978   6.1028
     6.1374   6.2005   6.2334   6.2996   6.3386   6.4005   6.4779   6.5140
     6.5395   6.5738   6.5787   6.5964   6.6055   6.6225   6.6441   6.6688
     6.6769   6.7238   6.7435   6.7448   6.7481   6.7617   6.7836   6.7947
     6.8385   6.8528   6.8528   6.8705   6.8881   6.8963   6.9137   6.9745
     6.9892   7.0209   7.0235   7.0334   7.0529   7.1154   7.1744   7.1929
     7.2229   7.2281   7.2663   7.2751   7.3553   7.3634   7.4073   7.4879
     7.4931   7.5423   7.5877   7.6147   7.6792   7.6807   7.7596   7.7830
     7.7941   7.7996   7.8463   7.8616   7.9403   7.9503   7.9929   8.0550
     8.1009   8.1236   8.1569   8.1966   8.2207   8.2321   8.2687   8.2754
     8.3352   8.3694   8.4378   8.5044   8.5402   8.6616   8.6733   8.6952
     8.7611   8.7764   8.7847   8.7879   8.8238   8.8347   8.9115   8.9519
     9.0205   9.0652   9.1855   9.6862  10.2997  10.7453  10.8177  10.9315
    11.0422  11.0975  11.3339  11.6668  11.8950  12.0984  12.3688  12.6195
    13.2116  13.5924  13.7192  13.8373  13.9530  14.1592  14.1988  14.4451
    14.6899  14.9692  15.2097  15.2853  15.6033  15.6139  15.8961  16.1081
    16.4198  16.8097  16.9129  16.9699

          k = 0.1250 0.4330 0.0000 ( 23435 PWs)   bands (ev):

     2.8735   2.9950   3.1890   3.4454   3.7469   4.0814   4.4124   4.6666
     4.7758   4.7846   4.8340   4.8579   4.8710   4.8981   4.9540   4.9905
     5.0026   5.0964   5.1015   5.1048   5.1505   5.2251   5.2683   5.3556
     5.3708   5.3741   5.3934   5.4330   5.4849   5.5183   5.6212   5.6241
     5.6562   5.7102   5.7420   5.7544   5.7636   5.7668   5.7909   5.7987
     5.8374   5.8472   5.8692   5.8773   5.9400   5.9446   5.9573   5.9882
     6.0230   6.0465   6.0628   6.0866   6.2188   6.2630   6.2899   6.3674
     6.4096   6.4292   6.4763   6.5017   6.5439   6.5441   6.5750   6.6000
     6.6320   6.6405   6.6567   6.6676   6.6877   6.7032   6.7206   6.7465
     6.7649   6.7977   6.8587   6.8989   6.9624   6.9692   7.0027   7.0390
     7.1385   7.1561   7.1783   7.2007   7.2049   7.2394   7.2553   7.2867
     7.3089   7.3238   7.3398   7.3471   7.4046   7.4132   7.4398   7.4823
     7.4958   7.5372   7.5438   7.5503   7.6043   7.6243   7.6336   7.6423
     7.6642   7.7236   7.8076   7.8154   7.8540   7.9240   7.9302   7.9408
     7.9903   8.0451   8.0790   8.0935   8.1588   8.1916   8.2044   8.2854
     8.3580   8.4452   8.4945   8.5145   8.6332   8.6466   8.6887   8.7324
     8.7407   8.7525   8.7811   8.7863   8.8050   8.8280   8.8616   8.9440
     8.9922   9.2283   9.7264  10.3093  10.9873  11.3658  11.4625  11.6302
    11.7697  11.8727  12.1901  12.5885  12.6506  13.0503  13.5363  13.5697
    13.7761  13.9554  14.2025  14.2775  14.5439  14.6133  14.6477  14.7805
    15.1626  15.2638  15.5154  15.6680  15.6686  15.8885  16.1301  16.1732
    16.3531  16.6586  16.8714  17.2422

          k = 0.1250 0.5774 0.0000 ( 23447 PWs)   bands (ev):

     3.6407   3.7336   3.8770   4.0574   4.2577   4.4717   4.6866   4.8401
     4.8609   4.9282   4.9446   4.9608   5.0014   5.0626   5.0648   5.0744
     5.1220   5.1310   5.2161   5.2211   5.2361   5.2419   5.3283   5.3298
     5.3967   5.4295   5.4541   5.4571   5.4593   5.4923   5.5449   5.5469
     5.5969   5.6071   5.6829   5.6848   5.7105   5.7281   5.7588   5.7659
     5.7765   5.7932   5.8235   5.8491   5.9045   5.9368   5.9415   5.9587
     6.0114   6.0793   6.1120   6.1304   6.1381   6.1420   6.2809   6.2840
     6.3216   6.4096   6.4542   6.4948   6.4977   6.5500   6.5512   6.5542
     6.5898   6.6026   6.6165   6.6302   6.6508   6.6977   6.7042   6.7447
     6.7673   6.7786   6.8596   6.8741   6.9548   6.9702   6.9845   7.0803
     7.2039   7.2470   7.2569   7.2681   7.3029   7.3514   7.3730   7.4166
     7.4413   7.4623   7.5156   7.5184   7.5395   7.5410   7.5979   7.6255
     7.6311   7.6654   7.7163   7.7218   7.7737   7.7994   7.9055   7.9165
     7.9267   7.9591   8.0835   8.0848   8.1687   8.2105   8.2406   8.2446
     8.3435   8.3540   8.4053   8.4276   8.4554   8.4624   8.4801   8.5176
     8.5518   8.5567   8.5687   8.6015   8.6312   8.6362   8.6552   8.6871
     8.6937   8.7298   8.7529   8.7544   8.7696   8.8210   8.8288   8.8747
     9.2626   9.7824  10.3703  11.0223  11.7387  12.0664  12.1958  12.4093
    12.5181  12.7006  13.0574  13.2747  13.3296  13.4263  13.4694  13.6653
    13.9072  14.0431  14.1626  14.2910  14.3195  14.6406  14.8509  15.0726
    15.1972  15.4471  15.4541  15.7398  15.7621  15.9250  16.2859  16.3226
    16.3806  16.7668  16.9070  16.9852

          k = 0.1250 0.7217 0.0000 ( 23455 PWs)   bands (ev):

     4.2381   4.3237   4.4532   4.5957   4.6221   4.6635   4.7137   4.7479
     4.7646   4.8053   4.8278   4.8622   4.9319   4.9490   4.9706   5.0263
     5.0759   5.0940   5.1032   5.1262   5.2030   5.2195   5.2527   5.2580
     5.2688   5.3047   5.3197   5.3538   5.4246   5.4259   5.4587   5.4708
     5.5176   5.5851   5.6070   5.6205   5.6690   5.7301   5.7308   5.7720
     5.8151   5.8294   5.8366   5.8537   5.9019   5.9169   5.9543   6.0255
     6.0471   6.0717   6.1079   6.1703   6.2344   6.2768   6.2776   6.3095
     6.3384   6.3488   6.3870   6.4291   6.4758   6.5059   6.5180   6.6119
     6.6708   6.6794   6.7741   6.7890   6.7963   6.8029   6.8297   6.8464
     6.9114   6.9204   6.9631   7.0279   7.0305   7.0386   7.0974   7.0999
     7.1845   7.1870   7.2273   7.2739   7.3579   7.4091   7.4826   7.4986
     7.5256   7.5473   7.6188   7.6288   7.6369   7.6546   7.7120   7.7265
     7.7325   7.8110   7.8616   7.8834   7.9259   7.9616   8.0403   8.0463
     8.0689   8.1728   8.2321   8.2523   8.3398   8.3446   8.4552   8.5595
     8.5685   8.5757   8.5888   8.6570   8.6649   8.6678   8.7091   8.7411
     8.7441   8.7787   8.7802   8.8047   8.8148   8.8363   8.8947   8.8994
     8.9407   8.9442   9.2641   9.3279   9.3568   9.4091   9.5269   9.7700
    10.1888  10.7323  11.3525  11.7722  11.8790  12.0265  12.0590  12.3130
    12.6369  12.7359  13.0290  13.0691  13.2125  13.4367  13.4664  13.5116
    13.7346  14.0093  14.1008  14.1669  14.4496  14.5844  14.8220  15.1612
    15.2338  15.5544  15.7191  15.8909  16.0209  16.2687  16.3423  16.4875
    16.5564  16.6557  16.8694  16.9745

          k = 0.1250-0.8660 0.0000 ( 23492 PWs)   bands (ev):

     4.5332   4.5333   4.6164   4.6164   4.6548   4.6549   4.7406   4.7407
     4.7499   4.7500   4.8693   4.8694   4.9251   4.9251   5.0126   5.0127
     5.0706   5.0706   5.1223   5.1224   5.1340   5.1341   5.1607   5.1608
     5.2373   5.2373   5.2966   5.2966   5.3445   5.3446   5.3839   5.3839
     5.4801   5.4802   5.5876   5.5876   5.6457   5.6458   5.7418   5.7418
     5.8380   5.8380   5.9278   5.9278   5.9629   5.9629   6.0225   6.0226
     6.0611   6.0611   6.0846   6.0846   6.1782   6.1783   6.2471   6.2471
     6.4283   6.4283   6.4449   6.4449   6.6087   6.6087   6.6397   6.6398
     6.7394   6.7394   6.7493   6.7493   6.8487   6.8488   6.9047   6.9048
     6.9244   6.9244   6.9648   6.9649   7.0747   7.0747   7.1514   7.1514
     7.2435   7.2435   7.3275   7.3275   7.4415   7.4416   7.4902   7.4903
     7.5452   7.5453   7.6285   7.6286   7.7292   7.7293   7.8165   7.8165
     7.8666   7.8667   7.9333   7.9333   7.9834   7.9835   8.0168   8.0168
     8.0991   8.0991   8.1479   8.1480   8.2462   8.2463   8.4442   8.4443
     8.6478   8.6479   8.7412   8.7413   8.7927   8.7929   8.8171   8.8173
     8.8658   8.8659   8.9088   8.9090   8.9534   8.9535   9.0311   9.0312
     9.0768   9.0769  10.4077  10.4077  10.4624  10.4624  10.5564  10.5564
    10.7076  10.7076  10.9350  10.9350  11.2671  11.2671  11.7031  11.7032
    12.2288  12.2289  12.8196  12.8196  13.4398  13.4399  13.9944  13.9944
    14.4439  14.4440  14.6423  14.6423  14.8143  14.8144  15.0257  15.0258
    15.2479  15.2480  15.4734  15.4735  15.8100  15.8100  15.9183  15.9184
    16.2363  16.2363  16.5881  16.5881

          k = 0.1250-0.7217 0.0000 ( 23455 PWs)   bands (ev):

     4.2381   4.3237   4.4532   4.5957   4.6221   4.6635   4.7137   4.7479
     4.7646   4.8053   4.8277   4.8622   4.9319   4.9490   4.9706   5.0263
     5.0759   5.0940   5.1032   5.1262   5.2030   5.2195   5.2527   5.2580
     5.2688   5.3047   5.3197   5.3538   5.4246   5.4259   5.4587   5.4708
     5.5176   5.5851   5.6070   5.6205   5.6690   5.7301   5.7308   5.7720
     5.8151   5.8294   5.8366   5.8537   5.9019   5.9169   5.9543   6.0255
     6.0471   6.0717   6.1079   6.1703   6.2344   6.2768   6.2776   6.3095
     6.3384   6.3488   6.3870   6.4291   6.4758   6.5059   6.5180   6.6119
     6.6708   6.6794   6.7741   6.7890   6.7963   6.8029   6.8297   6.8464
     6.9114   6.9204   6.9631   7.0279   7.0305   7.0386   7.0974   7.0999
     7.1845   7.1870   7.2273   7.2739   7.3579   7.4091   7.4826   7.4986
     7.5256   7.5473   7.6188   7.6288   7.6369   7.6546   7.7120   7.7265
     7.7325   7.8110   7.8616   7.8834   7.9259   7.9616   8.0403   8.0463
     8.0689   8.1728   8.2321   8.2523   8.3398   8.3446   8.4552   8.5595
     8.5685   8.5757   8.5888   8.6570   8.6649   8.6678   8.7091   8.7411
     8.7441   8.7787   8.7802   8.8047   8.8148   8.8363   8.8947   8.8994
     8.9407   8.9442   9.2641   9.3279   9.3568   9.4091   9.5269   9.7700
    10.1888  10.7323  11.3525  11.7722  11.8790  12.0265  12.0590  12.3130
    12.6369  12.7359  13.0290  13.0691  13.2125  13.4367  13.4664  13.5116
    13.7346  14.0093  14.1008  14.1669  14.4496  14.5844  14.8220  15.1612
    15.2338  15.5544  15.7191  15.8909  16.0209  16.2687  16.3423  16.4875
    16.5564  16.6557  16.8694  16.9746

          k = 0.1250-0.5774 0.0000 ( 23447 PWs)   bands (ev):

     3.6407   3.7336   3.8770   4.0574   4.2577   4.4717   4.6866   4.8401
     4.8609   4.9282   4.9446   4.9608   5.0014   5.0626   5.0648   5.0744
     5.1220   5.1310   5.2161   5.2211   5.2361   5.2419   5.3283   5.3298
     5.3967   5.4295   5.4541   5.4571   5.4593   5.4923   5.5449   5.5469
     5.5969   5.6071   5.6829   5.6848   5.7105   5.7281   5.7588   5.7659
     5.7765   5.7932   5.8235   5.8491   5.9045   5.9368   5.9415   5.9587
     6.0114   6.0793   6.1120   6.1304   6.1381   6.1420   6.2809   6.2840
     6.3216   6.4096   6.4542   6.4948   6.4977   6.5500   6.5512   6.5542
     6.5898   6.6026   6.6165   6.6302   6.6508   6.6977   6.7042   6.7447
     6.7673   6.7786   6.8596   6.8741   6.9548   6.9702   6.9845   7.0803
     7.2039   7.2470   7.2569   7.2681   7.3029   7.3514   7.3730   7.4166
     7.4413   7.4623   7.5156   7.5184   7.5395   7.5410   7.5979   7.6255
     7.6311   7.6654   7.7163   7.7218   7.7737   7.7994   7.9055   7.9165
     7.9267   7.9591   8.0835   8.0848   8.1687   8.2105   8.2406   8.2446
     8.3435   8.3540   8.4053   8.4276   8.4554   8.4624   8.4801   8.5176
     8.5518   8.5567   8.5687   8.6015   8.6312   8.6362   8.6552   8.6871
     8.6937   8.7298   8.7529   8.7544   8.7696   8.8210   8.8288   8.8747
     9.2626   9.7824  10.3703  11.0223  11.7387  12.0664  12.1958  12.4093
    12.5181  12.7006  13.0574  13.2747  13.3296  13.4263  13.4694  13.6653
    13.9072  14.0431  14.1626  14.2910  14.3195  14.6406  14.8509  15.0726
    15.1972  15.4471  15.4541  15.7398  15.7621  15.9250  16.2859  16.3226
    16.3806  16.7668  16.9070  16.9852

          k = 0.1250-0.4330 0.0000 ( 23435 PWs)   bands (ev):

     2.8735   2.9950   3.1890   3.4454   3.7469   4.0814   4.4124   4.6666
     4.7758   4.7846   4.8340   4.8579   4.8710   4.8981   4.9540   4.9905
     5.0026   5.0964   5.1015   5.1048   5.1505   5.2251   5.2683   5.3556
     5.3708   5.3741   5.3934   5.4330   5.4849   5.5183   5.6212   5.6241
     5.6562   5.7102   5.7420   5.7544   5.7636   5.7668   5.7909   5.7987
     5.8374   5.8472   5.8692   5.8773   5.9400   5.9446   5.9573   5.9882
     6.0230   6.0465   6.0628   6.0866   6.2187   6.2630   6.2899   6.3674
     6.4096   6.4292   6.4763   6.5017   6.5439   6.5441   6.5750   6.6000
     6.6320   6.6405   6.6567   6.6676   6.6877   6.7032   6.7206   6.7465
     6.7649   6.7977   6.8587   6.8989   6.9624   6.9692   7.0027   7.0390
     7.1385   7.1561   7.1783   7.2007   7.2049   7.2394   7.2553   7.2867
     7.3089   7.3238   7.3398   7.3471   7.4046   7.4132   7.4398   7.4823
     7.4958   7.5372   7.5438   7.5503   7.6043   7.6243   7.6336   7.6423
     7.6642   7.7236   7.8076   7.8154   7.8540   7.9240   7.9302   7.9408
     7.9903   8.0451   8.0790   8.0935   8.1588   8.1916   8.2044   8.2854
     8.3580   8.4452   8.4945   8.5145   8.6332   8.6466   8.6887   8.7324
     8.7407   8.7525   8.7811   8.7863   8.8050   8.8280   8.8616   8.9440
     8.9922   9.2283   9.7264  10.3093  10.9873  11.3658  11.4625  11.6302
    11.7697  11.8727  12.1901  12.5885  12.6506  13.0503  13.5363  13.5697
    13.7761  13.9554  14.2025  14.2775  14.5439  14.6133  14.6477  14.7805
    15.1626  15.2638  15.5154  15.6680  15.6686  15.8885  16.1301  16.1732
    16.3531  16.6586  16.8714  17.2424

          k = 0.1250-0.2887 0.0000 ( 23467 PWs)   bands (ev):

     2.2110   2.3480   2.5675   2.8586   3.2019   3.5818   3.9528   4.2476
     4.4033   4.4304   4.4533   4.4854   4.5236   4.5609   4.6513   4.6622
     4.6628   4.6727   4.7902   4.8672   4.9160   4.9522   4.9815   5.0801
     5.0857   5.1215   5.2134   5.2532   5.3419   5.4195   5.4830   5.5992
     5.6695   5.6994   5.7797   5.8265   5.8689   5.9210   5.9227   5.9734
     5.9789   6.0168   6.0475   6.0560   6.0611   6.0733   6.0978   6.1028
     6.1374   6.2005   6.2334   6.2996   6.3386   6.4005   6.4779   6.5140
     6.5395   6.5738   6.5787   6.5964   6.6055   6.6225   6.6441   6.6688
     6.6769   6.7238   6.7435   6.7448   6.7481   6.7617   6.7836   6.7947
     6.8385   6.8528   6.8528   6.8705   6.8881   6.8963   6.9137   6.9745
     6.9892   7.0209   7.0235   7.0334   7.0529   7.1154   7.1744   7.1929
     7.2229   7.2281   7.2663   7.2751   7.3553   7.3634   7.4073   7.4879
     7.4931   7.5423   7.5877   7.6147   7.6792   7.6807   7.7596   7.7830
     7.7941   7.7996   7.8463   7.8616   7.9403   7.9503   7.9929   8.0550
     8.1009   8.1236   8.1569   8.1966   8.2207   8.2321   8.2687   8.2754
     8.3352   8.3694   8.4378   8.5044   8.5402   8.6616   8.6733   8.6952
     8.7611   8.7764   8.7847   8.7879   8.8238   8.8347   8.9115   8.9519
     9.0205   9.0652   9.1855   9.6862  10.2997  10.7453  10.8177  10.9315
    11.0422  11.0975  11.3339  11.6668  11.8950  12.0984  12.3688  12.6195
    13.2116  13.5924  13.7192  13.8373  13.9530  14.1592  14.1988  14.4451
    14.6899  14.9692  15.2097  15.2853  15.6033  15.6139  15.8961  16.1081
    16.4198  16.8096  16.9129  16.9699

          k = 0.1250-0.1443 0.0000 ( 23537 PWs)   bands (ev):

     1.7760   1.9188   2.1475   2.4502   2.8056   3.1958   3.5730   3.8757
     4.0533   4.0872   4.1253   4.1414   4.1934   4.3101   4.3103   4.3521
     4.3579   4.4339   4.5483   4.5628   4.6256   4.6826   4.6981   4.7497
     4.7950   4.8187   4.9098   4.9862   5.1300   5.1653   5.2437   5.4930
     5.7275   5.8888   5.9510   6.0083   6.0400   6.0493   6.1085   6.1366
     6.1726   6.1956   6.2155   6.2236   6.2378   6.2561   6.2799   6.3023
     6.3628   6.3682   6.4230   6.4286   6.4580   6.4682   6.4811   6.4851
     6.4896   6.5145   6.5212   6.5228   6.5485   6.5761   6.5891   6.6022
     6.6124   6.6208   6.6429   6.6553   6.6650   6.6666   6.6921   6.7074
     6.7402   6.7471   6.7571   6.7653   6.8200   6.8841   6.8853   6.9192
     7.0165   7.0176   7.1171   7.1773   7.1911   7.2360   7.4014   7.4366
     7.4448   7.5254   7.5436   7.5491   7.5558   7.5793   7.6344   7.6645
     7.7147   7.7435   7.7587   7.8184   7.8258   7.8538   7.8607   7.8807
     7.9084   7.9939   8.0292   8.0370   8.1407   8.1414   8.2204   8.2454
     8.2779   8.3283   8.3591   8.3729   8.3989   8.4670   8.5103   8.5298
     8.5383   8.5396   8.5840   8.5929   8.6339   8.6619   8.6661   8.6987
     8.7099   8.7495   8.7582   8.7674   8.7998   8.8016   8.8382   8.9112
     8.9789   9.0397   9.0720   9.1262   9.6452   9.9813  10.1420  10.3094
    10.3284  10.4417  10.5695  10.7942  11.1634  11.1771  11.4103  11.7086
    12.3378  13.0050  13.4725  13.5588  13.6621  13.7400  13.9943  14.0174
    14.3334  14.6322  14.9461  14.9817  15.2704  15.3421  15.6870  15.9269
    16.4166  16.5365  16.6469  16.9694

          k = 0.2500 0.0000 0.0000 ( 23536 PWs)   bands (ev):

     1.9606   2.1013   2.3266   2.6253   2.9766   3.3639   3.7398   3.9112
     4.0171   4.0404   4.1777   4.2102   4.2719   4.2893   4.3576   4.3646
     4.4127   4.4644   4.4648   4.4779   4.5116   4.6128   4.6791   4.7402
     4.7699   4.8745   4.9149   5.0343   5.1099   5.1370   5.3022   5.5461
     5.7893   5.8197   5.9240   5.9429   5.9485   6.0473   6.0609   6.1166
     6.1171   6.1616   6.1674   6.1854   6.2312   6.2776   6.2947   6.3495
     6.3593   6.3951   6.4171   6.4366   6.4470   6.4959   6.4975   6.5120
     6.5228   6.5580   6.5756   6.5780   6.5940   6.5961   6.6299   6.6452
     6.6607   6.6627   6.6717   6.6866   6.6977   6.7126   6.7190   6.7555
     6.7771   6.8096   6.8190   6.8415   6.8423   6.8498   6.8732   6.9201
     6.9800   7.0481   7.0528   7.1046   7.1095   7.2551   7.2721   7.2945
     7.3541   7.3762   7.3892   7.4651   7.4994   7.5344   7.5505   7.6024
     7.6310   7.6515   7.6898   7.7217   7.7486   7.8028   7.8393   7.8507
     7.9221   7.9890   7.9894   8.0287   8.0354   8.1262   8.1910   8.2155
     8.2275   8.3071   8.3128   8.3590   8.3648   8.3969   8.4031   8.4222
     8.4592   8.4736   8.5152   8.5326   8.5392   8.5586   8.5775   8.5827
     8.6117   8.6276   8.6391   8.6691   8.6867   8.7328   8.7848   8.7942
     8.8219   8.8422   8.8533   8.8866   8.9231   8.9248   8.9384   8.9576
     9.1074   9.3895   9.6974   9.9617  10.4004  10.6747  11.1447  11.5071
    11.8452  11.9065  12.6637  13.4040  14.0529  14.1244  15.0715  15.1136
    15.3280  15.4082  15.5154  15.6048  15.9161  16.3559  16.6497  16.7797
    16.8149  17.1152  17.4081  17.7959

          k = 0.2500 0.1443 0.0000 ( 23484 PWs)   bands (ev):

     2.1062   2.2450   2.4673   2.7622   3.1100   3.4946   3.8699   4.0460
     4.1492   4.1701   4.3074   4.3355   4.3917   4.3986   4.4609   4.4950
     4.5230   4.5855   4.5859   4.6041   4.6425   4.7307   4.7555   4.8282
     4.8706   4.9472   5.0293   5.0992   5.2321   5.2456   5.3442   5.5527
     5.7388   5.8053   5.8088   5.8778   5.9118   5.9193   6.0392   6.0465
     6.0493   6.0567   6.0950   6.1367   6.1720   6.2072   6.2181   6.2772
     6.2894   6.3300   6.3609   6.3797   6.4313   6.4543   6.4924   6.5010
     6.5462   6.5507   6.5741   6.5830   6.5942   6.6079   6.6264   6.6298
     6.6505   6.6934   6.6946   6.7120   6.7123   6.7240   6.7391   6.7642
     6.7750   6.8194   6.8289   6.8324   6.8641   6.9130   6.9276   6.9566
     6.9575   6.9776   7.0142   7.0958   7.1071   7.1848   7.2007   7.2128
     7.2601   7.3087   7.3333   7.3695   7.3805   7.4252   7.4618   7.4717
     7.5296   7.5634   7.6103   7.6469   7.7133   7.7752   7.7930   7.8070
     7.8278   7.8542   7.9017   7.9303   7.9328   7.9688   8.0304   8.0307
     8.1391   8.1544   8.2058   8.2159   8.2195   8.2218   8.2804   8.2861
     8.3079   8.4451   8.4453   8.4893   8.5206   8.5215   8.5879   8.6054
     8.6153   8.6757   8.7157   8.7395   8.7405   8.7867   8.7875   8.8215
     8.9109   8.9573   9.1179   9.1304   9.2371   9.3306   9.3712   9.4543
     9.5804   9.6735  10.1169  10.1685  10.7186  10.8995  11.4022  11.7428
    12.1267  12.1583  12.8593  13.5811  14.1107  14.2790  15.1505  15.2945
    15.3700  15.5176  15.5763  15.7131  15.9959  16.4356  16.7505  16.8789
    16.9011  17.1981  17.4699  17.8194

          k = 0.2500 0.2887 0.0000 ( 23496 PWs)   bands (ev):

     2.5195   2.6504   2.8600   3.1379   3.4660   3.8303   4.1888   4.4082
     4.4706   4.4944   4.6027   4.6301   4.6482   4.6576   4.7166   4.7264
     4.7993   4.8404   4.8821   4.8840   4.9334   4.9905   5.0377   5.1026
     5.1095   5.2107   5.2419   5.3231   5.3838   5.4551   5.5162   5.5782
     5.6175   5.6293   5.7246   5.7722   5.8034   5.8335   5.9029   5.9052
     5.9168   5.9338   5.9624   6.0255   6.0410   6.0562   6.1058   6.1171
     6.1259   6.1355   6.1758   6.2357   6.2452   6.3603   6.3650   6.3713
     6.4337   6.4776   6.5161   6.5248   6.5705   6.5773   6.6262   6.6305
     6.6359   6.6515   6.6707   6.6981   6.7099   6.7476   6.7751   6.8080
     6.8149   6.8490   6.8598   6.8675   6.9066   6.9349   6.9452   6.9628
     6.9917   6.9966   7.0121   7.0455   7.1088   7.1229   7.1404   7.1656
     7.1808   7.2402   7.2493   7.2693   7.2791   7.3518   7.3577   7.3633
     7.4365   7.4490   7.4861   7.5448   7.5567   7.5773   7.6249   7.6771
     7.7132   7.7501   7.7567   7.7811   7.8324   7.8395   7.8962   7.9146
     7.9338   7.9820   7.9974   8.0599   8.0918   8.1608   8.1708   8.2182
     8.2484   8.3869   8.3911   8.4662   8.6240   8.6414   8.6563   8.7018
     8.7691   8.7768   8.7995   8.8062   8.8478   8.8777   8.9181   8.9957
     8.9981   9.0395   9.4498   9.8060   9.8536   9.9108   9.9932  10.0093
    10.1813  10.4704  10.6418  10.8917  11.4090  11.4233  12.0317  12.2853
    12.6904  12.9505  13.3683  14.0399  14.3381  14.6641  15.4062  15.5057
    15.6815  15.8575  15.8628  16.0088  16.2367  16.6208  17.0177  17.0312
    17.2189  17.2763  17.5317  17.6090

          k = 0.2500 0.4330 0.0000 ( 23431 PWs)   bands (ev):

     3.1173   3.2299   3.4078   3.6390   3.9046   4.1912   4.4635   4.6541
     4.7548   4.7558   4.7581   4.8269   4.8301   4.8765   4.9313   4.9348
     5.0132   5.0300   5.0366   5.1159   5.1369   5.1706   5.1825   5.2122
     5.2546   5.2549   5.3164   5.4501   5.4676   5.4720   5.5350   5.5652
     5.5897   5.6347   5.6753   5.7153   5.7745   5.7810   5.8219   5.8789
     5.9000   5.9042   5.9274   5.9295   5.9829   5.9961   6.0132   6.0486
     6.0555   6.1155   6.1492   6.1604   6.1963   6.2207   6.2516   6.2611
     6.3967   6.4012   6.4017   6.5212   6.5425   6.5775   6.5858   6.6003
     6.6215   6.6464   6.6676   6.6889   6.6895   6.6984   6.7022   6.7506
     6.8195   6.8213   6.8995   6.9661   6.9705   6.9874   6.9893   7.0310
     7.0332   7.1233   7.1842   7.1880   7.2181   7.2224   7.2670   7.2777
     7.3129   7.3325   7.3416   7.3843   7.4137   7.4511   7.4766   7.4947
     7.5475   7.5617   7.6112   7.6248   7.6277   7.6288   7.6653   7.7027
     7.7132   7.7490   7.7621   7.8040   7.8242   7.8624   7.8972   7.9272
     7.9763   8.0262   8.0492   8.0608   8.1141   8.1706   8.2036   8.2499
     8.3912   8.3947   8.4340   8.5649   8.6473   8.7208   8.7982   8.8215
     8.8241   8.8271   8.8359   8.8640   8.8741   8.8748   8.9458   9.0293
     9.0755   9.3256   9.8928  10.4075  10.4544  10.5194  10.5501  10.7110
    10.9506  11.2179  11.2915  11.7289  12.0032  12.2453  12.8158  12.8716
    13.4184  13.9830  14.0212  14.5850  14.8589  15.0231  15.7198  15.7290
    15.8756  15.9019  15.9441  16.1685  16.2507  16.4534  16.5115  16.6009
    17.0004  17.0018  17.4200  17.4566

          k = 0.2500 0.5774 0.0000 ( 23466 PWs)   bands (ev):

     3.7041   3.8020   3.9483   4.1168   4.2700   4.4028   4.5302   4.6415
     4.6465   4.6737   4.7226   4.7517   4.7634   4.8462   4.8853   4.9012
     4.9136   5.0049   5.0120   5.0491   5.0636   5.1268   5.1321   5.1880
     5.2096   5.2212   5.2294   5.2603   5.2863   5.3468   5.3770   5.4241
     5.4253   5.4901   5.5366   5.6298   5.6730   5.6943   5.7700   5.8229
     5.8550   5.8626   5.9192   5.9533   5.9711   5.9770   6.0099   6.0956
     6.1236   6.1984   6.2654   6.2827   6.3425   6.3983   6.4403   6.4712
     6.4932   6.5218   6.5398   6.5594   6.5995   6.6257   6.6451   6.6491
     6.6677   6.7273   6.7503   6.7812   6.7979   6.8037   6.8629   6.9151
     6.9257   6.9754   6.9862   7.0065   7.0955   7.1035   7.1538   7.1603
     7.2705   7.2824   7.3352   7.3369   7.4157   7.4790   7.4917   7.5156
     7.5253   7.5473   7.5520   7.6370   7.6639   7.7385   7.7933   7.8314
     7.8933   7.8958   7.9110   7.9354   7.9632   7.9751   8.0028   8.0656
     8.0710   8.0798   8.0861   8.1147   8.1222   8.1379   8.1988   8.2077
     8.2661   8.3138   8.3462   8.3622   8.4218   8.4540   8.4639   8.4828
     8.5061   8.5445   8.5782   8.6555   8.6939   8.7103   8.7467   8.7544
     8.7719   8.8287   8.8298   8.8712   8.8774   8.9129   8.9897   9.0367
     9.2341   9.8275  10.4809  11.0611  11.1389  11.1751  11.2759  11.4812
    11.7618  11.9066  12.1323  12.5853  12.6800  13.1073  13.4734  13.6281
    13.7188  13.8668  14.0663  14.3337  14.4023  14.7521  15.0182  15.0225
    15.1446  15.4728  15.6514  15.7066  15.8686  16.1909  16.4145  16.5251
    16.6712  17.1532  17.2901  17.4349

          k = 0.2500 0.7217 0.0000 ( 23545 PWs)   bands (ev):

     4.0452   4.1483   4.3065   4.4286   4.4611   4.4940   4.5224   4.5228
     4.5232   4.6032   4.6175   4.6416   4.6746   4.7294   4.7539   4.7668
     4.8263   4.8695   4.8709   4.8719   4.9286   4.9458   4.9528   5.0236
     5.0283   5.0899   5.0988   5.1376   5.1557   5.2320   5.2461   5.2467
     5.3246   5.3446   5.4121   5.4846   5.5533   5.6089   5.7391   5.7401
     5.7679   5.8712   5.8779   5.9544   6.0106   6.0263   6.0487   6.1640
     6.2061   6.2755   6.2759   6.3290   6.3595   6.4085   6.4307   6.5003
     6.5432   6.5456   6.5819   6.5945   6.6653   6.6786   6.7116   6.7128
     6.7387   6.8254   6.8300   6.8326   6.9570   6.9771   7.0141   7.0457
     7.1073   7.1150   7.1848   7.2303   7.2602   7.2920   7.3084   7.3784
     7.4056   7.4249   7.5526   7.5628   7.6467   7.6816   7.7749   7.7754
     7.8273   7.9017   7.9054   7.9326   7.9536   7.9567   8.0306   8.0701
     8.1543   8.1791   8.2057   8.2158   8.2216   8.2629   8.2805   8.2868
     8.3295   8.3557   8.4455   8.4891   8.5146   8.5193   8.5230   8.5582
     8.5817   8.5895   8.6060   8.6188   8.6688   8.6775   8.6929   8.7213
     8.7415   8.7881   8.7882   8.8222   8.8887   8.9114   8.9318   8.9533
     8.9578   8.9644   9.1202   9.2395   9.3331   9.3735   9.4545   9.6734
    10.1172  10.7190  11.4027  11.9708  11.9716  11.9995  12.0473  12.1246
    12.1271  12.2286  12.3618  12.5261  12.7240  12.8597  12.9420  13.1660
    13.3842  13.5816  13.6211  13.6574  14.0162  14.2795  14.4002  14.7095
    14.9813  15.2950  15.3711  15.4322  15.5773  15.6585  15.7141  15.9959
    16.0475  16.1749  16.4356  16.6829

          k = 0.2500-0.8660 0.0000 ( 23532 PWs)   bands (ev):

     4.2365   4.2365   4.3387   4.3387   4.4525   4.4526   4.4991   4.4992
     4.5399   4.5400   4.6693   4.6694   4.7012   4.7012   4.7397   4.7398
     4.8047   4.8048   4.8194   4.8194   4.9045   4.9045   4.9168   4.9168
     4.9556   4.9557   5.0524   5.0525   5.0730   5.0731   5.2374   5.2374
     5.3112   5.3113   5.3308   5.3309   5.5270   5.5271   5.6997   5.6998
     5.8490   5.8491   5.9845   5.9845   6.0597   6.0598   6.1374   6.1374
     6.1682   6.1682   6.2329   6.2330   6.4349   6.4350   6.4726   6.4726
     6.5510   6.5510   6.5929   6.5930   6.6600   6.6601   6.7070   6.7070
     6.7817   6.7818   6.8921   6.8922   7.0340   7.0340   7.0729   7.0730
     7.1689   7.1689   7.3204   7.3205   7.3650   7.3651   7.4391   7.4392
     7.5124   7.5124   7.6706   7.6706   7.6985   7.6986   7.9184   7.9185
     7.9256   7.9257   8.0657   8.0657   8.1018   8.1019   8.1094   8.1094
     8.2727   8.2728   8.3459   8.3459   8.3525   8.3525   8.3988   8.3988
     8.4099   8.4099   8.4394   8.4395   8.4735   8.4735   8.5333   8.5333
     8.6678   8.6679   8.6987   8.6989   8.7604   8.7605   8.7988   8.7989
     8.8335   8.8337   8.9143   8.9144   8.9765   8.9766   9.0369   9.0371
     9.0779   9.0780  10.3876  10.3876  10.4894  10.4894  10.6094  10.6094
    10.7426  10.7426  10.9256  10.9256  11.2112  11.2112  11.6183  11.6183
    12.1380  12.1380  12.7417  12.7417  13.3826  13.3826  13.5354  13.5354
    13.6490  13.6490  13.8279  13.8279  13.9373  13.9373  14.1537  14.1537
    14.4772  14.4772  14.7782  14.7782  15.0816  15.0817  15.4868  15.4869
    15.8145  15.8145  15.9637  15.9637

          k = 0.2500-0.7217 0.0000 ( 23545 PWs)   bands (ev):

     4.0452   4.1483   4.3065   4.4286   4.4611   4.4940   4.5224   4.5228
     4.5232   4.6032   4.6175   4.6416   4.6746   4.7294   4.7539   4.7668
     4.8263   4.8695   4.8709   4.8719   4.9286   4.9458   4.9528   5.0236
     5.0283   5.0899   5.0988   5.1376   5.1557   5.2320   5.2461   5.2467
     5.3246   5.3446   5.4121   5.4846   5.5533   5.6089   5.7391   5.7401
     5.7679   5.8712   5.8779   5.9544   6.0106   6.0263   6.0487   6.1640
     6.2061   6.2755   6.2759   6.3290   6.3595   6.4085   6.4307   6.5003
     6.5432   6.5456   6.5819   6.5945   6.6653   6.6786   6.7116   6.7128
     6.7387   6.8254   6.8300   6.8326   6.9570   6.9771   7.0141   7.0457
     7.1073   7.1150   7.1848   7.2303   7.2602   7.2920   7.3084   7.3784
     7.4056   7.4249   7.5526   7.5628   7.6467   7.6816   7.7749   7.7754
     7.8273   7.9017   7.9054   7.9326   7.9536   7.9567   8.0306   8.0701
     8.1543   8.1791   8.2057   8.2158   8.2216   8.2629   8.2805   8.2868
     8.3295   8.3557   8.4455   8.4891   8.5146   8.5193   8.5230   8.5582
     8.5817   8.5895   8.6060   8.6188   8.6688   8.6775   8.6929   8.7213
     8.7415   8.7881   8.7882   8.8222   8.8887   8.9114   8.9318   8.9533
     8.9578   8.9644   9.1202   9.2395   9.3331   9.3735   9.4545   9.6734
    10.1172  10.7190  11.4027  11.9708  11.9716  11.9995  12.0473  12.1246
    12.1271  12.2286  12.3618  12.5261  12.7240  12.8597  12.9420  13.1660
    13.3842  13.5816  13.6211  13.6574  14.0162  14.2795  14.4002  14.7095
    14.9813  15.2950  15.3711  15.4322  15.5773  15.6585  15.7141  15.9959
    16.0475  16.1749  16.4356  16.6828

          k = 0.2500-0.5774 0.0000 ( 23466 PWs)   bands (ev):

     3.7041   3.8020   3.9483   4.1168   4.2700   4.4028   4.5302   4.6415
     4.6465   4.6737   4.7226   4.7517   4.7634   4.8462   4.8853   4.9012
     4.9136   5.0049   5.0120   5.0491   5.0636   5.1268   5.1321   5.1880
     5.2096   5.2212   5.2294   5.2603   5.2863   5.3468   5.3770   5.4241
     5.4253   5.4901   5.5366   5.6298   5.6730   5.6943   5.7700   5.8229
     5.8550   5.8626   5.9192   5.9533   5.9711   5.9770   6.0099   6.0956
     6.1236   6.1984   6.2654   6.2827   6.3425   6.3983   6.4403   6.4712
     6.4932   6.5218   6.5398   6.5594   6.5995   6.6257   6.6451   6.6491
     6.6677   6.7273   6.7503   6.7812   6.7979   6.8037   6.8629   6.9151
     6.9257   6.9754   6.9862   7.0065   7.0955   7.1035   7.1538   7.1603
     7.2705   7.2824   7.3352   7.3369   7.4157   7.4790   7.4917   7.5156
     7.5253   7.5473   7.5520   7.6370   7.6639   7.7385   7.7933   7.8314
     7.8933   7.8958   7.9110   7.9354   7.9632   7.9751   8.0028   8.0656
     8.0710   8.0798   8.0861   8.1147   8.1222   8.1379   8.1988   8.2077
     8.2661   8.3138   8.3462   8.3622   8.4218   8.4540   8.4639   8.4828
     8.5061   8.5445   8.5782   8.6555   8.6939   8.7102   8.7467   8.7544
     8.7719   8.8287   8.8298   8.8712   8.8774   8.9129   8.9897   9.0367
     9.2342   9.8275  10.4809  11.0611  11.1389  11.1751  11.2759  11.4812
    11.7618  11.9066  12.1323  12.5853  12.6800  13.1073  13.4734  13.6281
    13.7188  13.8668  14.0663  14.3337  14.4023  14.7521  15.0182  15.0225
    15.1446  15.4728  15.6514  15.7066  15.8686  16.1909  16.4145  16.5251
    16.6712  17.1532  17.2901  17.4350

          k = 0.2500-0.4330 0.0000 ( 23431 PWs)   bands (ev):

     3.1173   3.2299   3.4078   3.6390   3.9046   4.1912   4.4635   4.6541
     4.7548   4.7558   4.7581   4.8269   4.8301   4.8765   4.9313   4.9348
     5.0132   5.0300   5.0366   5.1159   5.1369   5.1706   5.1825   5.2122
     5.2546   5.2549   5.3164   5.4501   5.4676   5.4720   5.5350   5.5652
     5.5897   5.6347   5.6753   5.7153   5.7745   5.7810   5.8219   5.8789
     5.9000   5.9042   5.9274   5.9295   5.9829   5.9961   6.0132   6.0486
     6.0555   6.1155   6.1492   6.1604   6.1963   6.2207   6.2516   6.2611
     6.3967   6.4012   6.4017   6.5212   6.5425   6.5775   6.5858   6.6003
     6.6215   6.6464   6.6676   6.6889   6.6895   6.6984   6.7022   6.7506
     6.8194   6.8213   6.8995   6.9661   6.9705   6.9874   6.9893   7.0310
     7.0332   7.1233   7.1842   7.1880   7.2181   7.2224   7.2670   7.2777
     7.3129   7.3325   7.3416   7.3843   7.4137   7.4511   7.4766   7.4947
     7.5475   7.5617   7.6112   7.6248   7.6277   7.6288   7.6653   7.7027
     7.7132   7.7490   7.7621   7.8040   7.8242   7.8624   7.8972   7.9272
     7.9763   8.0262   8.0492   8.0608   8.1141   8.1706   8.2036   8.2499
     8.3912   8.3947   8.4340   8.5649   8.6473   8.7208   8.7982   8.8215
     8.8241   8.8271   8.8359   8.8640   8.8741   8.8748   8.9458   9.0293
     9.0755   9.3256   9.8928  10.4075  10.4544  10.5194  10.5501  10.7110
    10.9506  11.2179  11.2915  11.7289  12.0032  12.2453  12.8158  12.8716
    13.4184  13.9830  14.0212  14.5850  14.8589  15.0231  15.7198  15.7290
    15.8756  15.9019  15.9441  16.1685  16.2507  16.4534  16.5115  16.6009
    17.0004  17.0018  17.4200  17.4566

          k = 0.2500-0.2887 0.0000 ( 23496 PWs)   bands (ev):

     2.5195   2.6504   2.8600   3.1379   3.4660   3.8303   4.1888   4.4082
     4.4706   4.4944   4.6027   4.6301   4.6482   4.6576   4.7166   4.7264
     4.7993   4.8404   4.8821   4.8840   4.9334   4.9905   5.0377   5.1026
     5.1095   5.2107   5.2419   5.3231   5.3838   5.4551   5.5162   5.5782
     5.6175   5.6293   5.7246   5.7722   5.8034   5.8335   5.9029   5.9052
     5.9168   5.9338   5.9624   6.0255   6.0410   6.0562   6.1058   6.1171
     6.1259   6.1355   6.1758   6.2357   6.2452   6.3603   6.3650   6.3713
     6.4337   6.4776   6.5161   6.5248   6.5705   6.5773   6.6262   6.6305
     6.6359   6.6515   6.6707   6.6981   6.7099   6.7476   6.7751   6.8080
     6.8149   6.8490   6.8598   6.8675   6.9066   6.9349   6.9452   6.9628
     6.9917   6.9966   7.0121   7.0455   7.1088   7.1229   7.1404   7.1656
     7.1808   7.2402   7.2493   7.2693   7.2791   7.3518   7.3577   7.3633
     7.4365   7.4490   7.4861   7.5448   7.5567   7.5773   7.6249   7.6771
     7.7132   7.7501   7.7567   7.7811   7.8324   7.8395   7.8962   7.9146
     7.9338   7.9820   7.9974   8.0599   8.0918   8.1608   8.1708   8.2182
     8.2484   8.3869   8.3911   8.4662   8.6240   8.6414   8.6563   8.7018
     8.7691   8.7768   8.7995   8.8062   8.8478   8.8777   8.9181   8.9957
     8.9981   9.0395   9.4498   9.8060   9.8536   9.9108   9.9932  10.0093
    10.1813  10.4704  10.6418  10.8917  11.4090  11.4233  12.0317  12.2853
    12.6904  12.9505  13.3683  14.0399  14.3381  14.6641  15.4062  15.5057
    15.6815  15.8575  15.8628  16.0088  16.2367  16.6208  17.0177  17.0312
    17.2189  17.2763  17.5318  17.6090

          k = 0.2500-0.1443 0.0000 ( 23484 PWs)   bands (ev):

     2.1062   2.2450   2.4673   2.7622   3.1100   3.4946   3.8699   4.0460
     4.1492   4.1701   4.3074   4.3355   4.3917   4.3986   4.4609   4.4950
     4.5230   4.5855   4.5859   4.6041   4.6425   4.7307   4.7555   4.8282
     4.8706   4.9472   5.0293   5.0992   5.2321   5.2456   5.3442   5.5527
     5.7388   5.8053   5.8088   5.8778   5.9118   5.9193   6.0392   6.0465
     6.0493   6.0567   6.0950   6.1367   6.1720   6.2072   6.2181   6.2772
     6.2894   6.3300   6.3609   6.3797   6.4313   6.4543   6.4924   6.5010
     6.5462   6.5507   6.5741   6.5830   6.5942   6.6079   6.6264   6.6298
     6.6505   6.6934   6.6946   6.7120   6.7123   6.7240   6.7391   6.7642
     6.7750   6.8194   6.8289   6.8324   6.8641   6.9130   6.9276   6.9566
     6.9575   6.9776   7.0142   7.0958   7.1071   7.1848   7.2007   7.2128
     7.2601   7.3087   7.3333   7.3695   7.3805   7.4252   7.4618   7.4717
     7.5296   7.5634   7.6103   7.6469   7.7133   7.7752   7.7930   7.8070
     7.8278   7.8542   7.9017   7.9303   7.9328   7.9688   8.0304   8.0307
     8.1391   8.1544   8.2058   8.2159   8.2195   8.2218   8.2804   8.2861
     8.3079   8.4451   8.4453   8.4893   8.5206   8.5215   8.5879   8.6054
     8.6153   8.6757   8.7157   8.7395   8.7405   8.7867   8.7875   8.8215
     8.9109   8.9573   9.1179   9.1304   9.2371   9.3306   9.3712   9.4543
     9.5804   9.6735  10.1169  10.1685  10.7186  10.8995  11.4022  11.7428
    12.1267  12.1583  12.8593  13.5811  14.1107  14.2790  15.1505  15.2945
    15.3700  15.5176  15.5763  15.7131  15.9959  16.4356  16.7505  16.8789
    16.9011  17.1981  17.4698  17.8194

          k = 0.3750 0.0000 0.0000 ( 23492 PWs)   bands (ev):

     2.4843   2.6160   2.8265   3.1056   3.4346   3.6685   3.7676   3.7997
     3.9156   4.0859   4.1574   4.2406   4.3739   4.4374   4.4994   4.5692
     4.6103   4.6278   4.6903   4.7219   4.8516   4.8537   4.8576   4.8998
     4.9879   5.0235   5.1067   5.1945   5.2293   5.3279   5.4844   5.5136
     5.6261   5.6759   5.7710   5.8361   5.8727   5.9063   5.9258   5.9474
     5.9794   6.0004   6.0449   6.0825   6.1177   6.1283   6.1490   6.2254
     6.3303   6.3683   6.4114   6.4216   6.4883   6.5013   6.5129   6.5365
     6.5370   6.5576   6.5674   6.5941   6.6166   6.6172   6.6255   6.6357
     6.6538   6.6906   6.6956   6.7031   6.7453   6.7635   6.7955   6.8062
     6.8182   6.8263   6.8991   6.9013   6.9107   6.9368   6.9507   6.9644
     6.9939   7.0025   7.0142   7.0645   7.0981   7.0991   7.1365   7.1974
     7.2001   7.2094   7.2223   7.3001   7.3202   7.3442   7.3896   7.4275
     7.4880   7.4899   7.5289   7.5411   7.6177   7.6245   7.6471   7.6592
     7.6611   7.7683   7.7782   7.7804   7.8867   7.8940   7.9515   7.9763
     7.9883   7.9934   8.0101   8.0278   8.0403   8.0540   8.0714   8.0747
     8.0787   8.1279   8.2010   8.2057   8.2077   8.2376   8.2729   8.3259
     8.3625   8.3761   8.3986   8.4404   8.4722   8.5289   8.5525   8.5933
     8.6280   8.7037   8.7450   8.8052   8.8471   8.8548   8.9060   8.9327
     9.1607   9.4069   9.7738   9.9565  10.4366  10.6042  11.1352  11.3691
    11.8683  12.2436  12.6430  12.8850  13.4411  14.3150  14.9648  15.3814
    15.6114  15.8313  16.4923  16.9855  17.1992  17.2690  17.4279  17.6168
    17.7916  17.9691  18.2700  18.7151

          k = 0.3750 0.1443 0.0000 ( 23495 PWs)   bands (ev):

     2.6240   2.7529   2.9590   3.2328   3.5567   3.8128   3.9067   3.9185
     4.0466   4.2067   4.2788   4.3514   4.4819   4.5689   4.6167   4.7054
     4.7383   4.7468   4.7890   4.8448   4.9535   4.9644   4.9656   4.9783
     5.0609   5.1183   5.1948   5.2837   5.3500   5.4197   5.5097   5.5313
     5.6450   5.6632   5.7000   5.7873   5.7986   5.8190   5.8468   5.8875
     5.9102   5.9294   5.9510   6.0077   6.0361   6.0364   6.0879   6.1215
     6.1656   6.2325   6.2699   6.2731   6.3024   6.3895   6.3970   6.4328
     6.4385   6.4824   6.5021   6.5184   6.5468   6.5597   6.5978   6.6230
     6.6312   6.6583   6.6766   6.6793   6.6941   6.7053   6.7258   6.7284
     6.7803   6.8047   6.8110   6.8346   6.8410   6.8959   6.9429   6.9860
     7.0264   7.0284   7.0667   7.0838   7.1401   7.1517   7.1642   7.2102
     7.2204   7.2849   7.2924   7.3156   7.3522   7.3526   7.3728   7.4018
     7.4300   7.4504   7.4638   7.4903   7.5073   7.5657   7.6012   7.6572
     7.7195   7.7239   7.7256   7.7688   7.7861   7.8276   7.9102   7.9130
     7.9299   7.9773   8.0406   8.0485   8.0692   8.0956   8.1876   8.1993
     8.2210   8.2507   8.2927   8.3063   8.3953   8.4091   8.4276   8.4689
     8.5007   8.5220   8.5580   8.5899   8.6237   8.6498   8.6664   8.6962
     8.7140   8.7249   8.7557   8.7631   8.7971   8.8379   8.9391   9.1077
     9.4044   9.5517   9.9723  10.0934  10.6062  10.7480  11.2901  11.5216
    12.0172  12.4021  12.7864  13.1388  13.5660  14.4100  15.1906  15.4809
    15.7687  15.9378  16.6219  17.1118  17.2805  17.3488  17.4504  17.6495
    17.8848  18.0412  18.3071  18.7588

          k = 0.3750 0.2887 0.0000 ( 23497 PWs)   bands (ev):

     3.0082   3.1261   3.3141   3.5630   3.8569   4.1865   4.2069   4.2700
     4.3599   4.4565   4.5212   4.5531   4.6708   4.7973   4.8140   4.9134
     4.9740   4.9775   5.0495   5.1125   5.1918   5.1972   5.1993   5.2229
     5.2779   5.3408   5.3802   5.4069   5.4243   5.5095   5.5219   5.5936
     5.6334   5.6347   5.6515   5.6957   5.7153   5.7360   5.7451   5.7551
     5.7945   5.8195   5.8522   5.8744   5.9043   5.9122   5.9624   5.9728
     5.9784   6.0022   6.0637   6.1062   6.1301   6.2260   6.2326   6.2888
     6.3062   6.3277   6.3466   6.3521   6.3957   6.4338   6.4573   6.4649
     6.4779   6.5421   6.5570   6.5924   6.6179   6.6343   6.6559   6.6806
     6.7178   6.7233   6.7398   6.7431   6.7898   6.8667   6.9258   6.9445
     6.9573   7.0075   7.0273   7.1072   7.1591   7.2428   7.2585   7.2823
     7.3228   7.3273   7.3488   7.3620   7.3793   7.4155   7.4214   7.4306
     7.4973   7.5227   7.5329   7.5879   7.5950   7.6283   7.6511   7.6519
     7.6943   7.7037   7.7157   7.7691   7.8570   7.8880   7.9453   7.9627
     7.9732   8.0964   8.1075   8.1368   8.1401   8.1468   8.1876   8.2311
     8.2732   8.3222   8.3973   8.5159   8.5555   8.5693   8.5786   8.6171
     8.6225   8.6776   8.6945   8.7075   8.7130   8.7415   8.8352   8.8794
     8.9273   9.0599   9.1022   9.1164   9.1681   9.2727   9.3455   9.4954
     9.8426   9.9136  10.4280  10.4474  11.0510  11.1122  11.7130  11.8983
    12.4250  12.7738  13.1743  13.7962  13.9033  14.7310  15.7790  15.7871
    16.1966  16.2785  16.9607  17.4076  17.4473  17.5153  17.5979  17.7765
    18.0636  18.1203  18.3455  18.6483

          k = 0.3750 0.4330 0.0000 ( 23475 PWs)   bands (ev):

     3.5025   3.6019   3.7552   3.9469   4.1567   4.3745   4.4686   4.5334
     4.5811   4.6295   4.6737   4.7126   4.7312   4.7424   4.8353   4.8369
     4.9557   4.9642   5.0576   5.0773   5.1157   5.1692   5.1762   5.2220
     5.2362   5.2548   5.3142   5.3246   5.3297   5.3609   5.4191   5.4751
     5.5220   5.5902   5.6025   5.6265   5.7176   5.7249   5.7327   5.8370
     5.8517   5.8796   5.9437   5.9744   5.9769   5.9996   6.0858   6.1035
     6.1082   6.1189   6.1972   6.2188   6.2315   6.2459   6.2491   6.3070
     6.3291   6.3328   6.3398   6.3929   6.4083   6.4928   6.4993   6.5719
     6.5938   6.6113   6.6321   6.6385   6.6732   6.7181   6.7461   6.7613
     6.8316   6.8625   6.8816   6.8865   6.9271   6.9636   6.9767   6.9916
     7.0075   7.0211   7.1141   7.1264   7.1905   7.2593   7.2766   7.3920
     7.3996   7.4380   7.4648   7.5134   7.5238   7.5605   7.5798   7.6109
     7.6452   7.6648   7.6659   7.6998   7.7019   7.7636   7.7871   7.8406
     7.9036   7.9230   7.9310   7.9541   7.9824   8.0036   8.0451   8.0914
     8.1384   8.1871   8.2144   8.2460   8.3079   8.3445   8.3535   8.3781
     8.4095   8.4282   8.4928   8.6050   8.6525   8.6843   8.6959   8.7685
     8.7813   8.7833   8.7935   8.8225   8.8338   8.8696   8.9530   8.9961
[...]
     8.4935   8.5102   8.5260   8.5499   8.6162   8.6372   8.6611   8.6927
     8.7066   8.7141   8.7569   8.7624   8.7939   8.8348   8.9437   9.1145
     9.3893   9.5574   9.9475  10.1058  10.5760  10.7518  11.2659  11.5376
    11.9991  12.4020  12.7813  13.1418  13.5787  14.4013  15.1787  15.4868
    15.7734  15.9147  16.6172  17.0909  17.2733  17.3453  17.4578  17.6337
    17.8995  18.0332  18.3017  18.7711

          k =-0.5000 0.0000-0.0000 ( 23442 PWs)   bands (ev):

     3.1113   3.1113   3.2041   3.2041   3.4115   3.4115   3.6321   3.6321
     3.9159   3.9159   4.2021   4.2021   4.4706   4.4706   4.6603   4.6603
     4.7604   4.7605   4.8773   4.8773   5.0127   5.0127   5.1382   5.1382
     5.1708   5.1708   5.2273   5.2273   5.3028   5.3028   5.4551   5.4552
     5.5783   5.5783   5.7090   5.7090   5.8149   5.8149   5.8734   5.8734
     5.9254   5.9254   5.9771   5.9772   6.0642   6.0642   6.1331   6.1332
     6.1869   6.1869   6.2516   6.2516   6.3660   6.3660   6.4410   6.4411
     6.5329   6.5329   6.5893   6.5893   6.6300   6.6300   6.6566   6.6566
     6.6724   6.6724   6.6910   6.6910   6.6950   6.6950   6.7421   6.7421
     6.8142   6.8143   6.8782   6.8782   6.9020   6.9021   6.9489   6.9490
     6.9936   6.9936   7.1583   7.1584   7.1980   7.1981   7.2021   7.2022
     7.2369   7.2370   7.2763   7.2764   7.3667   7.3667   7.4180   7.4180
     7.4334   7.4334   7.5189   7.5189   7.5454   7.5454   7.5584   7.5584
     7.6148   7.6148   7.6279   7.6279   7.6660   7.6660   7.7139   7.7139
     7.7991   7.7991   7.8296   7.8296   7.9041   7.9042   7.9749   7.9750
     8.0291   8.0291   8.0706   8.0706   8.1066   8.1067   8.1657   8.1657
     8.2482   8.2483   8.3577   8.3578   8.3986   8.3986   8.5682   8.5682
     8.6665   8.6665   8.8160   8.8160   8.8277   8.8277   8.8572   8.8572
     9.3233   9.3233   9.8837   9.8838  10.5101  10.5101  11.2087  11.2087
    12.0032  12.0032  12.8748  12.8749  13.9767  13.9767  14.8598  14.8598
    15.8748  15.8750  16.4386  16.4388  17.4122  17.4127  17.8107  17.8110
    19.1557  19.1558  19.2986  19.2988

          k =-0.5000 0.1443-0.0000 ( 23476 PWs)   bands (ev):

     3.2466   3.2522   3.3380   3.3387   3.5367   3.5400   3.7509   3.7530
     4.0286   4.0295   4.3132   4.3151   4.5929   4.5932   4.8006   4.8084
     4.8997   4.9018   5.0076   5.0107   5.1342   5.1395   5.2115   5.2218
     5.2740   5.2787   5.3020   5.3160   5.3716   5.3754   5.4913   5.5047
     5.5897   5.5996   5.6674   5.6793   5.7344   5.7414   5.7574   5.7630
     5.8394   5.8430   5.8585   5.8656   5.9620   5.9667   5.9800   6.0026
     6.0418   6.0689   6.0824   6.0833   6.2217   6.2338   6.3497   6.3751
     6.4305   6.4583   6.4614   6.4839   6.5146   6.5173   6.5520   6.5790
     6.6014   6.6168   6.6301   6.6437   6.6509   6.6524   6.6731   6.6735
     6.6965   6.7133   6.7213   6.7260   6.7667   6.7778   6.9103   6.9161
     6.9839   6.9929   7.0885   7.0921   7.1709   7.1817   7.2924   7.3012
     7.3586   7.3665   7.3774   7.3841   7.3893   7.3916   7.4213   7.4243
     7.4529   7.4926   7.5058   7.5298   7.5842   7.5891   7.6485   7.6662
     7.7052   7.7130   7.7645   7.7668   7.7716   7.7912   7.8410   7.8624
     7.8642   7.8780   7.9393   7.9579   8.0839   8.0852   8.1043   8.1071
     8.1441   8.1560   8.1923   8.2070   8.2244   8.2367   8.2951   8.3000
     8.3071   8.3096   8.3509   8.3550   8.4326   8.4442   8.5338   8.5477
     8.6309   8.6664   8.7167   8.7187   8.7416   8.7429   9.0042   9.0185
     9.4556   9.4852   9.9960  10.0268  10.6152  10.6519  11.3268  11.3453
    12.1179  12.1470  12.9886  12.9971  14.1940  14.2108  14.9820  15.0012
    15.9939  15.9966  16.5309  16.5428  17.5469  17.5698  17.8655  17.8744
    19.2080  19.2203  19.3759  19.3987

          k =-0.5000 0.2887-0.0000 ( 23540 PWs)   bands (ev):

     3.6045   3.6238   3.6865   3.6892   3.8510   3.8623   4.0327   4.0410
     4.2705   4.2759   4.5190   4.5312   4.7832   4.7959   5.0500   5.0508
     5.2318   5.2409   5.2710   5.2952   5.3122   5.3289   5.3489   5.3581
     5.3884   5.3893   5.4196   5.4336   5.4632   5.4663   5.5008   5.5045
     5.5199   5.5207   5.5348   5.5713   5.6012   5.6042   5.6630   5.6635
     5.7163   5.7257   5.7907   5.8044   5.8247   5.8274   5.8391   5.8475
     5.9871   6.0058   6.0453   6.0555   6.0716   6.0768   6.1455   6.1577
     6.1986   6.2225   6.2470   6.2588   6.3255   6.3438   6.3925   6.4110
     6.4377   6.4479   6.5020   6.5033   6.5225   6.5227   6.5571   6.6032
     6.6056   6.6063   6.6077   6.6495   6.9424   6.9535   6.9673   6.9878
     7.0026   7.0118   7.0479   7.0513   7.1510   7.1829   7.2016   7.2169
     7.2648   7.2778   7.3400   7.3667   7.4221   7.4727   7.5252   7.5378
     7.5809   7.5844   7.6259   7.6294   7.6915   7.7093   7.7721   7.7777
     7.8182   7.8359   7.9515   7.9635   8.0212   8.0268   8.0423   8.0456
     8.1558   8.1877   8.2058   8.2204   8.2401   8.2588   8.3679   8.3691
     8.3968   8.4144   8.4291   8.4367   8.4501   8.4527   8.4853   8.4904
     8.5108   8.5188   8.5386   8.5719   8.6003   8.6011   8.6337   8.6442
     8.6849   8.6870   8.7014   8.7198   8.8485   8.8518   9.2628   9.2858
     9.7473   9.7872  10.3043  10.3493  10.9329  10.9967  11.6638  11.6939
    12.4444  12.5014  13.2813  13.3028  14.7642  14.8071  15.3638  15.3965
    16.3263  16.3445  16.8319  16.8684  17.8901  17.9592  18.0497  18.0615
    19.2645  19.2907  19.3346  19.3938

          k =-0.5000 0.4330-0.0000 ( 23522 PWs)   bands (ev):

     3.9498   3.9975   4.0365   4.0416   4.1716   4.2081   4.3029   4.3265
     4.4410   4.4644   4.5717   4.5994   4.7224   4.7459   4.8708   4.8772
     4.9642   4.9779   5.0224   5.0365   5.0922   5.1085   5.1404   5.1448
     5.2053   5.2151   5.2992   5.3131   5.3425   5.3509   5.4615   5.4629
     5.5051   5.5147   5.5926   5.5970   5.6201   5.6632   5.7464   5.7556
     5.8522   5.8530   5.9298   5.9434   5.9979   6.0095   6.0469   6.0549
     6.1069   6.1363   6.1695   6.1806   6.2195   6.2269   6.2901   6.2920
     6.3295   6.3382   6.3788   6.3943   6.4468   6.4478   6.4717   6.4910
     6.5404   6.5699   6.6226   6.6529   6.7099   6.7134   6.7394   6.7623
     6.7799   6.8168   6.8486   6.8559   6.8790   6.9207   6.9399   6.9435
     7.0263   7.0386   7.1198   7.1261   7.2235   7.2354   7.3994   7.4007
     7.4648   7.4679   7.5242   7.5275   7.5526   7.5590   7.5893   7.5994
     7.6075   7.6172   7.6985   7.7069   7.8248   7.8311   7.8482   7.8485
     8.0131   8.0186   8.0992   8.1234   8.2084   8.2163   8.2690   8.2713
     8.3673   8.3682   8.4535   8.4582   8.4990   8.5068   8.5361   8.5383
     8.5722   8.5761   8.6269   8.6295   8.6500   8.6947   8.7731   8.7793
     8.7881   8.7905   8.8137   8.8422   8.8502   8.8588   8.8740   8.8780
     8.9249   8.9266   9.0143   9.0153   9.2063   9.2099   9.6204   9.6412
    10.1485  10.1892  10.7577  10.8028  11.4162  11.4957  12.1634  12.1985
    12.9194  13.0000  13.6976  13.7304  15.4124  15.4893  15.9214  15.9648
    16.7529  16.7890  17.2930  17.3919  17.4940  17.5736  17.6593  17.7007
    17.9537  17.9940  18.1181  18.1212

          k =-0.5000 0.5774-0.0000 ( 23534 PWs)   bands (ev):

     4.0140   4.0612   4.1186   4.1206   4.2842   4.3306   4.4143   4.4535
     4.4804   4.4868   4.5002   4.5013   4.5826   4.6191   4.6353   4.6495
     4.7281   4.7301   4.7571   4.7595   4.8099   4.8114   4.8706   4.8798
     4.9351   4.9542   5.0238   5.0497   5.0932   5.0958   5.2465   5.2495
     5.2659   5.2697   5.3499   5.3558   5.5478   5.5614   5.7148   5.7334
     5.8594   5.8790   6.0253   6.0534   6.1615   6.1888   6.2250   6.2843
     6.3263   6.3284   6.3534   6.3546   6.4257   6.4385   6.4882   6.4912
     6.5260   6.5333   6.5624   6.5699   6.6128   6.6161   6.7020   6.7109
     6.7480   6.7614   6.8356   6.8588   6.9480   6.9565   7.0253   7.0328
     7.0898   7.0990   7.1934   7.2024   7.2552   7.2841   7.3113   7.3437
     7.4315   7.4444   7.5654   7.5672   7.6500   7.6767   7.7445   7.7941
     7.8367   7.8437   7.9125   7.9144   7.9307   7.9387   8.0226   8.0241
     8.1266   8.1325   8.1760   8.1955   8.2109   8.2132   8.2216   8.2237
     8.2642   8.2718   8.2835   8.3010   8.4339   8.4377   8.4692   8.4729
     8.5263   8.5378   8.5774   8.5781   8.5996   8.6040   8.6672   8.6818
     8.7359   8.7375   8.7722   8.7883   8.7949   8.8400   8.9078   8.9103
     8.9335   8.9766   9.1199   9.1208   9.2232   9.2256   9.3200   9.3288
     9.3550   9.3781   9.4566   9.4660   9.6810   9.6908  10.1150  10.1214
    10.6915  10.7205  11.3670  11.3962  12.0673  12.1478  12.8258  12.8620
    13.5400  13.6435  14.2616  14.2906  15.2807  15.2961  15.3579  15.3892
    15.5533  15.5806  15.7076  15.7320  15.9735  16.0078  16.4141  16.4445
    16.9001  16.9051  17.1921  17.2003

          k =-0.5000 0.7217-0.0000 ( 23516 PWs)   bands (ev):

     3.9650   4.0056   4.0707   4.0717   4.2441   4.2557   4.2830   4.2850
     4.3340   4.3378   4.4325   4.4397   4.4770   4.4843   4.5447   4.5527
     4.5761   4.5825   4.6099   4.6121   4.6451   4.6554   4.6939   4.6989
     4.7599   4.7692   4.8134   4.8286   4.9340   4.9392   5.0718   5.0721
     5.0983   5.0988   5.2174   5.2182   5.4808   5.4813   5.7151   5.7451
     5.9018   5.9253   6.0368   6.0960   6.1605   6.1834   6.2187   6.2355
     6.3083   6.3137   6.3447   6.3533   6.3996   6.4052   6.4493   6.4532
     6.5064   6.5083   6.6364   6.6585   6.7362   6.7551   6.8047   6.8193
     6.8928   6.9213   7.0150   7.0262   7.0896   7.1039   7.2706   7.2867
     7.3412   7.3501   7.4432   7.4637   7.5958   7.6039   7.7174   7.7572
     7.8320   7.8482   7.8817   7.9143   8.1078   8.1198   8.1521   8.1631
     8.2509   8.2630   8.3921   8.4087   8.4542   8.4612   8.5318   8.5471
     8.5621   8.5649   8.5919   8.5950   8.6418   8.6428   8.6617   8.6734
     8.6940   8.6980   8.7068   8.7105   8.7255   8.7322   8.7368   8.7399
     8.7530   8.7677   8.7820   8.7905   8.8034   8.8084   8.8369   8.8394
     8.8726   8.8732   8.9233   8.9323   8.9770   9.0267   9.0753   9.0757
     9.0794   9.0902   9.5695   9.6088   9.8072   9.8092  10.0446  10.0740
    10.1894  10.2225  10.2976  10.3293  10.4647  10.5052  10.8314  10.8638
    11.3892  11.3989  12.0349  12.0662  12.7313  12.7464  13.3006  13.3796
    13.4622  13.4672  13.5257  13.5598  13.6545  13.7722  13.9318  13.9714
    14.1671  14.3267  14.5227  14.5778  14.7946  14.9328  15.2038  15.3107
    15.5542  15.5636  15.8543  15.9199

          k =-0.5000-0.8660-0.0000 ( 23552 PWs)   bands (ev):

     3.9376   3.9756   4.0425   4.0433   4.1921   4.2117   4.2181   4.2475
     4.2708   4.2800   4.3881   4.3980   4.4378   4.4403   4.4844   4.4917
     4.5236   4.5312   4.5460   4.5469   4.6034   4.6168   4.6509   4.6583
     4.6909   4.6997   4.7322   4.7346   4.8769   4.8822   5.0109   5.0135
     5.0342   5.0343   5.1728   5.1736   5.4481   5.4521   5.7086   5.7401
     5.9203   5.9398   6.0222   6.0813   6.1565   6.1644   6.1965   6.2146
     6.3052   6.3147   6.3202   6.3229   6.3611   6.3764   6.4052   6.4065
     6.5459   6.6075   6.6707   6.7052   6.7657   6.7760   6.8207   6.8424
     7.0055   7.0277   7.0394   7.0645   7.1481   7.1553   7.2804   7.2884
     7.4502   7.4629   7.5657   7.5688   7.5968   7.6260   7.8549   7.8580
     7.8988   7.9566   8.0659   8.0702   8.1113   8.1243   8.3645   8.3700
     8.3838   8.3850   8.4961   8.5046   8.5632   8.5856   8.6716   8.6951
     8.6963   8.7307   8.7362   8.7398   8.7845   8.7892   8.7928   8.7938
     8.8102   8.8219   8.8366   8.8405   8.8465   8.8506   8.8582   8.8625
     8.8828   8.8884   8.9118   8.9162   8.9450   8.9569   8.9680   8.9848
     9.0110   9.0212   9.0244   9.0279   9.0578   9.0781   9.2364   9.2366
     9.2386   9.2389  10.1736  10.2751  10.5376  10.5508  10.9053  10.9815
    11.1910  11.2470  11.4537  11.4596  11.5682  11.6279  11.6828  11.7340
    11.7683  11.7961  11.8274  11.8654  11.8748  11.8823  11.9101  12.1302
    12.1303  12.1315  12.1319  12.3433  13.2969  13.6442  13.7240  13.7562
    13.8891  14.0984  14.2564  14.3148  14.4725  14.6261  14.8445  14.9573
    15.2562  15.4594  15.8014  15.8251

     the Fermi energy is    10.7314 ev

!    total energy              =  -20153.51043104 Ry

     total all-electron energy =   -988623.508798 Ry
     estimated scf accuracy    <          6.6E-09 Ry
     smearing contrib. (-TS)   =      -0.00035764 Ry
     internal energy E=F+TS    =  -20153.51007340 Ry

     The total energy is F=E-TS. E is the sum of the following terms:
     one-electron contribution =   -8789.37773047 Ry
     hartree contribution      =    4720.19902245 Ry
     xc contribution           =    -833.59398505 Ry
     ewald contribution        =    2754.59585830 Ry
     one-center paw contrib.   =  -18005.33323863 Ry

     convergence has been achieved in  10 iterations

     negative rho (up, down):  2.280E-03 0.000E+00

     Forces acting on atoms (cartesian axes, Ry/au):

     atom    1 type  1   force =    -0.00004727    0.00002711   -0.00008061
     atom    2 type  1   force =     0.00004062   -0.00002958    0.00010222
     atom    3 type  1   force =     0.00005358   -0.00004862    0.00064298
     atom    4 type  1   force =     0.00299265   -0.00589920   -0.00032572
     atom    5 type  1   force =    -0.00004020    0.00000192   -0.00026815
     atom    6 type  1   force =     0.00001445    0.00001199    0.00003362
     atom    7 type  1   force =    -0.00007110   -0.00000027    0.00021342
     atom    8 type  1   force =    -0.00291753    0.00592687    0.00038756
     atom    9 type  1   force =     0.00000875    0.00001584   -0.00073789
     atom   10 type  1   force =     0.00006606    0.00000060    0.00000061
     atom   11 type  1   force =    -0.00001175   -0.00003778    0.00005422
     atom   12 type  1   force =    -0.00005879   -0.00070141    0.00082229
     atom   13 type  1   force =    -0.00003646    0.00062790   -0.00084363
     atom   14 type  1   force =     0.00001150    0.00001228    0.00003594
     atom   15 type  1   force =    -0.00006924    0.00003297    0.00021353
     atom   16 type  1   force =    -0.00291706    0.00596298    0.00038751
     atom   17 type  1   force =     0.00001079    0.00001049   -0.00073689
     atom   18 type  1   force =     0.00006158   -0.00000674    0.00000159
     atom   19 type  1   force =    -0.00000417    0.00000695    0.00005296
     atom   20 type  1   force =    -0.00005654   -0.00066256    0.00082194
     atom   21 type  1   force =    -0.00003382    0.00062342   -0.00084462
     atom   22 type  1   force =    -0.00004196    0.00002697   -0.00008583
     atom   23 type  1   force =     0.00004001    0.00000997    0.00010551
     atom   24 type  1   force =     0.00005578   -0.00001058    0.00064351
     atom   25 type  1   force =     0.00299269   -0.00590086   -0.00032557
     atom   26 type  1   force =    -0.00004255   -0.00000066   -0.00027051

     Total force =     0.002342     Total SCF correction =     0.000321
     SCF correction compared to forces is large: reduce conv_thr to get better values

     BFGS Geometry Optimization
     Energy error            =      0.0E+00 Ry
     Gradient error          =      8.4E-04 Ry/Bohr

     bfgs converged in   1 scf cycles and   0 bfgs steps
     (criteria: energy <  1.0E-04 Ry, force <  1.0E-03 Ry/Bohr)

     End of BFGS Geometry Optimization

     Final energy             =  -20153.5104310434 Ry
Begin final coordinates

ATOMIC_POSITIONS (angstrom)
Au           -0.0000000000        0.0000000000       -0.0113835211    0   0   1
Au            5.0991277561       -0.4233318201       28.8565302851    0   0   1
Au            5.0991339819       -0.4233318201       21.6393422399    0   0   1
Au            5.0991389889        0.0000000000       14.3996142736    0   0   1
Au            5.0991452147        0.0000000000        7.2093849592    0   0   1
Au            1.6997150733        0.0000000000        2.4187938425    0   0   1
Au            1.6996977676       -0.4233318201       24.0379971074    0   0   1
Au            1.6997039934       -0.4233318201       16.8501627850    0   0   1
Au            1.6997090005        0.0000000000        9.6083479320    0   0   1
Au            3.3994301414        0.0000000000        4.8082122376    0   0   1
Au            3.3994129888       -0.4233318201       26.4265821204    0   0   1
Au            3.3994189086       -0.4233318201       19.2452623057    0   0   1
Au            3.3994248284        0.0000000000       12.0046487511    0   0   1
Au            4.2492909414        1.4719970299        2.4187849125    0   0   1
Au            4.2492725751        1.0486652098       24.0379979070    0   0   1
Au            4.2492788009        1.0486652098       16.8501623575    0   0   1
Au            4.2492850215        1.4719970299        9.6083566341    0   0   1
Au            0.8498539674        1.4719970299        4.8082187354    0   0   1
Au            0.8498368147        1.0486652098       26.4265948317    0   0   1
Au            0.8498428875        1.0486652098       19.2452582459    0   0   1
Au            0.8498488838        1.4719970299       12.0046773255    0   0   1
Au            2.5495761740        1.4719970299       -0.0114265548    0   0   1
Au            2.5495526478        1.0486652098       28.8566105368    0   0   1
Au            2.5495578078        1.0486652098       21.6393607977    0   0   1
Au            2.5495637276        1.4719970299       14.3996213073    0   0   1
Au            2.5495699534        1.4719970299        7.2093531213    0   0   1
End final coordinates



     Writing all to output data dir ./pwscf.save/
 
     init_run     :     26.53s CPU     28.00s WALL (       1 calls)
     electrons    :  16677.30s CPU  16799.33s WALL (      17 calls)
     update_pot   :     10.47s CPU     10.80s WALL (      16 calls)
     forces       :    188.61s CPU    189.86s WALL (      17 calls)

     Called by init_run:
     wfcinit      :     25.73s CPU     26.72s WALL (       1 calls)
     potinit      :      0.45s CPU      0.64s WALL (       1 calls)
     hinit0       :      0.22s CPU      0.43s WALL (       1 calls)

     Called by electrons:
     c_bands      :  15000.93s CPU  15102.88s WALL (     244 calls)
     sum_band     :   1586.23s CPU   1601.15s WALL (     244 calls)
     v_of_rho     :      6.02s CPU      8.02s WALL (     245 calls)
     newd         :     19.24s CPU     21.73s WALL (     245 calls)
     PAW_pot      :     74.60s CPU     74.85s WALL (     261 calls)
     mix_rho      :      1.48s CPU      1.49s WALL (     244 calls)

     Called by c_bands:
     init_us_2    :    176.97s CPU    178.50s WALL (   26100 calls)
     init_us_2:cp :    176.77s CPU    178.42s WALL (   26100 calls)
     cegterg      :  14255.91s CPU  14352.77s WALL (   12258 calls)

     Called by *egterg:
     cdiaghg      :    820.98s CPU    827.30s WALL (   43905 calls)
     h_psi        :   7383.18s CPU   7445.19s WALL (   45613 calls)
     s_psi        :   1393.71s CPU   1399.20s WALL (   45613 calls)
     g_psi        :     29.73s CPU     30.13s WALL (   33305 calls)

     Called by h_psi:
     h_psi:calbec :   1343.87s CPU   1348.70s WALL (   45613 calls)
     vloc_psi     :   4439.00s CPU   4484.13s WALL (   45613 calls)
     add_vuspsi   :   1536.16s CPU   1543.38s WALL (   45613 calls)

     General routines
     calbec       :   2009.21s CPU   2016.38s WALL (   62013 calls)
     fft          :      6.04s CPU      8.28s WALL (    2914 calls)
     ffts         :      0.22s CPU      0.22s WALL (     244 calls)
     fftw         :   4927.47s CPU   4973.23s WALL (12659396 calls)
 
     Parallel routines
 
     PWSCF        :      4h42m CPU      4h45m WALL

 
   This run was terminated on:   0:11:26  16Feb2024            

=------------------------------------------------------------------------------=
   JOB DONE.
=------------------------------------------------------------------------------=
