MPI startup(): Warning: I_MPI_PMI_LIBRARY will be ignored since the hydra process manager was found
MPI startup(): Warning: I_MPI_PMI_LIBRARY will be ignored since the hydra process manager was found
MPI startup(): Warning: I_MPI_PMI_LIBRARY will be ignored since the hydra process manager was found
MPI startup(): Warning: I_MPI_PMI_LIBRARY will be ignored since the hydra process manager was found
MPI startup(): Warning: I_MPI_PMI_LIBRARY will be ignored since the hydra process manager was found
MPI startup(): Warning: I_MPI_PMI_LIBRARY will be ignored since the hydra process manager was found
MPI startup(): Warning: I_MPI_PMI_LIBRARY will be ignored since the hydra process manager was found
MPI startup(): Warning: I_MPI_PMI_LIBRARY will be ignored since the hydra process manager was found
MPI startup(): Warning: I_MPI_PMI_LIBRARY will be ignored since the hydra process manager was found
MPI startup(): Warning: I_MPI_PMI_LIBRARY will be ignored since the hydra process manager was found

     Program PWSCF v.7.0 starts on 16Feb2024 at  1:19:22 

     This program is part of the open-source Quantum ESPRESSO suite
     for quantum simulation of materials; please cite
         "P. Giannozzi et al., J. Phys.:Condens. Matter 21 395502 (2009);
         "P. Giannozzi et al., J. Phys.:Condens. Matter 29 465901 (2017);
         "P. Giannozzi et al., J. Chem. Phys. 152 154105 (2020);
          URL http://www.quantum-espresso.org", 
     in publications or presentations arising from this work. More details at
     http://www.quantum-espresso.org/quote

     Parallel version (MPI), running on    10 processors

     MPI processes distributed on     1 nodes
     R & G space division:  proc/nbgrp/npool/nimage =      10
     180978 MiB available memory on the printing compute node when the environment starts
 
     Reading input from GSF111_0.5.in
Warning: card &CELL ignored
Warning: card / ignored

     Current dimensions of program PWSCF are:
     Max number of different atomic species (ntypx) = 10
     Max number of k-points (npk) =  40000
     Max angular momentum in pseudopotentials (lmaxx) =  4
     file Au.pbe-n-kjpaw_psl.1.0.0.UPF: wavefunction(s)  6S 5D renormalized
     Found identity + ( -0.5000  0.5000  0.0000) symmetry
     This is a supercell, fractional translations are disabled
     Message from routine setup:
     using ibrav=0 with symmetry is DISCOURAGED, use correct ibrav instead

     Subspace diagonalization in iterative solution of the eigenvalue problem:
     one sub-group per band group will be used
     scalapack distributed-memory algorithm (size of sub-group:  3*  3 procs)

 
     Parallelization info
     --------------------
     sticks:   dense  smooth     PW     G-vecs:    dense   smooth      PW
     Min          85      85     25                18799    18799    3045
     Max          87      87     26                18816    18816    3065
     Sum         859     859    251               188065   188065   30575
 
     Using Slab Decomposition
 


     bravais-lattice index     =            0
     lattice parameter (alat)  =       9.6360  a.u.
     unit-cell volume          =    3935.2145 (a.u.)^3
     number of atoms/cell      =           26
     number of atomic types    =            1
     number of electrons       =       286.00
     number of Kohn-Sham states=          172
     kinetic-energy cutoff     =      50.0000  Ry
     charge density cutoff     =     200.0000  Ry
     scf convergence threshold =      1.0E-06
     mixing beta               =       0.7000
     number of iterations used =            8  plain     mixing
     Exchange-correlation= SLA  PW   PBX  PBC
                           (   1   4   3   4   0   0   0)

     celldm(1)=   9.635999  celldm(2)=   0.000000  celldm(3)=   0.000000
     celldm(4)=   0.000000  celldm(5)=   0.000000  celldm(6)=   0.000000

     crystal axes: (cart. coord. in units of alat)
               a(1) = (   1.000000   0.000000   0.000000 )  
               a(2) = (   0.000000   0.577350   0.000000 )  
               a(3) = (  -0.000005   0.000000   7.617966 )  

     reciprocal axes: (cart. coord. in units 2 pi/alat)
               b(1) = (  1.000000  0.000000  0.000001 )  
               b(2) = (  0.000000  1.732052  0.000000 )  
               b(3) = (  0.000000  0.000000  0.131269 )  


     PseudoPot. # 1 for Au read from file:
     ./Au.pbe-n-kjpaw_psl.1.0.0.UPF
     MD5 check sum: 4db85c736373c707a97ce4c36c2a9d23
     Pseudo is Projector augmented-wave + core cor, Zval = 11.0
     Generated using &quot;atomic&quot; code by A. Dal Corso  v.6.3
     Shape of augmentation charge: PSQ
     Using radial grid of 1279 points,  6 beta functions with: 
                l(1) =   0
                l(2) =   0
                l(3) =   1
                l(4) =   1
                l(5) =   2
                l(6) =   2
     Q(r) pseudized with 0 coefficients 


     atomic species   valence    mass     pseudopotential
        Au            11.00   196.96657     Au( 1.00)

      2 Sym. Ops. (no inversion) found



   Cartesian axes

     site n.     atom                  positions (alat units)
         1           Au  tau(   1) = (   0.0000000   0.0000000   0.0000000  )
         2           Au  tau(   2) = (   0.9999954   0.2886755   5.6568550  )
         3           Au  tau(   3) = (   0.9999966   0.2886755   4.2426411  )
         4           Au  tau(   4) = (   0.9999976   0.0000000   2.8284275  )
         5           Au  tau(   5) = (   0.9999988   0.0000000   1.4142138  )
         6           Au  tau(   6) = (   0.3333329   0.0000000   0.4714045  )
         7           Au  tau(   7) = (   0.3333296   0.2886755   4.7140455  )
         8           Au  tau(   8) = (   0.3333308   0.2886755   3.2998319  )
         9           Au  tau(   9) = (   0.3333318   0.0000000   1.8856185  )
        10           Au  tau(  10) = (   0.6666659   0.0000000   0.9428093  )
        11           Au  tau(  11) = (   0.6666625   0.2886755   5.1854506  )
        12           Au  tau(  12) = (   0.6666637   0.2886755   3.7712367  )
        13           Au  tau(  13) = (   0.6666649   0.0000000   2.3570234  )
        14           Au  tau(  14) = (   0.8333330   0.2886749   0.4714045  )
        15           Au  tau(  15) = (   0.8333294   0.5773504   4.7140455  )
        16           Au  tau(  16) = (   0.8333306   0.5773504   3.2998319  )
        17           Au  tau(  17) = (   0.8333318   0.2886749   1.8856185  )
        18           Au  tau(  18) = (   0.1666658   0.2886749   0.9428093  )
        19           Au  tau(  19) = (   0.1666624   0.5773504   5.1854506  )
        20           Au  tau(  20) = (   0.1666636   0.5773504   3.7712367  )
        21           Au  tau(  21) = (   0.1666648   0.2886749   2.3570234  )
        22           Au  tau(  22) = (   0.5000001   0.2886749   0.0000000  )
        23           Au  tau(  23) = (   0.4999955   0.5773504   5.6568550  )
        24           Au  tau(  24) = (   0.4999965   0.5773504   4.2426411  )
        25           Au  tau(  25) = (   0.4999977   0.2886749   2.8284275  )
        26           Au  tau(  26) = (   0.4999989   0.2886749   1.4142138  )

     number of k points=    35  Gaussian smearing, width (Ry)=  0.0200
                       cart. coord. in units 2pi/alat
        k(    1) = (   0.0000000   0.0000000   0.0000000), wk =   0.0208333
        k(    2) = (   0.0000000   0.1443376   0.0000000), wk =   0.0416667
        k(    3) = (   0.0000000   0.2886753   0.0000000), wk =   0.0416667
        k(    4) = (   0.0000000   0.4330129   0.0000000), wk =   0.0416667
        k(    5) = (   0.0000000   0.5773506   0.0000000), wk =   0.0416667
        k(    6) = (   0.0000000   0.7216882   0.0000000), wk =   0.0416667
        k(    7) = (   0.0000000  -0.8660259   0.0000000), wk =   0.0208333
        k(    8) = (   0.1250000   0.0000000   0.0000001), wk =   0.0416667
        k(    9) = (   0.1250000   0.1443376   0.0000001), wk =   0.0833333
        k(   10) = (   0.1250000   0.2886753   0.0000001), wk =   0.0833333
        k(   11) = (   0.1250000   0.4330129   0.0000001), wk =   0.0833333
        k(   12) = (   0.1250000   0.5773506   0.0000001), wk =   0.0833333
        k(   13) = (   0.1250000   0.7216882   0.0000001), wk =   0.0833333
        k(   14) = (   0.1250000  -0.8660259   0.0000001), wk =   0.0416667
        k(   15) = (   0.2500000   0.0000000   0.0000002), wk =   0.0416667
        k(   16) = (   0.2500000   0.1443376   0.0000002), wk =   0.0833333
        k(   17) = (   0.2500000   0.2886753   0.0000002), wk =   0.0833333
        k(   18) = (   0.2500000   0.4330129   0.0000002), wk =   0.0833333
        k(   19) = (   0.2500000   0.5773506   0.0000002), wk =   0.0833333
        k(   20) = (   0.2500000   0.7216882   0.0000002), wk =   0.0833333
        k(   21) = (   0.2500000  -0.8660259   0.0000002), wk =   0.0416667
        k(   22) = (   0.3750000   0.0000000   0.0000002), wk =   0.0416667
        k(   23) = (   0.3750000   0.1443376   0.0000002), wk =   0.0833333
        k(   24) = (   0.3750000   0.2886753   0.0000002), wk =   0.0833333
        k(   25) = (   0.3750000   0.4330129   0.0000002), wk =   0.0833333
        k(   26) = (   0.3750000   0.5773506   0.0000002), wk =   0.0833333
        k(   27) = (   0.3750000   0.7216882   0.0000002), wk =   0.0833333
        k(   28) = (   0.3750000  -0.8660259   0.0000002), wk =   0.0416667
        k(   29) = (  -0.5000000   0.0000000  -0.0000003), wk =   0.0208333
        k(   30) = (  -0.5000000   0.1443376  -0.0000003), wk =   0.0416667
        k(   31) = (  -0.5000000   0.2886753  -0.0000003), wk =   0.0416667
        k(   32) = (  -0.5000000   0.4330129  -0.0000003), wk =   0.0416667
        k(   33) = (  -0.5000000   0.5773506  -0.0000003), wk =   0.0416667
        k(   34) = (  -0.5000000   0.7216882  -0.0000003), wk =   0.0416667
        k(   35) = (  -0.5000000  -0.8660259  -0.0000003), wk =   0.0208333

     Dense  grid:   188065 G-vectors     FFT dimensions: (  45,  25, 360)

     Estimated max dynamical RAM per process >     325.85 MB

     Estimated total dynamical RAM >       3.18 GB

     Initial potential from superposition of free atoms

     starting charge     285.9971, renormalised to     286.0000

     negative rho (up, down):  2.503E-03 0.000E+00
     Starting wfcs are  234 randomized atomic wfcs
     Checking if some PAW data can be deallocated... 

     total cpu time spent up to now is       20.5 secs

     Self-consistent Calculation

     iteration #  1     ecut=    50.00 Ry     beta= 0.70
     Davidson diagonalization with overlap
     ethr =  1.00E-02,  avg # of iterations =  5.1

     Threshold (ethr) on eigenvalues was too large:
     Diagonalizing with lowered threshold

     Davidson diagonalization with overlap
     ethr =  3.97E-04,  avg # of iterations =  4.0

     negative rho (up, down):  1.711E-03 0.000E+00

     total cpu time spent up to now is      121.2 secs

     total energy              =  -20152.81055366 Ry
     estimated scf accuracy    <       1.44486429 Ry

     iteration #  2     ecut=    50.00 Ry     beta= 0.70
     Davidson diagonalization with overlap
     c_bands:  2 eigenvalues not converged
     ethr =  5.05E-04,  avg # of iterations = 15.0

     negative rho (up, down):  1.712E-03 0.000E+00

     total cpu time spent up to now is      217.1 secs

     total energy              =  -20134.98674700 Ry
     estimated scf accuracy    <    2392.65565771 Ry

     iteration #  3     ecut=    50.00 Ry     beta= 0.70
     Davidson diagonalization with overlap
     ethr =  5.05E-04,  avg # of iterations = 10.7

     negative rho (up, down):  1.861E-03 0.000E+00

     total cpu time spent up to now is      298.6 secs

     total energy              =  -20152.12280447 Ry
     estimated scf accuracy    <       7.62060732 Ry

     iteration #  4     ecut=    50.00 Ry     beta= 0.70
     Davidson diagonalization with overlap
     ethr =  5.05E-04,  avg # of iterations = 10.0

     negative rho (up, down):  1.914E-03 0.000E+00

     total cpu time spent up to now is      370.6 secs

     total energy              =  -20148.06345307 Ry
     estimated scf accuracy    <     346.87686561 Ry

     iteration #  5     ecut=    50.00 Ry     beta= 0.70
     Davidson diagonalization with overlap
     ethr =  5.05E-04,  avg # of iterations = 13.1

     negative rho (up, down):  1.771E-03 0.000E+00

     total cpu time spent up to now is      452.7 secs

     total energy              =  -20136.57640972 Ry
     estimated scf accuracy    <    2800.48632930 Ry

     iteration #  6     ecut=    50.00 Ry     beta= 0.70
     Davidson diagonalization with overlap
     ethr =  5.05E-04,  avg # of iterations = 10.9

     negative rho (up, down):  1.759E-03 0.000E+00

     total cpu time spent up to now is      528.9 secs

     total energy              =  -20153.29528399 Ry
     estimated scf accuracy    <       2.35086710 Ry

     iteration #  7     ecut=    50.00 Ry     beta= 0.70
     Davidson diagonalization with overlap
     ethr =  5.05E-04,  avg # of iterations =  3.3

     negative rho (up, down):  1.785E-03 0.000E+00

     total cpu time spent up to now is      570.4 secs

     total energy              =  -20153.41419578 Ry
     estimated scf accuracy    <       1.80286668 Ry

     iteration #  8     ecut=    50.00 Ry     beta= 0.70
     Davidson diagonalization with overlap
     ethr =  5.05E-04,  avg # of iterations =  1.1

     negative rho (up, down):  1.824E-03 0.000E+00

     total cpu time spent up to now is      607.1 secs

     total energy              =  -20153.45282436 Ry
     estimated scf accuracy    <       1.31748921 Ry

     iteration #  9     ecut=    50.00 Ry     beta= 0.70
     Davidson diagonalization with overlap
     ethr =  4.61E-04,  avg # of iterations =  1.1

     negative rho (up, down):  1.917E-03 0.000E+00

     total cpu time spent up to now is      643.4 secs

     total energy              =  -20153.47589722 Ry
     estimated scf accuracy    <       0.55471875 Ry

     iteration # 10     ecut=    50.00 Ry     beta= 0.70
     Davidson diagonalization with overlap
     ethr =  1.94E-04,  avg # of iterations =  1.3

     negative rho (up, down):  2.144E-03 0.000E+00

     total cpu time spent up to now is      680.9 secs

     total energy              =  -20153.47717432 Ry
     estimated scf accuracy    <       0.32390614 Ry

     iteration # 11     ecut=    50.00 Ry     beta= 0.70
     Davidson diagonalization with overlap
     ethr =  1.13E-04,  avg # of iterations =  1.8

     negative rho (up, down):  2.264E-03 0.000E+00

     total cpu time spent up to now is      719.0 secs

     total energy              =  -20153.47905909 Ry
     estimated scf accuracy    <       0.10897769 Ry

     iteration # 12     ecut=    50.00 Ry     beta= 0.70
     Davidson diagonalization with overlap
     ethr =  3.81E-05,  avg # of iterations =  9.8

     negative rho (up, down):  2.196E-03 0.000E+00

     total cpu time spent up to now is      769.6 secs

     total energy              =  -20153.47041166 Ry
     estimated scf accuracy    <       0.97833785 Ry

     iteration # 13     ecut=    50.00 Ry     beta= 0.70
     Davidson diagonalization with overlap
     ethr =  3.81E-05,  avg # of iterations =  5.6

     negative rho (up, down):  2.343E-03 0.000E+00

     total cpu time spent up to now is      814.1 secs

     total energy              =  -20153.48171312 Ry
     estimated scf accuracy    <       0.08236129 Ry

     iteration # 14     ecut=    50.00 Ry     beta= 0.70
     Davidson diagonalization with overlap
     c_bands:  1 eigenvalues not converged
     ethr =  2.88E-05,  avg # of iterations =  4.6

     negative rho (up, down):  2.285E-03 0.000E+00

     total cpu time spent up to now is      856.1 secs

     total energy              =  -20153.48103181 Ry
     estimated scf accuracy    <       0.28310050 Ry

     iteration # 15     ecut=    50.00 Ry     beta= 0.70
     Davidson diagonalization with overlap
     ethr =  2.88E-05,  avg # of iterations =  2.9

     negative rho (up, down):  2.279E-03 0.000E+00

     total cpu time spent up to now is      896.2 secs

     total energy              =  -20153.48286224 Ry
     estimated scf accuracy    <       0.41953779 Ry

     iteration # 16     ecut=    50.00 Ry     beta= 0.70
     Davidson diagonalization with overlap
     ethr =  2.88E-05,  avg # of iterations =  1.3

     negative rho (up, down):  2.290E-03 0.000E+00

     total cpu time spent up to now is      932.6 secs

     total energy              =  -20153.48761681 Ry
     estimated scf accuracy    <       0.03121586 Ry

     iteration # 17     ecut=    50.00 Ry     beta= 0.70
     Davidson diagonalization with overlap
     ethr =  1.09E-05,  avg # of iterations =  1.8

     negative rho (up, down):  2.293E-03 0.000E+00

     total cpu time spent up to now is      970.1 secs

     total energy              =  -20153.48854551 Ry
     estimated scf accuracy    <       0.00084996 Ry

     iteration # 18     ecut=    50.00 Ry     beta= 0.70
     Davidson diagonalization with overlap
     c_bands:  1 eigenvalues not converged
     c_bands:  1 eigenvalues not converged
     c_bands:  1 eigenvalues not converged
     ethr =  2.97E-07,  avg # of iterations =  9.3

     negative rho (up, down):  2.295E-03 0.000E+00

     total cpu time spent up to now is     1026.1 secs

     total energy              =  -20153.48851941 Ry
     estimated scf accuracy    <       0.00567397 Ry

     iteration # 19     ecut=    50.00 Ry     beta= 0.70
     Davidson diagonalization with overlap
     c_bands:  1 eigenvalues not converged
     ethr =  2.97E-07,  avg # of iterations =  2.6

     negative rho (up, down):  2.297E-03 0.000E+00

     total cpu time spent up to now is     1064.0 secs

     total energy              =  -20153.48867511 Ry
     estimated scf accuracy    <       0.00253848 Ry

     iteration # 20     ecut=    50.00 Ry     beta= 0.70
     Davidson diagonalization with overlap
     ethr =  2.97E-07,  avg # of iterations =  1.3

     negative rho (up, down):  2.306E-03 0.000E+00

     total cpu time spent up to now is     1100.2 secs

     total energy              =  -20153.48870060 Ry
     estimated scf accuracy    <       0.00026246 Ry

     iteration # 21     ecut=    50.00 Ry     beta= 0.70
     Davidson diagonalization with overlap
     c_bands:  1 eigenvalues not converged
     ethr =  9.18E-08,  avg # of iterations =  3.5

     negative rho (up, down):  2.307E-03 0.000E+00

     total cpu time spent up to now is     1149.3 secs

     total energy              =  -20153.48853762 Ry
     estimated scf accuracy    <       0.00389760 Ry

     iteration # 22     ecut=    50.00 Ry     beta= 0.70
     Davidson diagonalization with overlap
     ethr =  9.18E-08,  avg # of iterations =  2.6

     negative rho (up, down):  2.309E-03 0.000E+00

     total cpu time spent up to now is     1191.2 secs

     total energy              =  -20153.48867626 Ry
     estimated scf accuracy    <       0.00202155 Ry

     iteration # 23     ecut=    50.00 Ry     beta= 0.70
     Davidson diagonalization with overlap
     ethr =  9.18E-08,  avg # of iterations =  2.0

     negative rho (up, down):  2.308E-03 0.000E+00

     total cpu time spent up to now is     1230.2 secs

     total energy              =  -20153.48859120 Ry
     estimated scf accuracy    <       0.01209500 Ry

     iteration # 24     ecut=    50.00 Ry     beta= 0.70
     Davidson diagonalization with overlap
     ethr =  9.18E-08,  avg # of iterations =  2.0

     negative rho (up, down):  2.310E-03 0.000E+00

     total cpu time spent up to now is     1268.8 secs

     total energy              =  -20153.48875698 Ry
     estimated scf accuracy    <       0.00054286 Ry

     iteration # 25     ecut=    50.00 Ry     beta= 0.70
     Davidson diagonalization with overlap
     ethr =  9.18E-08,  avg # of iterations =  1.1

     negative rho (up, down):  2.310E-03 0.000E+00

     total cpu time spent up to now is     1304.4 secs

     total energy              =  -20153.48877316 Ry
     estimated scf accuracy    <       0.00040314 Ry

     iteration # 26     ecut=    50.00 Ry     beta= 0.70
     Davidson diagonalization with overlap
     ethr =  9.18E-08,  avg # of iterations =  1.0

     negative rho (up, down):  2.310E-03 0.000E+00

     total cpu time spent up to now is     1339.4 secs

     total energy              =  -20153.48877135 Ry
     estimated scf accuracy    <       0.00098227 Ry

     iteration # 27     ecut=    50.00 Ry     beta= 0.70
     Davidson diagonalization with overlap
     ethr =  9.18E-08,  avg # of iterations =  1.0

     negative rho (up, down):  2.311E-03 0.000E+00

     total cpu time spent up to now is     1370.1 secs

     total energy              =  -20153.48878431 Ry
     estimated scf accuracy    <       0.00001640 Ry

     iteration # 28     ecut=    50.00 Ry     beta= 0.70
     Davidson diagonalization with overlap
     ethr =  5.73E-09,  avg # of iterations =  2.0

     negative rho (up, down):  2.311E-03 0.000E+00

     total cpu time spent up to now is     1405.3 secs

     total energy              =  -20153.48878033 Ry
     estimated scf accuracy    <       0.00014612 Ry

     iteration # 29     ecut=    50.00 Ry     beta= 0.70
     Davidson diagonalization with overlap
     ethr =  5.73E-09,  avg # of iterations =  1.3

     negative rho (up, down):  2.311E-03 0.000E+00

     total cpu time spent up to now is     1437.0 secs

     total energy              =  -20153.48878475 Ry
     estimated scf accuracy    <       0.00004465 Ry

     iteration # 30     ecut=    50.00 Ry     beta= 0.70
     Davidson diagonalization with overlap
     ethr =  5.73E-09,  avg # of iterations =  1.1

     negative rho (up, down):  2.311E-03 0.000E+00

     total cpu time spent up to now is     1468.1 secs

     total energy              =  -20153.48878656 Ry
     estimated scf accuracy    <       0.00000369 Ry

     iteration # 31     ecut=    50.00 Ry     beta= 0.70
     Davidson diagonalization with overlap
     ethr =  1.29E-09,  avg # of iterations =  2.0

     negative rho (up, down):  2.311E-03 0.000E+00

     total cpu time spent up to now is     1505.2 secs

     total energy              =  -20153.48878679 Ry
     estimated scf accuracy    <       0.00000252 Ry

     iteration # 32     ecut=    50.00 Ry     beta= 0.70
     Davidson diagonalization with overlap
     ethr =  8.82E-10,  avg # of iterations =  1.7

     negative rho (up, down):  2.311E-03 0.000E+00

     total cpu time spent up to now is     1542.5 secs

     total energy              =  -20153.48878696 Ry
     estimated scf accuracy    <       0.00000135 Ry

     iteration # 33     ecut=    50.00 Ry     beta= 0.70
     Davidson diagonalization with overlap
     ethr =  4.73E-10,  avg # of iterations =  2.0

     negative rho (up, down):  2.311E-03 0.000E+00

     total cpu time spent up to now is     1582.1 secs

     total energy              =  -20153.48878664 Ry
     estimated scf accuracy    <       0.00003530 Ry

     iteration # 34     ecut=    50.00 Ry     beta= 0.70
     Davidson diagonalization with overlap
     ethr =  4.73E-10,  avg # of iterations =  1.0

     negative rho (up, down):  2.311E-03 0.000E+00

     total cpu time spent up to now is     1617.4 secs

     End of self-consistent calculation

          k = 0.0000 0.0000 0.0000 ( 23605 PWs)   bands (ev):

     1.5128   1.6478   1.8899   2.1897   2.5583   2.9482   3.3248   3.6244
     3.8211   3.8860   3.9229   4.0067   4.0613   4.0655   4.0690   4.2058
     4.2147   4.2796   4.3974   4.4262   4.4624   4.5504   4.5557   4.5986
     4.6323   4.6769   4.8438   4.9353   4.9916   5.0474   5.2149   5.2994
     5.3964   5.4489   5.7463   5.9811   6.1433   6.1705   6.1864   6.2257
     6.2472   6.2649   6.3027   6.3132   6.3226   6.3243   6.3269   6.3449
     6.3484   6.3510   6.3650   6.3868   6.4024   6.4098   6.4119   6.4220
     6.4346   6.4662   6.4724   6.4724   6.5075   6.5166   6.5341   6.5463
     6.5550   6.5568   6.5603   6.5879   6.5944   6.6209   6.6272   6.6974
     6.7342   6.7611   6.8646   6.8648   6.8681   6.8681   6.9109   6.9884
     7.0515   7.1370   7.1642   7.2569   7.4892   7.5446   7.6573   7.6604
     7.6674   7.6725   7.6821   7.6920   7.6969   7.7051   7.7287   7.7470
     7.7611   7.8377   7.8482   7.8557   7.8945   7.9444   7.9943   8.0224
     8.0428   8.1259   8.1610   8.1846   8.3072   8.3489   8.3757   8.3867
     8.5098   8.5146   8.5590   8.5694   8.5819   8.6724   8.6908   8.6928
     8.7077   8.7444   8.7531   8.7573   8.7788   8.7956   8.7967   8.8035
     8.8242   8.8316   8.8411   8.8602   8.8828   8.9078   8.9377   8.9777
     9.0157   9.0706   9.1186   9.2143   9.2176   9.4234  10.2110  10.5105
    10.5695  10.6283  10.9369  11.2580  11.4725  11.6290  11.7298  11.7890
    11.8568  11.8772  11.9458  12.1153  12.1184  13.5110  13.7307  13.9715
    14.0291  14.2883  14.5406  14.8671  14.8878  15.0756  15.3445  15.8998
    16.2755  16.4149  16.4642  16.4702

          k = 0.0000 0.1443 0.0000 ( 23551 PWs)   bands (ev):

     1.6640   1.7993   2.0384   2.3373   2.7037   3.0930   3.4696   3.7678
     3.9584   4.0166   4.0354   4.1290   4.1840   4.2011   4.2046   4.2945
     4.3286   4.3863   4.5049   4.5543   4.5693   4.6426   4.6508   4.7339
     4.7537   4.7900   4.9088   5.0259   5.1186   5.1572   5.2813   5.3509
     5.4017   5.4809   5.7526   5.9477   6.0819   6.0857   6.1009   6.1282
     6.1443   6.1774   6.2132   6.2499   6.2524   6.2782   6.3051   6.3114
     6.3450   6.3562   6.3645   6.4072   6.4243   6.4403   6.4412   6.4492
     6.4594   6.4619   6.4766   6.5018   6.5160   6.5436   6.5510   6.5829
     6.5895   6.6093   6.6242   6.6367   6.6399   6.6552   6.6759   6.6861
     6.7170   6.7287   6.8131   6.8418   6.8436   6.8950   6.9086   6.9459
     6.9510   6.9897   7.1365   7.2594   7.2851   7.3441   7.4621   7.5159
     7.5298   7.5676   7.5832   7.5984   7.6418   7.6951   7.7006   7.7013
     7.7555   7.7786   7.7833   7.8169   7.8472   7.8993   7.9438   7.9873
     8.0216   8.0345   8.0861   8.1314   8.1658   8.2295   8.2376   8.3194
     8.3632   8.4110   8.4685   8.4745   8.4851   8.5295   8.5342   8.5710
     8.5824   8.6091   8.6393   8.6920   8.7194   8.7240   8.7297   8.7422
     8.7491   8.7628   8.7636   8.8033   8.8473   8.8637   8.8858   8.8942
     8.9376   9.0398   9.0508   9.1573   9.4441   9.9878  10.8615  10.9221
    11.0767  11.0983  11.3216  11.5372  11.6860  11.8063  11.9066  11.9940
    12.1080  12.2268  12.3656  12.5001  12.5272  13.5104  13.7700  14.0445
    14.0614  14.3805  14.6425  14.9292  15.0203  15.1859  15.5001  16.0547
    16.2110  16.5065  16.5390  16.5673

          k = 0.0000 0.2887 0.0000 ( 23495 PWs)   bands (ev):

     2.1019   2.2373   2.4646   2.7579   3.1130   3.4965   3.8699   4.1630
     4.3233   4.3345   4.3745   4.4621   4.4979   4.5198   4.5746   4.5777
     4.6034   4.6296   4.7434   4.8536   4.8852   4.9231   4.9383   5.0285
     5.0739   5.1045   5.2017   5.2040   5.3858   5.3964   5.4294   5.4920
     5.5622   5.6124   5.7535   5.8358   5.8500   5.8680   5.9047   5.9584
     5.9773   5.9796   6.0188   6.0352   6.0498   6.0809   6.1181   6.1216
     6.1699   6.1865   6.2053   6.2498   6.3514   6.3711   6.3875   6.4382
     6.4871   6.4932   6.5835   6.5850   6.6038   6.6129   6.6200   6.6339
     6.6532   6.6841   6.6853   6.7004   6.7425   6.7481   6.7773   6.7824
     6.7871   6.8305   6.8563   6.8600   6.8799   6.9041   6.9383   6.9717
     6.9986   7.0117   7.0765   7.1030   7.1230   7.1497   7.2066   7.2181
     7.2196   7.2889   7.3535   7.3612   7.4344   7.4470   7.4679   7.4803
     7.5827   7.5862   7.6587   7.6805   7.7049   7.7671   7.7966   7.8198
     7.8680   7.9048   7.9144   7.9435   7.9866   8.0031   8.0666   8.0720
     8.1216   8.1763   8.2073   8.2732   8.3134   8.3178   8.3600   8.4631
     8.4711   8.5094   8.5286   8.5527   8.5783   8.5851   8.6100   8.6500
     8.6839   8.7045   8.7183   8.7188   8.7719   8.7950   8.8531   8.9295
     8.9515   9.1026   9.1497   9.4992  10.2038  10.8171  11.7600  11.9743
    11.9902  12.0138  12.0606  12.1282  12.1361  12.2309  12.3513  12.5135
    12.6955  12.9304  13.1252  13.3743  13.5542  13.5964  14.0039  14.2029
    14.3600  14.7020  14.9545  15.1465  15.4196  15.5195  15.7930  16.0537
    16.1976  16.6743  16.7928  16.8793

          k = 0.0000 0.4330 0.0000 ( 23423 PWs)   bands (ev):

     2.7745   2.9086   3.1041   3.3777   3.6933   4.0479   4.4001   4.6214
     4.6847   4.7685   4.8380   4.8504   4.8602   4.9054   4.9242   4.9599
     4.9894   5.0664   5.0685   5.1097   5.1639   5.2177   5.3373   5.3415
     5.3579   5.3673   5.4102   5.4513   5.4991   5.5623   5.5711   5.6167
     5.6296   5.6705   5.6803   5.7302   5.7435   5.7764   5.7819   5.7910
     5.7920   5.8045   5.8236   5.8494   5.8974   5.9025   5.9050   5.9270
     5.9897   6.0480   6.0728   6.1235   6.1480   6.1829   6.2328   6.2474
     6.3223   6.3279   6.4159   6.4491   6.4790   6.5160   6.5452   6.5745
     6.5915   6.6205   6.6774   6.6782   6.6996   6.7252   6.7297   6.7421
     6.7632   6.7986   6.8285   6.8605   6.9215   6.9532   7.0110   7.0279
     7.1481   7.1579   7.1727   7.1964   7.2012   7.2749   7.2893   7.3304
     7.3627   7.3880   7.3961   7.3987   7.4057   7.4204   7.4515   7.4729
     7.5012   7.5119   7.5156   7.5517   7.6081   7.6341   7.6875   7.7428
     7.7708   7.8202   7.8269   7.8353   7.8761   7.9595   7.9812   8.0041
     8.0536   8.0549   8.0781   8.1113   8.2025   8.2459   8.2878   8.4204
     8.4279   8.4442   8.4870   8.4989   8.5229   8.5594   8.6038   8.6149
     8.6558   8.6594   8.6735   8.7360   8.7756   8.7820   8.8067   8.8158
     9.0092   9.1688   9.6777  10.1538  10.9380  11.6124  12.5144  12.5553
    12.6188  12.6337  12.6463  12.8172  12.9162  13.0978  13.2004  13.3865
    13.4441  13.5464  13.8189  13.9926  14.2417  14.3379  14.6044  14.6390
    14.8403  15.2223  15.3206  15.5939  15.6142  15.7299  15.9263  16.0840
    16.2261  16.4952  16.7715  16.8663

          k = 0.0000 0.5774 0.0000 ( 23470 PWs)   bands (ev):

     3.5787   3.7103   3.8316   4.0494   4.2591   4.5170   4.7285   4.7758
     4.9987   5.0187   5.0529   5.1006   5.1074   5.1116   5.1668   5.2193
     5.2281   5.2365   5.2831   5.2977   5.3497   5.3502   5.3700   5.3841
     5.4097   5.4147   5.4251   5.4671   5.4917   5.4963   5.5394   5.5439
     5.5714   5.5742   5.6391   5.6585   5.6698   5.6784   5.6976   5.7091
     5.7786   5.7870   5.7958   5.7976   5.8030   5.8925   5.9366   5.9377
     5.9561   5.9587   6.0352   6.0610   6.1185   6.1753   6.1968   6.2771
     6.3127   6.3454   6.3809   6.3885   6.3945   6.4038   6.4193   6.4313
     6.4711   6.4950   6.5037   6.5595   6.5684   6.5772   6.5880   6.5880
     6.5961   6.7131   6.7382   6.9676   6.9952   7.0455   7.0488   7.0504
     7.0536   7.0550   7.1846   7.2225   7.2302   7.2472   7.3740   7.4437
     7.4599   7.5140   7.5200   7.5333   7.5440   7.5463   7.5513   7.5588
     7.5843   7.6165   7.6436   7.6911   7.8144   7.8187   7.8579   7.8677
     7.9228   7.9613   8.0420   8.0848   8.1871   8.2036   8.2044   8.2634
     8.3543   8.4063   8.4424   8.4425   8.4523   8.4728   8.4952   8.4979
     8.5162   8.5239   8.5606   8.5772   8.5946   8.5954   8.6200   8.6348
     8.6424   8.6782   8.6817   8.6832   8.6915   8.7032   8.8474   8.9649
     9.2340   9.7124  10.3202  10.8931  11.7117  12.4069  12.7932  13.1663
    13.2121  13.2579  13.2723  13.2951  13.3596  13.3922  13.5461  13.6177
    13.7126  13.8352  13.8737  14.1615  14.7471  14.8837  14.9391  15.0610
    15.3026  15.3174  15.4117  15.5690  15.8627  15.8752  16.1463  16.3148
    16.4081  16.5856  16.8770  16.9303

          k = 0.0000 0.7217 0.0000 ( 23446 PWs)   bands (ev):

     4.2874   4.4579   4.4799   4.5513   4.6240   4.6817   4.7260   4.8468
     4.8652   4.9563   4.9579   4.9605   5.0333   5.0527   5.1354   5.1828
     5.1878   5.1880   5.2415   5.2710   5.2723   5.2769   5.3537   5.3546
     5.4344   5.4609   5.4698   5.4884   5.5006   5.5496   5.5776   5.5940
     5.6081   5.6221   5.6517   5.6664   5.6693   5.7142   5.7203   5.7427
     5.7660   5.7719   5.7785   5.7957   5.8064   5.8823   5.9016   5.9242
     5.9756   6.0441   6.1068   6.1269   6.1399   6.1985   6.2193   6.2546
     6.2797   6.3241   6.3300   6.3386   6.3500   6.3802   6.3822   6.3882
     6.4051   6.5057   6.5215   6.5365   6.5989   6.6309   6.6469   6.7058
     6.7092   6.7137   6.7480   6.9673   6.9702   7.0075   7.0113   7.1439
     7.1647   7.1708   7.1780   7.1862   7.2289   7.2576   7.3825   7.3845
     7.4078   7.4431   7.4524   7.4988   7.5494   7.5626   7.6289   7.6398
     7.6476   7.6541   7.7228   7.7867   7.8408   7.8479   7.9357   7.9689
     8.0124   8.0742   8.1171   8.1252   8.2485   8.2864   8.3241   8.4612
     8.4959   8.5699   8.6800   8.6815   8.6970   8.7021   8.7154   8.7182
     8.7301   8.7484   8.7492   8.7545   8.8766   8.8882   8.8968   8.9033
     8.9877   9.1040   9.2924   9.3445   9.3742   9.4544   9.5634   9.8074
    10.1873  10.6861  11.3141  11.6918  11.8038  11.9257  11.9855  12.2659
    12.5715  12.7172  12.9845  13.3887  13.3930  13.7518  14.0004  14.0967
    14.1627  14.1989  14.3350  14.3932  14.7004  14.8040  14.9449  15.1770
    15.4999  15.6704  15.8992  16.0992  16.1671  16.4570  16.5493  16.6071
    16.6825  16.8263  17.0329  17.1197

          k = 0.0000-0.8660 0.0000 ( 23420 PWs)   bands (ev):

     4.5767   4.5768   4.7218   4.7219   4.8173   4.8174   4.8228   4.8228
     4.8888   4.8889   4.9111   4.9112   5.0194   5.0194   5.0545   5.0546
     5.1327   5.1328   5.1699   5.1700   5.2415   5.2416   5.2454   5.2455
     5.4698   5.4698   5.4980   5.4981   5.5089   5.5090   5.5210   5.5210
     5.6090   5.6090   5.6822   5.6822   5.7042   5.7043   5.7455   5.7456
     5.8358   5.8359   5.8809   5.8810   5.9405   5.9405   5.9886   5.9887
     6.0140   6.0141   6.0690   6.0691   6.1010   6.1011   6.1205   6.1206
     6.2517   6.2518   6.3007   6.3007   6.3628   6.3629   6.4378   6.4379
     6.5381   6.5382   6.5864   6.5864   6.6347   6.6347   6.6640   6.6640
     6.9530   6.9531   6.9783   6.9784   6.9879   6.9880   7.0271   7.0272
     7.0307   7.0308   7.2715   7.2716   7.3065   7.3066   7.3268   7.3269
     7.3570   7.3571   7.4201   7.4202   7.5332   7.5333   7.6554   7.6555
     7.6737   7.6738   7.8164   7.8164   7.8540   7.8541   7.9318   7.9319
     7.9953   7.9954   8.1072   8.1072   8.1424   8.1425   8.4172   8.4173
     8.5417   8.5418   8.7532   8.7533   8.8150   8.8151   8.8379   8.8381
     8.8707   8.8709   8.8952   8.8954   9.0154   9.0156   9.0350   9.0351
     9.2126   9.2127  10.3957  10.3958  10.4591  10.4591  10.5506  10.5506
    10.7250  10.7250  10.9468  10.9468  11.2832  11.2832  11.6976  11.6976
    12.1905  12.1906  12.7866  12.7866  13.3572  13.3573  14.0478  14.0478
    14.5806  14.5806  15.0415  15.0415  15.7627  15.7627  15.8108  15.8109
    15.8409  15.8409  15.9600  15.9600  16.2029  16.2030  16.2629  16.2629
    16.4117  16.4118  16.6074  16.6075

          k = 0.1250 0.0000 0.0000 ( 23563 PWs)   bands (ev):

     1.6271   1.7616   2.0021   2.3006   2.6680   3.0575   3.4344   3.7327
     3.9197   3.9252   3.9839   4.0578   4.1063   4.1676   4.1713   4.2110
     4.2488   4.3175   4.4116   4.4401   4.4906   4.5645   4.5972   4.6151
     4.6745   4.7135   4.8835   4.9720   5.0173   5.0691   5.2494   5.3196
     5.3871   5.4767   5.7612   5.9891   6.0857   6.1408   6.1619   6.1696
     6.2041   6.2258   6.2627   6.2943   6.3172   6.3319   6.3377   6.3405
     6.3474   6.3742   6.3872   6.3940   6.4036   6.4207   6.4308   6.4457
     6.4486   6.4658   6.4820   6.5006   6.5229   6.5432   6.5481   6.5817
     6.5894   6.6012   6.6034   6.6100   6.6152   6.6479   6.6541   6.6650
     6.6848   6.7795   6.8206   6.8465   6.8683   6.9276   6.9309   6.9425
     7.0026   7.0109   7.1011   7.2659   7.3842   7.4008   7.5200   7.5471
     7.5490   7.5716   7.5931   7.5987   7.6833   7.6844   7.7480   7.7498
     7.7933   7.8201   7.8261   7.8321   7.8745   7.8936   7.9482   7.9934
     8.0044   8.1104   8.1156   8.1671   8.1914   8.2448   8.3488   8.3536
     8.3753   8.4718   8.4803   8.5194   8.5426   8.5821   8.6100   8.6500
     8.6773   8.6848   8.6947   8.7050   8.7232   8.7248   8.7487   8.7587
     8.7783   8.8036   8.8084   8.8249   8.8350   8.8544   8.8888   8.9434
     8.9664   9.0120   9.1169   9.1204   9.3052   9.3491   9.6699   9.9243
     9.9461  10.1324  10.2048  10.3287  10.6904  10.8290  10.9968  11.2738
    11.9618  12.6659  13.2835  13.4597  13.5314  13.6593  13.9194  14.0518
    14.2010  14.5185  14.8196  14.9132  15.1579  15.2132  15.6032  15.9298
    16.3884  16.4812  16.5406  16.9329

          k = 0.1250 0.1443 0.0000 ( 23537 PWs)   bands (ev):

     1.7763   1.9110   2.1481   2.4454   2.8100   3.1984   3.5749   3.8715
     4.0339   4.0575   4.1097   4.1825   4.2241   4.2989   4.3025   4.3262
     4.3398   4.4248   4.5287   4.5598   4.6044   4.6668   4.6997   4.7350
     4.7819   4.8248   4.9481   5.0601   5.1428   5.1706   5.3100   5.3706
     5.3886   5.5030   5.7549   5.9466   6.0046   6.0377   6.0778   6.1060
     6.1249   6.1767   6.2056   6.2150   6.2324   6.2470   6.2582   6.3011
     6.3029   6.3269   6.3647   6.3908   6.4286   6.4597   6.4618   6.4849
     6.4906   6.4930   6.5042   6.5174   6.5283   6.5579   6.5960   6.6054
     6.6213   6.6268   6.6410   6.6523   6.6647   6.6813   6.6973   6.7161
     6.7372   6.7638   6.7725   6.7970   6.8176   6.8857   6.8951   6.9036
     7.0086   7.0126   7.1146   7.1342   7.1890   7.2760   7.4157   7.4248
     7.4811   7.5041   7.5338   7.5354   7.5652   7.5662   7.6191   7.6813
     7.7112   7.7137   7.7507   7.7837   7.8438   7.8712   7.8803   7.9298
     7.9570   7.9900   8.0175   8.0745   8.1521   8.1633   8.2241   8.2364
     8.3136   8.3219   8.3494   8.3555   8.4157   8.4699   8.5055   8.5156
     8.5358   8.5553   8.5600   8.5801   8.6238   8.6288   8.6570   8.7051
     8.7283   8.7407   8.7531   8.7650   8.7861   8.8265   8.8584   8.9011
     9.0098   9.0370   9.0814   9.1023   9.6767   9.9935  10.1409  10.2785
    10.3134  10.4379  10.5614  10.7835  11.1666  11.1705  11.3976  11.7005
    12.3368  13.0016  13.4844  13.5540  13.6468  13.7253  14.0110  14.0893
    14.3061  14.6258  14.9219  14.9794  15.2685  15.3334  15.7201  15.9669
    16.4372  16.5738  16.6447  16.9806

          k = 0.1250 0.2887 0.0000 ( 23467 PWs)   bands (ev):

     2.2059   2.3406   2.5641   2.8544   3.2047   3.5840   3.9534   4.2410
     4.3231   4.4049   4.4442   4.5121   4.5371   4.5443   4.6212   4.6451
     4.6512   4.6542   4.7675   4.8564   4.9130   4.9379   4.9919   5.0412
     5.0770   5.1332   5.2012   5.2454   5.3716   5.3739   5.4080   5.4937
     5.5781   5.6392   5.7366   5.7661   5.8069   5.8777   5.8916   5.9694
     5.9862   6.0012   6.0168   6.0272   6.0510   6.0594   6.0944   6.1011
     6.1505   6.1850   6.2212   6.2282   6.2971   6.3086   6.4079   6.4368
     6.4739   6.5210   6.5834   6.5955   6.6004   6.6172   6.6263   6.6301
     6.6465   6.6793   6.7072   6.7382   6.7661   6.7732   6.7878   6.8033
     6.8317   6.8620   6.8686   6.8863   6.9031   6.9070   6.9267   6.9811
     7.0018   7.0135   7.0177   7.0370   7.0522   7.0930   7.1117   7.1999
     7.2086   7.2203   7.2730   7.3258   7.3774   7.3951   7.4399   7.4724
     7.4954   7.5876   7.6039   7.6318   7.6972   7.7015   7.7351   7.7763
     7.7905   7.8309   7.8605   7.8623   7.9291   7.9779   8.0005   8.0477
     8.0870   8.1455   8.1579   8.1980   8.2127   8.2289   8.2403   8.3077
     8.3333   8.3909   8.4387   8.5075   8.5496   8.6172   8.6277   8.7071
     8.7396   8.7457   8.7793   8.7821   8.8012   8.8325   8.8857   8.9897
     9.0229   9.1293   9.2078   9.6115  10.3295  10.7659  10.8143  10.9454
    10.9702  11.0886  11.3259  11.6501  11.9158  12.0776  12.3403  12.5975
    13.1971  13.5861  13.7065  13.8419  13.9137  14.1639  14.2479  14.4376
    14.6666  14.9574  15.2059  15.2552  15.6043  15.6408  15.9740  16.0946
    16.4717  16.8503  16.9697  16.9766

          k = 0.1250 0.4330 0.0000 ( 23435 PWs)   bands (ev):

     2.8560   2.9884   3.1769   3.4430   3.7453   4.0833   4.4120   4.6041
     4.6608   4.7819   4.7853   4.8547   4.8583   4.8838   4.9273   4.9301
     4.9777   5.0837   5.0888   5.0891   5.1327   5.1765   5.2596   5.3083
     5.3476   5.3573   5.4095   5.4335   5.4459   5.5295   5.5535   5.6255
     5.6462   5.6591   5.6924   5.7262   5.7344   5.7642   5.7783   5.8005
     5.8384   5.8390   5.8752   5.8811   5.9094   5.9280   5.9554   5.9572
     6.0088   6.0465   6.0636   6.1461   6.1624   6.2155   6.2918   6.3266
     6.3565   6.4035   6.4392   6.4784   6.4832   6.5167   6.5266   6.5644
     6.5868   6.6336   6.6393   6.6398   6.6723   6.7018   6.7220   6.7381
     6.7416   6.8705   6.8729   6.9120   6.9561   6.9602   6.9777   7.0535
     7.1389   7.1446   7.1781   7.1997   7.2087   7.2192   7.2744   7.2893
     7.3148   7.3279   7.3400   7.3707   7.4269   7.4292   7.4573   7.4787
     7.5036   7.5114   7.5495   7.5637   7.5757   7.6268   7.6390   7.6913
     7.7325   7.7346   7.8060   7.8488   7.8823   7.8902   7.9149   7.9544
     7.9961   8.0350   8.0780   8.1005   8.1410   8.1980   8.2237   8.2713
     8.3378   8.4342   8.4954   8.5142   8.5874   8.5922   8.6853   8.7162
     8.7179   8.7441   8.7461   8.7761   8.8154   8.8215   8.9043   8.9445
     9.0778   9.1773   9.7199  10.2234  11.0135  11.3961  11.4542  11.6451
    11.6984  11.8574  12.1734  12.5584  12.7004  13.0071  13.4669  13.5307
    13.7442  13.9096  14.2019  14.2696  14.5010  14.6730  14.6789  14.7824
    15.1445  15.3075  15.6058  15.6329  15.6589  15.9190  16.1749  16.2109
    16.4533  16.5423  16.8908  17.3143

          k = 0.1250 0.5774 0.0000 ( 23447 PWs)   bands (ev):

     3.6003   3.7266   3.8485   4.0555   4.2479   4.4734   4.6696   4.6902
     4.8540   4.8612   4.9494   4.9673   4.9732   5.0002   5.0403   5.0416
     5.1206   5.1344   5.1774   5.1780   5.2249   5.2366   5.2855   5.3202
     5.3551   5.3845   5.4164   5.4454   5.4633   5.4843   5.5268   5.5379
     5.5918   5.5947   5.6190   5.6627   5.6954   5.7383   5.7397   5.7476
     5.7609   5.7845   5.8083   5.8548   5.8966   5.8997   5.9228   5.9775
     6.0293   6.0504   6.0631   6.0953   6.1329   6.1865   6.2464   6.2536
     6.3507   6.3799   6.3909   6.4579   6.4924   6.4959   6.5637   6.5651
     6.5853   6.5905   6.6222   6.6328   6.6562   6.6671   6.7324   6.7451
     6.7463   6.8368   6.8589   6.9071   6.9494   6.9554   6.9620   7.0928
     7.1264   7.1666   7.2500   7.2557   7.3015   7.3142   7.3457   7.4210
     7.4483   7.4556   7.4804   7.5245   7.5382   7.5757   7.5894   7.6156
     7.6793   7.6929   7.7128   7.7362   7.8585   7.8776   7.8938   7.9041
     7.9465   7.9970   8.0638   8.1233   8.1804   8.1880   8.2022   8.2348
     8.3370   8.3486   8.3943   8.3969   8.4291   8.4682   8.4897   8.5121
     8.5216   8.5620   8.5851   8.5935   8.6022   8.6217   8.6285   8.6918
     8.7065   8.7269   8.7344   8.7361   8.7993   8.8244   8.8306   9.0216
     9.2182   9.7155  10.3469  10.9371  11.7593  12.0974  12.1849  12.4115
    12.4588  12.6739  12.9748  13.2365  13.3953  13.4001  13.4541  13.6487
    13.8959  13.9640  14.1715  14.2503  14.4130  14.7747  14.8150  15.0037
    15.2777  15.4348  15.4742  15.5667  15.9017  16.0019  16.2777  16.3659
    16.5235  16.7534  16.8920  16.9686

          k = 0.1250 0.7217 0.0000 ( 23455 PWs)   bands (ev):

     4.1846   4.3017   4.3955   4.5364   4.5882   4.6211   4.6654   4.7067
     4.7707   4.8096   4.8129   4.8529   4.8964   4.9157   4.9918   5.0189
     5.0747   5.0779   5.1021   5.1066   5.1764   5.2251   5.2346   5.2454
     5.2629   5.2798   5.3123   5.3499   5.3722   5.4132   5.4577   5.4635
     5.4824   5.5430   5.5665   5.6024   5.6604   5.6820   5.7082   5.7164
     5.7943   5.7974   5.8188   5.8787   5.8992   5.9364   5.9507   5.9814
     5.9997   6.0662   6.1308   6.1456   6.2203   6.2210   6.2700   6.3083
     6.3358   6.3623   6.4046   6.4177   6.4369   6.4874   6.5708   6.5960
     6.6446   6.6630   6.6959   6.7548   6.7816   6.7970   6.8294   6.8540
     6.8946   6.9232   6.9639   6.9946   7.0168   7.0548   7.0699   7.0912
     7.1380   7.1878   7.2139   7.2496   7.3776   7.3793   7.4775   7.4867
     7.4925   7.5286   7.5779   7.6381   7.6389   7.6790   7.7268   7.7311
     7.8057   7.8225   7.8418   7.8650   8.0003   8.0040   8.0291   8.0685
     8.0896   8.1743   8.2272   8.2373   8.3331   8.3497   8.3640   8.4712
     8.5233   8.5880   8.6334   8.6424   8.6522   8.6590   8.7097   8.7114
     8.7492   8.7714   8.7820   8.8026   8.8847   8.8887   8.9007   8.9029
     8.9715   9.1161   9.2585   9.3073   9.3532   9.4319   9.5336   9.7724
    10.1598  10.6751  11.3235  11.7715  11.8754  11.9516  12.0487  12.3106
    12.6065  12.7477  12.9958  13.1083  13.2155  13.3739  13.4266  13.5345
    13.7055  13.9130  14.1544  14.2273  14.4491  14.6015  14.8447  15.0468
    15.3227  15.5861  15.8179  15.9006  16.0250  16.3053  16.3405  16.5091
    16.5411  16.6485  16.9182  16.9563

          k = 0.1250-0.8660 0.0000 ( 23492 PWs)   bands (ev):

     4.4549   4.4550   4.5594   4.5595   4.6490   4.6490   4.6840   4.6841
     4.7774   4.7775   4.7998   4.7999   4.9522   4.9523   4.9744   4.9745
     5.0826   5.0826   5.0927   5.0927   5.1430   5.1431   5.1589   5.1589
     5.2311   5.2311   5.2890   5.2890   5.3212   5.3212   5.3558   5.3558
     5.4788   5.4789   5.5753   5.5753   5.6269   5.6270   5.7207   5.7208
     5.8053   5.8054   5.9058   5.9059   5.9305   5.9305   5.9895   5.9895
     6.0566   6.0566   6.1020   6.1020   6.1685   6.1685   6.2344   6.2345
     6.3948   6.3949   6.4447   6.4448   6.5697   6.5697   6.5975   6.5975
     6.7180   6.7180   6.7588   6.7589   6.8512   6.8513   6.8645   6.8646
     6.8848   6.8848   7.0110   7.0110   7.0611   7.0612   7.1495   7.1495
     7.1834   7.1834   7.3347   7.3348   7.4255   7.4256   7.4853   7.4854
     7.5362   7.5362   7.6231   7.6232   7.7139   7.7139   7.8123   7.8124
     7.8492   7.8493   7.9716   7.9716   8.0044   8.0045   8.0523   8.0524
     8.1123   8.1124   8.1838   8.1839   8.2245   8.2246   8.4269   8.4269
     8.5456   8.5457   8.7445   8.7446   8.7806   8.7807   8.8057   8.8058
     8.8683   8.8685   8.9096   8.9097   9.0197   9.0198   9.0344   9.0345
     9.2083   9.2084  10.3961  10.3961  10.4614  10.4614  10.5527  10.5527
    10.7210  10.7210  10.9349  10.9350  11.2647  11.2648  11.6792  11.6792
    12.1789  12.1790  12.7887  12.7887  13.3748  13.3748  14.0270  14.0271
    14.4594  14.4594  14.6887  14.6887  14.7915  14.7915  14.9840  14.9840
    15.3090  15.3091  15.4184  15.4185  15.8103  15.8104  15.9707  15.9708
    16.2586  16.2587  16.6216  16.6217

          k = 0.2500 0.0000 0.0000 ( 23536 PWs)   bands (ev):

     1.9608   2.0933   2.3273   2.6201   2.9811   3.3666   3.7421   3.8731
     4.0061   4.0351   4.1584   4.2136   4.2570   4.3400   4.3577   4.3856
     4.4045   4.4531   4.4568   4.4703   4.5099   4.5975   4.6954   4.7201
     4.7962   4.8229   4.9772   5.0621   5.1098   5.1566   5.3409   5.3597
     5.3942   5.5655   5.8111   5.8599   5.9301   6.0121   6.0190   6.0526
     6.1021   6.1412   6.1613   6.1892   6.2066   6.2508   6.2666   6.2985
     6.3130   6.3574   6.3944   6.4135   6.4171   6.4652   6.4933   6.5065
     6.5108   6.5126   6.5659   6.5823   6.5956   6.6201   6.6224   6.6416
     6.6432   6.6547   6.6781   6.6849   6.6851   6.7430   6.7460   6.7471
     6.7655   6.8031   6.8137   6.8304   6.8429   6.8463   6.8721   6.9170
     6.9744   7.0405   7.0657   7.0967   7.1027   7.2697   7.2861   7.3049
     7.3706   7.3709   7.4032   7.4535   7.4923   7.5191   7.5433   7.6214
     7.6226   7.6422   7.7068   7.7416   7.7461   7.7949   7.8311   7.8822
     7.9138   8.0129   8.0258   8.0278   8.0366   8.1492   8.1810   8.2093
     8.2231   8.3251   8.3360   8.3538   8.3642   8.3966   8.4029   8.4151
     8.4533   8.4720   8.5077   8.5312   8.5474   8.5509   8.5781   8.5899
     8.6042   8.6222   8.6400   8.6901   8.6943   8.7268   8.7737   8.7862
     8.8221   8.8312   8.8533   8.8694   8.9135   8.9199   8.9485   8.9562
     9.1090   9.3629   9.6990   9.9773  10.3975  10.6507  11.1452  11.5182
    11.8376  11.8960  12.6757  13.3981  14.1452  14.1741  15.0693  15.1189
    15.3454  15.4077  15.5031  15.6213  15.9176  16.3545  16.6816  16.7783
    16.8158  17.1104  17.3986  17.7985

          k = 0.2500 0.1443 0.0000 ( 23484 PWs)   bands (ev):

     2.1044   2.2371   2.4665   2.7572   3.1139   3.4971   3.8718   3.9945
     4.1384   4.1636   4.2813   4.3357   4.3715   4.4420   4.4849   4.4935
     4.5159   4.5742   4.5777   4.5979   4.6350   4.7075   4.7873   4.7975
     4.8736   4.9361   5.0357   5.1594   5.2138   5.2407   5.3531   5.3918
     5.4492   5.5786   5.7829   5.8372   5.8736   5.9134   5.9591   5.9725
     6.0368   6.0692   6.0999   6.1222   6.1482   6.1736   6.2076   6.2408
     6.2461   6.3112   6.3211   6.3631   6.3912   6.4045   6.4238   6.4556
     6.5141   6.5202   6.5687   6.5836   6.5953   6.6142   6.6235   6.6237
     6.6394   6.6699   6.6814   6.6976   6.7201   6.7450   6.7563   6.7713
     6.7758   6.8127   6.8370   6.8474   6.8567   6.8870   6.8933   6.9350
     6.9553   6.9808   7.0569   7.1018   7.1057   7.1694   7.1775   7.2075
     7.2603   7.2726   7.3154   7.3517   7.4268   7.4274   7.4696   7.4781
     7.5740   7.5896   7.6714   7.6787   7.7263   7.7371   7.7582   7.8234
     7.8651   7.8715   7.8988   7.9082   7.9109   7.9850   8.0467   8.0628
     8.1299   8.1412   8.1832   8.1995   8.2154   8.2241   8.2515   8.3263
     8.3518   8.4138   8.4249   8.4914   8.5188   8.5537   8.5861   8.6171
     8.6242   8.6792   8.7012   8.7214   8.7292   8.7873   8.8080   8.8447
     8.9155   8.9291   9.1268   9.1367   9.2357   9.3247   9.3696   9.4512
     9.5375   9.6702  10.1071  10.1867  10.7056  10.8621  11.3967  11.7589
    12.1112  12.1446  12.8701  13.5692  14.2006  14.3298  15.1480  15.2893
    15.3874  15.5179  15.5622  15.7298  15.9921  16.4325  16.7856  16.8764
    16.9009  17.1926  17.4572  17.8242

          k = 0.2500 0.2887 0.0000 ( 23496 PWs)   bands (ev):

     2.5109   2.6429   2.8541   3.1337   3.4676   3.8327   4.1903   4.2963
     4.4638   4.4856   4.5830   4.6081   4.6369   4.6478   4.7159   4.7553
     4.7879   4.8207   4.8714   4.8741   4.9255   4.9768   5.0363   5.0569
     5.1358   5.1803   5.2488   5.2874   5.3127   5.3804   5.4636   5.5462
     5.5971   5.6535   5.6717   5.7096   5.7972   5.8082   5.8446   5.9053
     5.9131   5.9323   5.9490   5.9826   6.0139   6.0447   6.0950   6.0956
     6.1135   6.1205   6.1764   6.2079   6.2506   6.2563   6.3295   6.3589
     6.4116   6.4196   6.4591   6.4793   6.5204   6.5564   6.5673   6.5872
     6.6028   6.6601   6.6704   6.6857   6.7031   6.7318   6.7731   6.7759
     6.7879   6.8282   6.8653   6.8724   6.9137   6.9438   6.9577   6.9729
     6.9749   7.0068   7.0147   7.0666   7.1142   7.1171   7.1414   7.1717
     7.1873   7.2210   7.2671   7.2859   7.3199   7.3475   7.3534   7.3612
     7.4285   7.4798   7.5061   7.5124   7.5460   7.6074   7.6290   7.6945
     7.7131   7.7496   7.7785   7.8044   7.8331   7.8421   7.8926   7.9064
     7.9411   7.9941   8.0081   8.0697   8.0861   8.1603   8.1628   8.2569
     8.2821   8.3861   8.4166   8.4496   8.5797   8.5861   8.6693   8.7048
     8.7544   8.7553   8.7806   8.7910   8.8318   8.8779   8.9554   8.9855
     8.9966   9.0615   9.4508   9.8137   9.8514   9.9168   9.9294  10.0077
    10.1788  10.4612  10.6639  10.8735  11.3551  11.3988  12.0159  12.3188
    12.6630  12.9254  13.3766  14.0118  14.4136  14.7168  15.4020  15.5160
    15.6644  15.8289  15.8573  16.0092  16.2148  16.6135  17.0437  17.0566
    17.2143  17.2709  17.5662  17.6519

          k = 0.2500 0.4330 0.0000 ( 23431 PWs)   bands (ev):

     3.0952   3.2226   3.3912   3.6355   3.9002   4.1939   4.4686   4.5435
     4.6586   4.7607   4.7681   4.8070   4.8181   4.8643   4.8685   4.9126
     4.9651   4.9948   5.0431   5.0927   5.1121   5.1415   5.1741   5.2110
     5.2419   5.2478   5.3026   5.4148   5.4754   5.4995   5.5181   5.5444
     5.5608   5.6390   5.6575   5.6662   5.7248   5.7365   5.7914   5.8273
     5.8393   5.8901   5.9245   5.9257   5.9621   5.9823   6.0094   6.0187
     6.0538   6.0868   6.1017   6.1444   6.1564   6.2072   6.2724   6.2974
     6.3457   6.3643   6.4009   6.4545   6.4970   6.5205   6.5671   6.5821
     6.6081   6.6224   6.6567   6.6688   6.6999   6.7145   6.7416   6.7554
     6.8477   6.8865   6.9003   6.9781   6.9792   6.9824   7.0006   7.0274
     7.0394   7.0713   7.1707   7.1785   7.1892   7.2524   7.2699   7.2896
     7.3012   7.3447   7.3656   7.3847   7.4149   7.4449   7.4598   7.5271
     7.5522   7.5662   7.5744   7.6168   7.6368   7.6495   7.6516   7.6806
     7.7250   7.7496   7.7825   7.8349   7.8672   7.8976   7.9016   7.9533
     7.9573   8.0186   8.0590   8.0780   8.1079   8.1537   8.2295   8.2473
     8.3307   8.4316   8.4397   8.5725   8.5888   8.6360   8.7430   8.8015
     8.8126   8.8265   8.8403   8.8467   8.8553   8.8909   8.9839   9.0282
     9.1230   9.2849   9.8832  10.4226  10.4415  10.4511  10.5640  10.7075
    10.9486  11.2402  11.2787  11.7051  11.9474  12.2107  12.7893  12.9314
    13.3737  13.9539  14.0313  14.5480  14.9005  15.0138  15.6002  15.8026
    15.8699  15.8848  15.9895  16.1552  16.2953  16.4368  16.4393  16.6763
    16.9662  17.2296  17.4590  17.5680

          k = 0.2500 0.5774 0.0000 ( 23466 PWs)   bands (ev):

     3.6745   3.7883   3.9141   4.0979   4.2527   4.4058   4.5202   4.5473
     4.6461   4.6496   4.7231   4.7380   4.7616   4.8237   4.8546   4.8595
     4.9295   4.9730   5.0089   5.0339   5.0362   5.1394   5.1413   5.1610
     5.1757   5.1820   5.2176   5.2563   5.3083   5.3350   5.3371   5.3667
     5.4563   5.4603   5.5084   5.5576   5.5743   5.6646   5.7149   5.7439
     5.8116   5.8638   5.8727   5.9197   5.9512   5.9581   6.0242   6.0688
     6.1442   6.1626   6.2066   6.2227   6.2885   6.3949   6.4439   6.4494
     6.4640   6.5080   6.5361   6.5796   6.5890   6.5975   6.6236   6.6373
     6.6599   6.7003   6.7486   6.7931   6.8151   6.8466   6.8708   6.9171
     6.9581   6.9702   6.9971   7.0224   7.1030   7.1312   7.1579   7.2169
     7.2274   7.2929   7.3349   7.3500   7.4226   7.4794   7.5042   7.5092
     7.5192   7.5482   7.5742   7.6441   7.7167   7.7406   7.8022   7.8266
     7.8665   7.8676   7.9128   7.9302   7.9705   7.9758   8.0132   8.0519
     8.0572   8.0680   8.0883   8.1352   8.1363   8.1513   8.2019   8.2259
     8.2421   8.3320   8.3336   8.3429   8.3854   8.4372   8.4795   8.4953
     8.5145   8.5348   8.5898   8.5944   8.6471   8.7107   8.7359   8.7496
     8.7729   8.8260   8.8374   8.8403   8.8605   8.9530   8.9893   9.1152
     9.2080   9.7716  10.4603  11.0838  11.0942  11.1336  11.2940  11.4785
    11.7634  11.9233  12.1217  12.5587  12.6340  13.0482  13.5409  13.5469
    13.7863  13.8333  14.0029  14.2895  14.4660  14.7089  15.0179  15.0326
    15.1195  15.4847  15.6501  15.7224  15.9290  16.2871  16.4303  16.5330
    16.7367  17.1444  17.1721  17.5234

          k = 0.2500 0.7217 0.0000 ( 23545 PWs)   bands (ev):

     4.0298   4.1181   4.2555   4.3743   4.3947   4.4517   4.5063   4.5098
     4.5508   4.5718   4.5883   4.6441   4.6836   4.7071   4.7393   4.7784
     4.8337   4.8621   4.8846   4.8934   4.9087   4.9220   4.9290   5.0234
     5.0331   5.0730   5.1108   5.1179   5.1462   5.2160   5.2389   5.2429
     5.3080   5.3238   5.3914   5.4410   5.4833   5.5351   5.6381   5.6549
     5.8027   5.8079   5.8759   5.8986   5.9704   6.0016   6.0096   6.0822
     6.1094   6.2543   6.3089   6.3170   6.3544   6.3591   6.3997   6.4463
     6.5324   6.5388   6.5745   6.5791   6.5914   6.6602   6.7284   6.7353
     6.7610   6.7821   6.8148   6.8743   6.9147   6.9604   7.0494   7.0504
     7.1167   7.1236   7.2088   7.2324   7.2634   7.2909   7.3301   7.3728
     7.4687   7.4837   7.5965   7.6078   7.6425   7.6669   7.6992   7.7711
     7.8726   7.8965   7.9098   7.9322   7.9370   7.9656   8.0401   8.0711
     8.1333   8.1738   8.1877   8.2137   8.2328   8.2435   8.2612   8.3097
     8.3146   8.3376   8.3816   8.4270   8.4691   8.5336   8.5391   8.5498
     8.5681   8.5866   8.6080   8.6146   8.6622   8.6739   8.6948   8.7241
     8.7520   8.7634   8.8246   8.8790   8.8912   8.9137   8.9254   8.9321
     8.9389   9.1464   9.1674   9.2017   9.3048   9.3851   9.4706   9.6922
    10.1082  10.6763  11.3810  11.9056  11.9807  12.0092  12.0540  12.0722
    12.1618  12.2800  12.4438  12.5901  12.6557  12.8555  12.8633  13.0219
    13.3215  13.4428  13.5644  13.8974  14.0986  14.3206  14.5102  14.7564
    14.8396  15.2203  15.2971  15.4076  15.5563  15.6749  15.8065  15.9819
    16.0736  16.2422  16.3783  16.5310

          k = 0.2500-0.8660 0.0000 ( 23532 PWs)   bands (ev):

     4.2175   4.2176   4.2882   4.2882   4.4153   4.4153   4.4702   4.4703
     4.5676   4.5676   4.5862   4.5863   4.7476   4.7476   4.7529   4.7529
     4.7761   4.7762   4.7936   4.7936   4.8998   4.8999   4.9118   4.9118
     4.9447   4.9447   5.0320   5.0321   5.1196   5.1197   5.2175   5.2176
     5.2831   5.2832   5.3484   5.3485   5.4380   5.4380   5.6299   5.6300
     5.7972   5.7972   5.9556   5.9557   6.0285   6.0286   6.0728   6.0729
     6.1264   6.1265   6.2355   6.2355   6.3745   6.3746   6.4170   6.4170
     6.5241   6.5241   6.5761   6.5761   6.6352   6.6353   6.7433   6.7434
     6.8186   6.8186   6.8709   6.8710   6.9540   6.9540   7.1291   7.1292
     7.1970   7.1971   7.2796   7.2796   7.4103   7.4103   7.4376   7.4377
     7.5276   7.5277   7.7059   7.7060   7.7519   7.7520   7.8366   7.8366
     7.9674   7.9675   8.0584   8.0585   8.0697   8.0698   8.1256   8.1257
     8.2518   8.2519   8.3422   8.3423   8.3531   8.3532   8.3935   8.3935
     8.4131   8.4133   8.4285   8.4286   8.4426   8.4427   8.5184   8.5185
     8.5995   8.5996   8.7307   8.7308   8.7511   8.7513   8.7800   8.7802
     8.8592   8.8594   8.9086   8.9087   9.0245   9.0247   9.0370   9.0371
     9.1934   9.1936  10.3963  10.3964  10.4750  10.4751  10.5944  10.5944
    10.7480  10.7480  10.9311  10.9311  11.2266  11.2266  11.6222  11.6222
    12.1147  12.1147  12.7264  12.7264  13.2931  13.2932  13.5504  13.5505
    13.6402  13.6402  13.7452  13.7452  14.0413  14.0414  14.2514  14.2514
    14.6438  14.6439  14.7278  14.7278  14.9569  14.9570  15.3647  15.3648
    15.7358  15.7358  16.0076  16.0077

          k = 0.3750 0.0000 0.0000 ( 23492 PWs)   bands (ev):

     2.4811   2.6076   2.8250   3.0994   3.4378   3.6431   3.7568   3.8009
     3.9040   4.0753   4.1580   4.2389   4.3635   4.4287   4.4877   4.5807
     4.6209   4.6340   4.7349   4.7573   4.8288   4.8404   4.8426   4.8933
     4.9731   5.0136   5.1186   5.1823   5.2537   5.3310   5.3556   5.4542
     5.5431   5.5574   5.6605   5.7060   5.7724   5.8819   5.8962   5.9268
     5.9454   5.9851   6.0069   6.0750   6.0904   6.1205   6.1626   6.1970
     6.2001   6.2510   6.3400   6.4277   6.4508   6.4685   6.5024   6.5151
     6.5235   6.5310   6.5683   6.5733   6.5938   6.6070   6.6169   6.6416
     6.6661   6.6804   6.7020   6.7077   6.7255   6.7476   6.7858   6.7992
     6.8267   6.8412   6.8996   6.8997   6.9034   6.9294   6.9389   6.9531
     6.9930   7.0143   7.0505   7.0568   7.0861   7.0872   7.1322   7.1989
     7.2048   7.2096   7.2145   7.2926   7.3134   7.3478   7.4118   7.4216
     7.4845   7.5027   7.5135   7.5365   7.6155   7.6413   7.6432   7.6459
     7.6558   7.7723   7.7756   7.7951   7.8807   7.8871   7.9700   7.9715
     7.9850   7.9863   8.0094   8.0247   8.0472   8.0491   8.0643   8.0749
     8.0962   8.1231   8.1981   8.1981   8.2391   8.2681   8.2696   8.3204
     8.3626   8.3748   8.3972   8.4323   8.4658   8.5443   8.5568   8.5849
     8.6524   8.7059   8.7454   8.7940   8.8435   8.8477   8.9065   8.9387
     9.1700   9.4094   9.7699   9.9286  10.4347  10.6199  11.1161  11.3451
    11.8859  12.2742  12.6297  12.8766  13.5115  14.3934  14.9674  15.3793
    15.6417  15.8353  16.4980  17.0094  17.2025  17.2809  17.4434  17.6016
    17.8069  17.9683  18.2517  18.8093

          k = 0.3750 0.1443 0.0000 ( 23495 PWs)   bands (ev):

     2.6179   2.7446   2.9554   3.2270   3.5589   3.7760   3.8965   3.9194
     4.0297   4.1977   4.2787   4.3501   4.4710   4.5570   4.5983   4.7057
     4.7405   4.7468   4.8488   4.8636   4.9219   4.9528   4.9549   4.9707
     5.0636   5.0925   5.1973   5.2765   5.3183   5.3553   5.4187   5.5095
     5.5666   5.5848   5.6715   5.6951   5.7468   5.7924   5.8463   5.8501
     5.8722   5.9131   5.9494   5.9903   6.0291   6.0439   6.1052   6.1090
     6.1315   6.1558   6.1956   6.2251   6.2844   6.3225   6.3506   6.4154
     6.4216   6.4467   6.4588   6.4895   6.5173   6.5440   6.5547   6.5727
     6.5847   6.6468   6.6648   6.6737   6.6887   6.6911   6.7207   6.7336
     6.7635   6.8077   6.8149   6.8427   6.8458   6.9390   6.9501   6.9974
     7.0011   7.0410   7.0607   7.0969   7.1226   7.1329   7.1631   7.2072
     7.2126   7.2734   7.2811   7.2959   7.3430   7.3539   7.3803   7.3965
     7.4172   7.4526   7.4610   7.4847   7.5276   7.5525   7.6206   7.6922
     7.7018   7.7443   7.7468   7.7917   7.8109   7.8364   7.8585   7.9344
     7.9552   7.9942   7.9974   8.0141   8.0983   8.1207   8.1779   8.2096
     8.2497   8.2637   8.2750   8.3181   8.3803   8.4024   8.4447   8.4825
     8.4859   8.5406   8.5588   8.5839   8.5966   8.6409   8.6443   8.6847
     8.7168   8.7199   8.7529   8.7977   8.7985   8.8192   8.9781   9.0991
     9.4025   9.5439   9.9567  10.0558  10.5983  10.7648  11.2666  11.4909
    12.0342  12.4393  12.7688  13.1252  13.6376  14.4822  15.1844  15.4773
    15.7960  15.9429  16.6201  17.1369  17.2837  17.3665  17.4695  17.6322
    17.8921  18.0422  18.2875  18.9121

          k = 0.3750 0.2887 0.0000 ( 23497 PWs)   bands (ev):

     2.9922   3.1183   3.3031   3.5582   3.8554   4.1115   4.1875   4.2633
     4.3326   4.4592   4.5219   4.5542   4.6620   4.7879   4.7903   4.9174
     4.9378   4.9565   5.0781   5.0832   5.1595   5.1738   5.1827   5.2243
     5.2761   5.2830   5.3131   5.3445   5.4131   5.4933   5.5060   5.5570
     5.6007   5.6213   5.6372   5.6925   5.6982   5.7336   5.7387   5.7749
     5.7894   5.8065   5.8481   5.8626   5.9014   5.9018   5.9501   5.9669
     5.9713   6.0063   6.0359   6.0769   6.1162   6.1500   6.1800   6.2342
     6.2607   6.2957   6.3022   6.3516   6.3629   6.4036   6.4084   6.4148
     6.4958   6.4997   6.5525   6.5567   6.5974   6.6018   6.6392   6.7035
     6.7102   6.7326   6.7338   6.7611   6.8415   6.8726   6.8860   6.9506
     6.9538   6.9766   7.0353   7.1077   7.1410   7.1987   7.2393   7.2618
     7.2947   7.3170   7.3321   7.3681   7.3697   7.4198   7.4344   7.4597
     7.4638   7.4781   7.5776   7.5793   7.6005   7.6297   7.6352   7.6589
     7.6981   7.7287   7.7741   7.8127   7.8926   7.9375   7.9574   7.9831
     7.9845   8.0356   8.1018   8.1184   8.1540   8.1844   8.1892   8.2289
     8.3013   8.3206   8.3899   8.4613   8.4920   8.5627   8.6103   8.6211
     8.6306   8.6657   8.6822   8.7045   8.7178   8.7597   8.8357   8.8493
     8.9387   9.0630   9.1023   9.1098   9.1709   9.2754   9.3184   9.5010
     9.8277   9.9013  10.3743  10.4206  11.0343  11.1313  11.6800  11.8580
    12.4396  12.8288  13.1493  13.7743  13.9744  14.7823  15.7586  15.7725
    16.2136  16.2793  16.9278  17.4416  17.4736  17.5149  17.5884  17.7571
    18.0344  18.1464  18.3230  18.6794

          k = 0.3750 0.4330 0.0000 ( 23475 PWs)   bands (ev):

     3.4725   3.5923   3.7299   3.9391   4.1468   4.3575   4.3768   4.5053
     4.5578   4.5916   4.6579   4.7065   4.7382   4.7392   4.8447   4.8464
     4.9361   4.9397   5.0429   5.0770   5.0827   5.1303   5.1659   5.2204
     5.2277   5.2521   5.2864   5.2949   5.3232   5.3355   5.4142   5.4491
     5.5053   5.5707   5.5857   5.6258   5.6291   5.6617   5.6910   5.7426
     5.8013   5.8530   5.8698   5.9296   5.9683   5.9849   6.0310   6.0632
     6.1016   6.1080   6.1645   6.1728   6.2373   6.2442   6.2751   6.2942
     6.3020   6.3337   6.3654   6.4114   6.4292   6.4542   6.5022   6.5525
     6.5893   6.6167   6.6386   6.6545   6.6813   6.7262   6.7682   6.7718
     6.8295   6.8696   6.8748   6.8797   6.9079   6.9416   6.9746   6.9957
     6.9960   7.1014   7.1330   7.1465   7.1968   7.2277   7.2955   7.3830
     7.4029   7.4110   7.4690   7.4705   7.5168   7.5488   7.5664   7.5999
     7.6014   7.6662   7.6714   7.7085   7.7363   7.7884   7.8036   7.8560
     7.8905   7.8929   7.9348   7.9826   7.9930   8.0079   8.1007   8.1028
     8.1828   8.1834   8.1965   8.2399   8.2760   8.3373   8.3672   8.3694
     8.4048   8.4190   8.5004   8.5308   8.5556   8.6960   8.7210   8.7467
     8.7728   8.7777   8.7893   8.8022   8.8208   8.9050   8.9540   8.9992
     9.1118   9.5745   9.5871   9.5980   9.6270   9.7125   9.8666  10.1348
    10.2164  10.5346  10.8250  11.0435  11.6268  11.6505  12.2847  12.3498
    13.0292  13.2873  13.7073  14.4492  14.6199  15.3276  16.2462  16.2518
    16.4291  16.6243  16.7212  16.8544  16.9681  17.1046  17.4211  17.5203
    17.7454  17.7703  17.9876  18.0769

          k = 0.3750 0.5774 0.0000 ( 23521 PWs)   bands (ev):

     3.8170   3.9162   4.0504   4.2143   4.2884   4.3395   4.3747   4.4089
     4.4866   4.4923   4.5666   4.5693   4.6568   4.6741   4.6890   4.7712
     4.8197   4.8265   4.8403   4.8615   4.8990   4.9214   4.9300   4.9842
     5.0121   5.0255   5.0736   5.0926   5.1148   5.1674   5.2247   5.2247
     5.2974   5.3449   5.3491   5.3940   5.4694   5.4850   5.6154   5.6643
     5.7657   5.8591   5.9106   6.0342   6.0671   6.1252   6.1371   6.1603
     6.1956   6.2969   6.3264   6.3532   6.3967   6.4574   6.4721   6.5308
     6.5322   6.5422   6.5620   6.5867   6.6068   6.6267   6.6934   6.7393
     6.7513   6.7827   6.8468   6.8598   6.9140   6.9175   6.9535   7.0204
     7.0365   7.0575   7.1018   7.1641   7.1652   7.2738   7.3329   7.3537
     7.3868   7.4468   7.4736   7.5284   7.5643   7.6722   7.7271   7.7327
     7.7351   7.7842   7.8094   7.8413   7.9106   7.9523   7.9568   7.9633
     8.0171   8.0841   8.1025   8.1188   8.1538   8.1548   8.2053   8.2104
     8.2382   8.2592   8.2655   8.2887   8.3045   8.3141   8.3290   8.3375
     8.3548   8.3874   8.4204   8.4507   8.4815   8.4928   8.5337   8.5545
     8.5863   8.6029   8.6232   8.6818   8.7089   8.7219   8.7515   8.7877
     8.8573   8.8578   8.8719   8.9016   8.9097   8.9821   9.0217   9.0986
     9.4136  10.0330  10.0915  10.1283  10.2297  10.3439  10.5367  10.7588
    10.8333  11.2475  11.4374  11.7658  12.2646  12.3859  12.9853  13.0240
    13.7229  13.8325  14.2932  14.4831  14.5887  14.8430  14.9999  15.2510
    15.2972  15.5964  15.7432  15.8455  16.2234  16.4056  16.5015  16.7033
    16.7938  16.9017  17.2196  17.2480

          k = 0.3750 0.7217 0.0000 ( 23544 PWs)   bands (ev):

     3.9528   4.0267   4.1446   4.1764   4.2085   4.2903   4.3407   4.3745
     4.3830   4.3906   4.4865   4.4941   4.5084   4.5181   4.5978   4.6362
     4.6589   4.6705   4.6870   4.6913   4.7049   4.7050   4.7763   4.8090
     4.8197   4.8611   4.8896   4.9386   4.9845   5.0327   5.0581   5.0756
     5.1425   5.1876   5.2104   5.2548   5.3731   5.3793   5.6000   5.6112
     5.8228   5.8408   5.9793   6.0505   6.0670   6.0939   6.1486   6.1519
     6.2588   6.2672   6.3327   6.3690   6.3808   6.4162   6.4534   6.4602
     6.4991   6.5040   6.6089   6.6721   6.6937   6.7360   6.7613   6.7681
     6.8880   6.8935   6.9433   7.0398   7.0429   7.0727   7.1728   7.1944
     7.3249   7.3361   7.4116   7.4477   7.4907   7.5173   7.6599   7.6644
     7.7356   7.7563   7.8016   7.9123   7.9602   7.9805   8.0646   8.0732
     8.0770   8.2201   8.2645   8.3059   8.3130   8.3344   8.3823   8.4064
     8.4235   8.4340   8.5084   8.5142   8.5380   8.5538   8.5707   8.5854
     8.6029   8.6050   8.6072   8.6307   8.6541   8.6562   8.6777   8.6904
     8.6970   8.7116   8.7133   8.7264   8.7444   8.7510   8.7687   8.7751
     8.8078   8.8676   8.8676   8.8846   8.9228   8.9789   8.9924   9.0073
     9.0325   9.0845   9.1198   9.1543   9.3573   9.4821   9.5770   9.7621
    10.2139  10.7832  10.8363  10.8664  11.0473  11.2007  11.3781  11.5870
    11.6204  11.9365  12.2846  12.3005  12.6095  12.7220  12.7747  12.9943
    13.0422  13.1096  13.7716  13.8428  13.9152  14.2711  14.3525  14.3679
    14.4672  14.4853  14.6727  14.7028  15.0078  15.0090  15.1865  15.4000
    15.5144  15.9428  15.9831  16.3083

          k = 0.3750-0.8660 0.0000 ( 23556 PWs)   bands (ev):

     4.0328   4.0329   4.0935   4.0935   4.2369   4.2369   4.2971   4.2972
     4.3821   4.3822   4.4011   4.4011   4.5503   4.5504   4.5672   4.5673
     4.5903   4.5903   4.6043   4.6044   4.6861   4.6862   4.7074   4.7075
     4.7438   4.7438   4.8592   4.8593   4.9504   4.9505   5.0463   5.0464
     5.0728   5.0729   5.1820   5.1821   5.3483   5.3484   5.5972   5.5972
     5.8416   5.8416   6.0379   6.0379   6.1222   6.1223   6.1458   6.1458
     6.2200   6.2200   6.3087   6.3088   6.3658   6.3659   6.4206   6.4206
     6.4823   6.4823   6.6904   6.6904   6.7342   6.7342   6.7780   6.7780
     6.9186   6.9186   7.0697   7.0698   7.1289   7.1289   7.2017   7.2017
     7.4048   7.4048   7.5316   7.5316   7.5644   7.5645   7.7726   7.7727
     7.8322   7.8322   7.9777   7.9778   8.0827   8.0828   8.2086   8.2086
     8.2891   8.2891   8.3714   8.3715   8.4689   8.4690   8.5362   8.5363
     8.5658   8.5659   8.6021   8.6022   8.6334   8.6335   8.6474   8.6475
     8.7220   8.7221   8.7389   8.7390   8.7582   8.7583   8.7792   8.7794
     8.8047   8.8048   8.8291   8.8292   8.8559   8.8560   8.8780   8.8781
     8.9362   8.9363   8.9567   8.9568   9.0673   9.0675   9.0813   9.0814
     9.1606   9.1607  10.3802  10.3802  10.4886  10.4886  10.7506  10.7506
    10.9419  10.9419  11.0981  11.0981  11.2860  11.2860  11.5609  11.5610
    11.9046  11.9046  12.3171  12.3171  12.5389  12.5390  12.6749  12.6750
    12.7798  12.7799  12.8007  12.8007  13.7239  13.7239  13.8434  13.8435
    14.2461  14.2461  14.3713  14.3714  14.5456  14.5457  14.8880  14.8880
    15.2505  15.2506  15.7950  15.7950

          k =-0.5000 0.0000-0.0000 ( 23442 PWs)   bands (ev):

     3.1076   3.1076   3.2214   3.2214   3.4029   3.4029   3.6308   3.6308
     3.9046   3.9046   4.1873   4.1873   4.4570   4.4570   4.6584   4.6584
     4.7907   4.7908   4.9061   4.9061   4.9542   4.9542   5.1137   5.1137
     5.1432   5.1432   5.2492   5.2492   5.3292   5.3292   5.4232   5.4232
     5.4975   5.4975   5.6307   5.6307   5.7318   5.7318   5.8417   5.8417
     5.9540   5.9540   5.9698   5.9699   6.0379   6.0379   6.0698   6.0698
     6.1876   6.1876   6.2413   6.2413   6.3619   6.3620   6.4317   6.4317
     6.5512   6.5512   6.5875   6.5875   6.5987   6.5988   6.6367   6.6367
     6.6893   6.6893   6.6955   6.6955   6.7111   6.7111   6.7566   6.7566
     6.7993   6.7993   6.8221   6.8222   6.8910   6.8910   6.9604   6.9604
     6.9748   6.9748   7.1130   7.1131   7.1786   7.1787   7.1848   7.1848
     7.2164   7.2165   7.2622   7.2622   7.3266   7.3267   7.4050   7.4050
     7.4372   7.4372   7.4860   7.4860   7.5525   7.5525   7.5570   7.5570
     7.6090   7.6090   7.6222   7.6223   7.6811   7.6811   7.6944   7.6944
     7.7978   7.7978   7.8572   7.8572   7.8917   7.8918   7.9729   7.9730
     8.0454   8.0454   8.0968   8.0968   8.1093   8.1094   8.1648   8.1649
     8.2418   8.2418   8.3889   8.3890   8.4275   8.4275   8.5567   8.5567
     8.7219   8.7220   8.8162   8.8162   8.8391   8.8391   8.8757   8.8757
     9.3242   9.3242   9.8906   9.8906  10.4936  10.4937  11.2352  11.2352
    11.9833  11.9833  12.9303  12.9303  13.9777  13.9777  14.9095  14.9097
    15.8749  15.8750  16.4620  16.4632  17.4368  17.4371  17.8234  17.8238
    19.1437  19.1443  19.3309  19.3311

          k =-0.5000 0.1443-0.0000 ( 23476 PWs)   bands (ev):

     3.2411   3.2411   3.3561   3.3561   3.5273   3.5273   3.7515   3.7515
     4.0168   4.0168   4.2982   4.2982   4.5753   4.5753   4.7947   4.7947
     4.9273   4.9273   5.0298   5.0298   5.0665   5.0665   5.2134   5.2135
     5.2578   5.2578   5.3056   5.3056   5.3897   5.3898   5.4456   5.4456
     5.5290   5.5291   5.6354   5.6354   5.7050   5.7050   5.7813   5.7813
     5.8321   5.8321   5.8855   5.8856   5.9292   5.9292   5.9717   5.9717
     6.0679   6.0679   6.0807   6.0808   6.1752   6.1752   6.2960   6.2960
     6.3772   6.3772   6.4518   6.4518   6.5081   6.5081   6.5551   6.5551
     6.5955   6.5955   6.6229   6.6229   6.6633   6.6633   6.6799   6.6800
     6.6982   6.6982   6.7155   6.7155   6.8172   6.8172   6.8935   6.8935
     6.9795   6.9795   7.0728   7.0728   7.1712   7.1712   7.2155   7.2155
     7.3269   7.3270   7.3697   7.3697   7.3909   7.3909   7.4114   7.4114
     7.4545   7.4545   7.5515   7.5515   7.5856   7.5856   7.6433   7.6433
     7.7381   7.7381   7.7497   7.7497   7.7945   7.7945   7.8388   7.8388
     7.8612   7.8612   8.0377   8.0378   8.0764   8.0764   8.0864   8.0864
     8.1269   8.1269   8.2269   8.2269   8.2428   8.2428   8.2780   8.2780
     8.3030   8.3031   8.3739   8.3740   8.4233   8.4233   8.5564   8.5564
     8.6858   8.6858   8.7078   8.7079   8.7788   8.7789   9.0282   9.0282
     9.4638   9.4638  10.0144  10.0144  10.6129  10.6129  11.3635  11.3635
    12.1080  12.1080  13.0527  13.0527  14.1987  14.1987  15.0363  15.0365
    15.9928  15.9930  16.5623  16.5635  17.5806  17.5808  17.8851  17.8856
    19.2053  19.2056  19.4196  19.4199

          k =-0.5000 0.2887-0.0000 ( 23540 PWs)   bands (ev):

     3.5889   3.5889   3.7069   3.7069   3.8377   3.8377   4.0401   4.0401
     4.2593   4.2593   4.5104   4.5104   4.7692   4.7692   5.0128   5.0129
     5.1971   5.1971   5.2789   5.2789   5.3169   5.3169   5.3443   5.3443
     5.3906   5.3906   5.4013   5.4013   5.4341   5.4341   5.4884   5.4884
     5.5278   5.5278   5.5417   5.5417   5.6047   5.6047   5.6768   5.6768
     5.7160   5.7160   5.7781   5.7781   5.8056   5.8056   5.8486   5.8486
     5.9960   5.9960   6.0530   6.0531   6.0749   6.0750   6.1025   6.1025
     6.1320   6.1320   6.1953   6.1953   6.2911   6.2911   6.3761   6.3762
     6.4452   6.4452   6.5084   6.5084   6.5350   6.5351   6.5800   6.5800
     6.5835   6.5835   6.6742   6.6742   6.8828   6.8828   6.9839   6.9839
     7.0069   7.0069   7.0485   7.0485   7.1457   7.1457   7.2140   7.2140
     7.2571   7.2571   7.3117   7.3117   7.4114   7.4115   7.5581   7.5581
     7.6036   7.6036   7.6476   7.6476   7.6673   7.6673   7.7676   7.7676
     7.8740   7.8741   7.9531   7.9531   8.0232   8.0232   8.0808   8.0808
     8.1533   8.1533   8.2373   8.2373   8.2892   8.2892   8.3521   8.3522
     8.3854   8.3854   8.4236   8.4236   8.4677   8.4677   8.4892   8.4892
     8.5121   8.5121   8.5529   8.5529   8.5954   8.5955   8.6307   8.6308
     8.6747   8.6748   8.6996   8.6997   8.8933   8.8933   9.2783   9.2784
     9.7523   9.7524  10.3266  10.3266  10.9359  10.9360  11.7074  11.7074
    12.4405  12.4405  13.3602  13.3602  14.7739  14.7739  15.4109  15.4110
    16.3285  16.3287  16.8720  16.8730  17.9482  17.9486  18.0603  18.0609
    19.2691  19.2693  19.4194  19.4196

          k =-0.5000 0.4330-0.0000 ( 23522 PWs)   bands (ev):

     3.9378   3.9378   4.0521   4.0521   4.1501   4.1501   4.3112   4.3112
     4.4423   4.4423   4.5851   4.5851   4.7388   4.7389   4.8650   4.8651
     4.9896   4.9896   5.0232   5.0232   5.0960   5.0960   5.1435   5.1435
     5.2046   5.2046   5.2691   5.2691   5.3200   5.3200   5.4060   5.4061
     5.5040   5.5040   5.5411   5.5411   5.5897   5.5897   5.6883   5.6883
     5.7973   5.7974   5.8999   5.8999   5.9876   5.9876   6.0313   6.0313
     6.0839   6.0839   6.1543   6.1543   6.2183   6.2184   6.2771   6.2771
     6.3714   6.3714   6.4254   6.4254   6.4578   6.4578   6.4985   6.4985
     6.5498   6.5498   6.6545   6.6545   6.6968   6.6968   6.7338   6.7338
     6.8067   6.8067   6.8532   6.8532   6.9202   6.9202   6.9518   6.9518
     7.0244   7.0244   7.1257   7.1258   7.2137   7.2138   7.3832   7.3832
     7.4768   7.4768   7.4998   7.4998   7.5347   7.5347   7.5899   7.5900
     7.6170   7.6170   7.7367   7.7367   7.8255   7.8255   7.8731   7.8732
     7.9782   7.9782   8.1462   8.1462   8.1989   8.1989   8.2750   8.2751
     8.3823   8.3823   8.4565   8.4566   8.4759   8.4759   8.5566   8.5567
     8.5988   8.5988   8.6218   8.6219   8.6495   8.6496   8.7660   8.7660
     8.7840   8.7840   8.8165   8.8165   8.8568   8.8568   8.8687   8.8687
     8.9366   8.9366   9.0107   9.0108   9.2187   9.2188   9.6295   9.6295
    10.1513  10.1513  10.7797  10.7797  11.4201  11.4201  12.2078  12.2078
    12.9255  12.9255  13.7812  13.7812  15.4531  15.4531  15.9445  15.9446
    16.7759  16.7761  17.2337  17.2340  17.5911  17.5911  17.7116  17.7119
    17.9524  17.9527  18.1542  18.1545

          k =-0.5000 0.5774-0.0000 ( 23534 PWs)   bands (ev):

     4.0298   4.0298   4.1168   4.1168   4.2537   4.2537   4.3939   4.3939
     4.5067   4.5068   4.5113   4.5113   4.5883   4.5884   4.6446   4.6446
     4.7478   4.7478   4.7757   4.7757   4.8393   4.8393   4.8548   4.8549
     4.9617   4.9617   4.9919   4.9919   5.1039   5.1040   5.2149   5.2149
     5.2432   5.2432   5.3059   5.3060   5.4143   5.4143   5.6102   5.6102
     5.8009   5.8009   5.9851   5.9851   6.1160   6.1160   6.2448   6.2448
     6.3267   6.3267   6.3719   6.3719   6.4453   6.4454   6.4773   6.4773
     6.5012   6.5013   6.5781   6.5781   6.6280   6.6280   6.7285   6.7285
     6.7640   6.7640   6.8823   6.8823   6.9424   6.9425   7.0580   7.0580
     7.0940   7.0940   7.2177   7.2177   7.2526   7.2526   7.3749   7.3749
     7.4507   7.4507   7.5991   7.5991   7.6816   7.6817   7.7327   7.7327
     7.8485   7.8485   7.8920   7.8920   7.9097   7.9097   8.0024   8.0024
     8.1164   8.1165   8.1918   8.1918   8.2206   8.2206   8.2268   8.2268
     8.2520   8.2520   8.3150   8.3150   8.4257   8.4258   8.4488   8.4489
     8.5462   8.5462   8.5852   8.5852   8.5922   8.5922   8.6906   8.6906
     8.7415   8.7416   8.7717   8.7718   8.8216   8.8216   8.9099   8.9099
     8.9284   8.9284   9.1588   9.1588   9.2077   9.2077   9.3117   9.3117
     9.3686   9.3686   9.4640   9.4640   9.6955   9.6956  10.1241  10.1241
    10.6951  10.6951  11.3845  11.3845  12.0687  12.0687  12.8621  12.8621
    13.5754  13.5754  14.3176  14.3176  15.2979  15.2979  15.3847  15.3847
    15.5569  15.5569  15.7952  15.7952  15.9645  15.9645  16.3867  16.3867
    16.8644  16.8645  17.1885  17.1887

          k =-0.5000 0.7217-0.0000 ( 23516 PWs)   bands (ev):

     3.9915   3.9915   4.0573   4.0574   4.2053   4.2054   4.2874   4.2875
     4.3662   4.3663   4.3819   4.3820   4.5245   4.5245   4.5336   4.5336
     4.5871   4.5871   4.6068   4.6068   4.6667   4.6667   4.6857   4.6857
     4.7495   4.7495   4.8538   4.8539   4.9532   4.9533   5.0397   5.0398
     5.0543   5.0544   5.1755   5.1756   5.3435   5.3436   5.5900   5.5900
     5.8338   5.8339   6.0323   6.0323   6.1583   6.1583   6.2108   6.2109
     6.2782   6.2782   6.3267   6.3268   6.3790   6.3791   6.4414   6.4415
     6.4764   6.4765   6.6826   6.6826   6.7674   6.7674   6.8288   6.8288
     6.9097   6.9097   7.0764   7.0764   7.1248   7.1249   7.1860   7.1860
     7.3605   7.3605   7.5366   7.5366   7.5701   7.5702   7.7194   7.7194
     7.8596   7.8596   7.9835   7.9835   8.0164   8.0164   8.1612   8.1612
     8.3041   8.3041   8.3947   8.3948   8.4396   8.4397   8.5019   8.5019
     8.5702   8.5703   8.5908   8.5908   8.6222   8.6222   8.6775   8.6775
     8.7025   8.7025   8.7169   8.7169   8.7278   8.7279   8.7508   8.7509
     8.7692   8.7692   8.7966   8.7966   8.8108   8.8108   8.8345   8.8345
     8.8826   8.8826   8.9349   8.9349   9.0053   9.0054   9.0604   9.0605
     9.0752   9.0753   9.6881   9.6881   9.7617   9.7617  10.0348  10.0348
    10.1797  10.1797  10.3108  10.3108  10.5031  10.5031  10.8771  10.8771
    11.4092  11.4092  12.0773  12.0773  12.7114  12.7114  13.2783  13.2783
    13.4664  13.4664  13.5074  13.5074  13.8660  13.8660  14.0155  14.0155
    14.4103  14.4103  14.4957  14.4957  14.7689  14.7689  15.1116  15.1116
    15.4329  15.4329  15.8718  15.8719

          k =-0.5000-0.8660-0.0000 ( 23552 PWs)   bands (ev):

     3.9662   3.9663   4.0246   4.0246   4.1712   4.1712   4.2313   4.2313
     4.3109   4.3110   4.3308   4.3309   4.4754   4.4755   4.4979   4.4980
     4.5326   4.5326   4.5409   4.5410   4.6126   4.6127   4.6265   4.6265
     4.6724   4.6725   4.8030   4.8031   4.8939   4.8940   4.9718   4.9719
     4.9936   4.9937   5.1352   5.1353   5.3184   5.3185   5.5811   5.5812
     5.8447   5.8448   6.0597   6.0598   6.1550   6.1551   6.1852   6.1853
     6.2677   6.2678   6.3115   6.3116   6.3431   6.3431   6.4038   6.4039
     6.4525   6.4525   6.6783   6.6784   6.8021   6.8021   6.9100   6.9101
     6.9720   6.9721   7.0971   7.0972   7.2410   7.2411   7.2525   7.2526
     7.3638   7.3638   7.5701   7.5702   7.7068   7.7069   7.8098   7.8099
     7.9420   7.9420   8.0752   8.0753   8.2017   8.2018   8.2497   8.2498
     8.4134   8.4135   8.4910   8.4911   8.5590   8.5591   8.6805   8.6806
     8.7056   8.7057   8.7536   8.7537   8.7962   8.7963   8.8044   8.8045
     8.8254   8.8255   8.8426   8.8428   8.8578   8.8579   8.8825   8.8827
     8.8965   8.8966   8.9312   8.9313   8.9487   8.9489   8.9640   8.9640
     9.0215   9.0216   9.0291   9.0292   9.0913   9.0914   9.2142   9.2143
     9.2174   9.2176  10.3530  10.3530  10.4846  10.4846  10.9006  10.9006
    11.1779  11.1779  11.4177  11.4177  11.5973  11.5973  11.7140  11.7140
    11.7861  11.7861  11.8613  11.8613  11.8818  11.8818  12.1144  12.1144
    12.1172  12.1172  12.3016  12.3016  13.6870  13.6871  13.7807  13.7808
    14.1327  14.1327  14.2231  14.2231  14.3946  14.3946  14.7389  14.7390
    15.0845  15.0845  15.6433  15.6433

     the Fermi energy is    10.7267 ev

!    total energy              =  -20153.48878652 Ry

     total all-electron energy =   -988623.487154 Ry
     estimated scf accuracy    <       0.00000067 Ry
     smearing contrib. (-TS)   =      -0.02236425 Ry
     internal energy E=F+TS    =  -20153.46642227 Ry

     The total energy is F=E-TS. E is the sum of the following terms:
     one-electron contribution =   -8805.47063661 Ry
     hartree contribution      =    4728.25639010 Ry
     xc contribution           =    -833.64555952 Ry
     ewald contribution        =    2762.74397837 Ry
     one-center paw contrib.   =  -18005.35059460 Ry

     convergence has been achieved in  34 iterations

     negative rho (up, down):  2.311E-03 0.000E+00

     Forces acting on atoms (cartesian axes, Ry/au):

     atom    1 type  1   force =    -0.00004511    0.00000000   -0.00333142
     atom    2 type  1   force =     0.00000803    0.00000000    0.00365372
     atom    3 type  1   force =     0.00008591    0.00000000    0.00089702
     atom    4 type  1   force =     0.02341108    0.00000000   -0.05586349
     atom    5 type  1   force =     0.00000799    0.00000000   -0.00040395
     atom    6 type  1   force =     0.00012174    0.00000000    0.00444055
     atom    7 type  1   force =    -0.00005988    0.00000000    0.00147227
     atom    8 type  1   force =    -0.02337705    0.00000000    0.05559454
     atom    9 type  1   force =    -0.00001455    0.00000000   -0.00056092
     atom   10 type  1   force =     0.00003185    0.00000000   -0.00148776
     atom   11 type  1   force =    -0.00014267    0.00000000   -0.00423704
     atom   12 type  1   force =    -0.00026278    0.00000000    0.00191953
     atom   13 type  1   force =     0.00021685    0.00000000   -0.00213004
     atom   14 type  1   force =     0.00012615    0.00000000    0.00444462
     atom   15 type  1   force =    -0.00006030    0.00000000    0.00148053
     atom   16 type  1   force =    -0.02337366    0.00000000    0.05559064
     atom   17 type  1   force =    -0.00001142    0.00000000   -0.00056381
     atom   18 type  1   force =     0.00003187    0.00000000   -0.00147757
     atom   19 type  1   force =    -0.00014383    0.00000000   -0.00422220
     atom   20 type  1   force =    -0.00026122    0.00000000    0.00192742
     atom   21 type  1   force =     0.00022256    0.00000000   -0.00212397
     atom   22 type  1   force =    -0.00003458    0.00000000   -0.00332751
     atom   23 type  1   force =     0.00001438    0.00000000    0.00367306
     atom   24 type  1   force =     0.00008425    0.00000000    0.00090369
     atom   25 type  1   force =     0.02341713    0.00000000   -0.05586568
     atom   26 type  1   force =     0.00000729    0.00000000   -0.00040222

     Total force =     0.121509     Total SCF correction =     0.005427

     Writing all to output data dir ./pwscf.save/
 
     init_run     :     19.62s CPU     20.13s WALL (       1 calls)
     electrons    :   1581.19s CPU   1597.01s WALL (       1 calls)
     forces       :      5.93s CPU      6.02s WALL (       1 calls)

     Called by init_run:
     wfcinit      :     18.80s CPU     19.17s WALL (       1 calls)
     potinit      :      0.35s CPU      0.39s WALL (       1 calls)
     hinit0       :      0.30s CPU      0.35s WALL (       1 calls)

     Called by electrons:
     c_bands      :   1426.78s CPU   1440.87s WALL (      35 calls)
     sum_band     :    143.97s CPU    145.20s WALL (      35 calls)
     v_of_rho     :      0.81s CPU      1.06s WALL (      35 calls)
     newd         :      1.88s CPU      2.06s WALL (      35 calls)
     PAW_pot      :      7.90s CPU      7.94s WALL (      35 calls)
     mix_rho      :      0.13s CPU      0.14s WALL (      35 calls)

     Called by c_bands:
     init_us_2    :      3.75s CPU      3.83s WALL (    2520 calls)
     init_us_2:cp :      3.75s CPU      3.82s WALL (    2520 calls)
     cegterg      :   1371.78s CPU   1385.20s WALL (    1225 calls)

     Called by *egterg:
     cdiaghg      :    145.72s CPU    147.89s WALL (    6116 calls)
     h_psi        :    825.70s CPU    832.46s WALL (    6186 calls)
     s_psi        :     87.07s CPU     87.52s WALL (    6186 calls)
     g_psi        :      1.72s CPU      1.73s WALL (    4926 calls)

     Called by h_psi:
     h_psi:calbec :    111.05s CPU    111.53s WALL (    6186 calls)
     vloc_psi     :    623.06s CPU    627.36s WALL (    6186 calls)
     add_vuspsi   :     90.47s CPU     90.79s WALL (    6186 calls)

     General routines
     calbec       :    159.01s CPU    159.68s WALL (    7551 calls)
     fft          :      0.78s CPU      1.13s WALL (     397 calls)
     ffts         :      0.04s CPU      0.05s WALL (      35 calls)
     fftw         :    694.96s CPU    699.70s WALL ( 1224256 calls)
 
     Parallel routines
 
     PWSCF        :  26m54.63s CPU  27m22.16s WALL

 
   This run was terminated on:   1:46:44  16Feb2024            

=------------------------------------------------------------------------------=
   JOB DONE.
=------------------------------------------------------------------------------=
