MPI startup(): Warning: I_MPI_PMI_LIBRARY will be ignored since the hydra process manager was found
MPI startup(): Warning: I_MPI_PMI_LIBRARY will be ignored since the hydra process manager was found
MPI startup(): Warning: I_MPI_PMI_LIBRARY will be ignored since the hydra process manager was found
MPI startup(): Warning: I_MPI_PMI_LIBRARY will be ignored since the hydra process manager was found
MPI startup(): Warning: I_MPI_PMI_LIBRARY will be ignored since the hydra process manager was found
MPI startup(): Warning: I_MPI_PMI_LIBRARY will be ignored since the hydra process manager was found
MPI startup(): Warning: I_MPI_PMI_LIBRARY will be ignored since the hydra process manager was found
MPI startup(): Warning: I_MPI_PMI_LIBRARY will be ignored since the hydra process manager was found
MPI startup(): Warning: I_MPI_PMI_LIBRARY will be ignored since the hydra process manager was found
MPI startup(): Warning: I_MPI_PMI_LIBRARY will be ignored since the hydra process manager was found

     Program PWSCF v.7.0 starts on 14Feb2024 at 17:49: 8 

     This program is part of the open-source Quantum ESPRESSO suite
     for quantum simulation of materials; please cite
         "P. Giannozzi et al., J. Phys.:Condens. Matter 21 395502 (2009);
         "P. Giannozzi et al., J. Phys.:Condens. Matter 29 465901 (2017);
         "P. Giannozzi et al., J. Chem. Phys. 152 154105 (2020);
          URL http://www.quantum-espresso.org", 
     in publications or presentations arising from this work. More details at
     http://www.quantum-espresso.org/quote

     Parallel version (MPI), running on    10 processors

     MPI processes distributed on     1 nodes
     R & G space division:  proc/nbgrp/npool/nimage =      10
     67303 MiB available memory on the printing compute node when the environment starts
 
     Reading input from GSF111R_0.25.in
Warning: card &CELL ignored
Warning: card / ignored

     Current dimensions of program PWSCF are:
     Max number of different atomic species (ntypx) = 10
     Max number of k-points (npk) =  40000
     Max angular momentum in pseudopotentials (lmaxx) =  4
     file Au.pbe-n-kjpaw_psl.1.0.0.UPF: wavefunction(s)  6S 5D renormalized
     Found identity + ( -0.5000  0.5000  0.0000) symmetry
     This is a supercell, fractional translations are disabled

     Subspace diagonalization in iterative solution of the eigenvalue problem:
     one sub-group per band group will be used
     scalapack distributed-memory algorithm (size of sub-group:  3*  3 procs)

 
     Parallelization info
     --------------------
     sticks:   dense  smooth     PW     G-vecs:    dense   smooth      PW
     Min          85      85     25                18799    18799    3045
     Max          87      87     26                18816    18816    3065
     Sum         859     859    251               188065   188065   30575
 
     Using Slab Decomposition
 


     bravais-lattice index     =            0
     lattice parameter (alat)  =       9.6360  a.u.
     unit-cell volume          =    3935.2145 (a.u.)^3
     number of atoms/cell      =           26
     number of atomic types    =            1
     number of electrons       =       286.00
     number of Kohn-Sham states=          172
     kinetic-energy cutoff     =      50.0000  Ry
     charge density cutoff     =     200.0000  Ry
     scf convergence threshold =      1.0E-06
     mixing beta               =       0.7000
     number of iterations used =            8  plain     mixing
     energy convergence thresh.=      1.0E-04
     force convergence thresh. =      1.0E-03
     Exchange-correlation= SLA  PW   PBX  PBC
                           (   1   4   3   4   0   0   0)
     nstep                     =           50


     celldm(1)=   9.635999  celldm(2)=   0.000000  celldm(3)=   0.000000
     celldm(4)=   0.000000  celldm(5)=   0.000000  celldm(6)=   0.000000

     crystal axes: (cart. coord. in units of alat)
               a(1) = (   1.000000   0.000000   0.000000 )  
               a(2) = (   0.000000   0.577350   0.000000 )  
               a(3) = (  -0.000005   0.000000   7.617966 )  

     reciprocal axes: (cart. coord. in units 2 pi/alat)
               b(1) = (  1.000000  0.000000  0.000001 )  
               b(2) = (  0.000000  1.732052  0.000000 )  
               b(3) = (  0.000000  0.000000  0.131269 )  


     PseudoPot. # 1 for Au read from file:
     ./Au.pbe-n-kjpaw_psl.1.0.0.UPF
     MD5 check sum: 4db85c736373c707a97ce4c36c2a9d23
     Pseudo is Projector augmented-wave + core cor, Zval = 11.0
     Generated using &quot;atomic&quot; code by A. Dal Corso  v.6.3
     Shape of augmentation charge: PSQ
     Using radial grid of 1279 points,  6 beta functions with: 
                l(1) =   0
                l(2) =   0
                l(3) =   1
                l(4) =   1
                l(5) =   2
                l(6) =   2
     Q(r) pseudized with 0 coefficients 


     atomic species   valence    mass     pseudopotential
        Au            11.00   196.96657     Au( 1.00)

     No symmetry found



   Cartesian axes

     site n.     atom                  positions (alat units)
         1           Au  tau(   1) = (   0.0000000   0.0000000   0.0000000  )
         2           Au  tau(   2) = (   0.9999954   0.1443377   5.6568550  )
         3           Au  tau(   3) = (   0.9999966   0.1443377   4.2426411  )
         4           Au  tau(   4) = (   0.9999976   0.0000000   2.8284275  )
         5           Au  tau(   5) = (   0.9999988   0.0000000   1.4142138  )
         6           Au  tau(   6) = (   0.3333329   0.0000000   0.4714045  )
         7           Au  tau(   7) = (   0.3333296   0.1443377   4.7140455  )
         8           Au  tau(   8) = (   0.3333308   0.1443377   3.2998319  )
         9           Au  tau(   9) = (   0.3333318   0.0000000   1.8856185  )
        10           Au  tau(  10) = (   0.6666659   0.0000000   0.9428093  )
        11           Au  tau(  11) = (   0.6666625   0.1443377   5.1854506  )
        12           Au  tau(  12) = (   0.6666637   0.1443377   3.7712367  )
        13           Au  tau(  13) = (   0.6666649   0.0000000   2.3570234  )
        14           Au  tau(  14) = (   0.8333330   0.2886749   0.4714045  )
        15           Au  tau(  15) = (   0.8333294   0.4330127   4.7140455  )
        16           Au  tau(  16) = (   0.8333306   0.4330127   3.2998319  )
        17           Au  tau(  17) = (   0.8333318   0.2886749   1.8856185  )
        18           Au  tau(  18) = (   0.1666658   0.2886749   0.9428093  )
        19           Au  tau(  19) = (   0.1666624   0.4330127   5.1854506  )
        20           Au  tau(  20) = (   0.1666636   0.4330127   3.7712367  )
        21           Au  tau(  21) = (   0.1666648   0.2886749   2.3570234  )
        22           Au  tau(  22) = (   0.5000001   0.2886749   0.0000000  )
        23           Au  tau(  23) = (   0.4999955   0.4330127   5.6568550  )
        24           Au  tau(  24) = (   0.4999965   0.4330127   4.2426411  )
        25           Au  tau(  25) = (   0.4999977   0.2886749   2.8284275  )
        26           Au  tau(  26) = (   0.4999989   0.2886749   1.4142138  )

     number of k points=    50  Gaussian smearing, width (Ry)=  0.0020
                       cart. coord. in units 2pi/alat
        k(    1) = (   0.0000000   0.0000000   0.0000000), wk =   0.0208333
        k(    2) = (   0.0000000   0.1443376   0.0000000), wk =   0.0416667
        k(    3) = (   0.0000000   0.2886753   0.0000000), wk =   0.0416667
        k(    4) = (   0.0000000   0.4330129   0.0000000), wk =   0.0416667
        k(    5) = (   0.0000000   0.5773506   0.0000000), wk =   0.0416667
        k(    6) = (   0.0000000   0.7216882   0.0000000), wk =   0.0416667
        k(    7) = (   0.0000000  -0.8660259   0.0000000), wk =   0.0208333
        k(    8) = (   0.1250000   0.0000000   0.0000001), wk =   0.0416667
        k(    9) = (   0.1250000   0.1443376   0.0000001), wk =   0.0416667
        k(   10) = (   0.1250000   0.2886753   0.0000001), wk =   0.0416667
        k(   11) = (   0.1250000   0.4330129   0.0000001), wk =   0.0416667
        k(   12) = (   0.1250000   0.5773506   0.0000001), wk =   0.0416667
        k(   13) = (   0.1250000   0.7216882   0.0000001), wk =   0.0416667
        k(   14) = (   0.1250000  -0.8660259   0.0000001), wk =   0.0416667
        k(   15) = (   0.1250000  -0.7216882   0.0000001), wk =   0.0416667
        k(   16) = (   0.1250000  -0.5773506   0.0000001), wk =   0.0416667
        k(   17) = (   0.1250000  -0.4330129   0.0000001), wk =   0.0416667
        k(   18) = (   0.1250000  -0.2886753   0.0000001), wk =   0.0416667
        k(   19) = (   0.1250000  -0.1443376   0.0000001), wk =   0.0416667
        k(   20) = (   0.2500000   0.0000000   0.0000002), wk =   0.0416667
        k(   21) = (   0.2500000   0.1443376   0.0000002), wk =   0.0416667
        k(   22) = (   0.2500000   0.2886753   0.0000002), wk =   0.0416667
        k(   23) = (   0.2500000   0.4330129   0.0000002), wk =   0.0416667
        k(   24) = (   0.2500000   0.5773506   0.0000002), wk =   0.0416667
        k(   25) = (   0.2500000   0.7216882   0.0000002), wk =   0.0416667
        k(   26) = (   0.2500000  -0.8660259   0.0000002), wk =   0.0416667
        k(   27) = (   0.2500000  -0.7216882   0.0000002), wk =   0.0416667
        k(   28) = (   0.2500000  -0.5773506   0.0000002), wk =   0.0416667
        k(   29) = (   0.2500000  -0.4330129   0.0000002), wk =   0.0416667
        k(   30) = (   0.2500000  -0.2886753   0.0000002), wk =   0.0416667
        k(   31) = (   0.2500000  -0.1443376   0.0000002), wk =   0.0416667
        k(   32) = (   0.3750000   0.0000000   0.0000002), wk =   0.0416667
        k(   33) = (   0.3750000   0.1443376   0.0000002), wk =   0.0416667
        k(   34) = (   0.3750000   0.2886753   0.0000002), wk =   0.0416667
        k(   35) = (   0.3750000   0.4330129   0.0000002), wk =   0.0416667
        k(   36) = (   0.3750000   0.5773506   0.0000002), wk =   0.0416667
        k(   37) = (   0.3750000   0.7216882   0.0000002), wk =   0.0416667
        k(   38) = (   0.3750000  -0.8660259   0.0000002), wk =   0.0416667
        k(   39) = (   0.3750000  -0.7216882   0.0000002), wk =   0.0416667
        k(   40) = (   0.3750000  -0.5773506   0.0000002), wk =   0.0416667
        k(   41) = (   0.3750000  -0.4330129   0.0000002), wk =   0.0416667
        k(   42) = (   0.3750000  -0.2886753   0.0000002), wk =   0.0416667
        k(   43) = (   0.3750000  -0.1443376   0.0000002), wk =   0.0416667
        k(   44) = (  -0.5000000   0.0000000  -0.0000003), wk =   0.0208333
        k(   45) = (  -0.5000000   0.1443376  -0.0000003), wk =   0.0416667
        k(   46) = (  -0.5000000   0.2886753  -0.0000003), wk =   0.0416667
        k(   47) = (  -0.5000000   0.4330129  -0.0000003), wk =   0.0416667
        k(   48) = (  -0.5000000   0.5773506  -0.0000003), wk =   0.0416667
        k(   49) = (  -0.5000000   0.7216882  -0.0000003), wk =   0.0416667
        k(   50) = (  -0.5000000  -0.8660259  -0.0000003), wk =   0.0208333

     Dense  grid:   188065 G-vectors     FFT dimensions: (  45,  25, 360)

     Estimated max dynamical RAM per process >     418.32 MB

     Estimated total dynamical RAM >       4.09 GB

     Initial potential from superposition of free atoms

     starting charge     285.9971, renormalised to     286.0000

     negative rho (up, down):  2.479E-03 0.000E+00
     Starting wfcs are  234 randomized atomic wfcs
     Checking if some PAW data can be deallocated... 

     total cpu time spent up to now is       26.6 secs

     Self-consistent Calculation

     iteration #  1     ecut=    50.00 Ry     beta= 0.70
     Davidson diagonalization with overlap
     ethr =  1.00E-02,  avg # of iterations =  5.0

     Threshold (ethr) on eigenvalues was too large:
     Diagonalizing with lowered threshold

     Davidson diagonalization with overlap
     ethr =  3.96E-04,  avg # of iterations =  4.7

     negative rho (up, down):  1.713E-03 0.000E+00

     total cpu time spent up to now is      173.1 secs

     total energy              =  -20152.81948945 Ry
     estimated scf accuracy    <       1.44409368 Ry

     iteration #  2     ecut=    50.00 Ry     beta= 0.70
     Davidson diagonalization with overlap
     c_bands:  1 eigenvalues not converged
     ethr =  5.05E-04,  avg # of iterations = 16.0

     negative rho (up, down):  1.713E-03 0.000E+00

     total cpu time spent up to now is      314.8 secs

     total energy              =  -20134.35881984 Ry
     estimated scf accuracy    <    2511.83576580 Ry

     iteration #  3     ecut=    50.00 Ry     beta= 0.70
     Davidson diagonalization with overlap
     ethr =  5.05E-04,  avg # of iterations = 11.5

     negative rho (up, down):  1.918E-03 0.000E+00

     total cpu time spent up to now is      423.9 secs

     total energy              =  -20152.45696864 Ry
     estimated scf accuracy    <       4.39097162 Ry

     iteration #  4     ecut=    50.00 Ry     beta= 0.70
     Davidson diagonalization with overlap
     ethr =  5.05E-04,  avg # of iterations = 10.7

     negative rho (up, down):  1.959E-03 0.000E+00

     total cpu time spent up to now is      521.4 secs

     total energy              =  -20148.88377359 Ry
     estimated scf accuracy    <     208.37441214 Ry

     iteration #  5     ecut=    50.00 Ry     beta= 0.70
     Davidson diagonalization with overlap
     c_bands:  1 eigenvalues not converged
     ethr =  5.05E-04,  avg # of iterations = 12.9

     negative rho (up, down):  1.822E-03 0.000E+00

     total cpu time spent up to now is      639.8 secs

     total energy              =  -20139.88384854 Ry
     estimated scf accuracy    <    2327.51353119 Ry

     iteration #  6     ecut=    50.00 Ry     beta= 0.70
     Davidson diagonalization with overlap
     ethr =  5.05E-04,  avg # of iterations = 10.9

     negative rho (up, down):  1.769E-03 0.000E+00

     total cpu time spent up to now is      734.7 secs

     total energy              =  -20153.35821919 Ry
     estimated scf accuracy    <       1.71550590 Ry

     iteration #  7     ecut=    50.00 Ry     beta= 0.70
     Davidson diagonalization with overlap
     ethr =  5.05E-04,  avg # of iterations =  2.5

     negative rho (up, down):  1.805E-03 0.000E+00

     total cpu time spent up to now is      788.9 secs

     total energy              =  -20153.44410766 Ry
     estimated scf accuracy    <       1.35564888 Ry

     iteration #  8     ecut=    50.00 Ry     beta= 0.70
     Davidson diagonalization with overlap
     ethr =  4.74E-04,  avg # of iterations =  1.1

     negative rho (up, down):  1.855E-03 0.000E+00

     total cpu time spent up to now is      837.4 secs

     total energy              =  -20153.47319655 Ry
     estimated scf accuracy    <       0.70206858 Ry

     iteration #  9     ecut=    50.00 Ry     beta= 0.70
     Davidson diagonalization with overlap
     ethr =  2.45E-04,  avg # of iterations =  2.1

     negative rho (up, down):  1.979E-03 0.000E+00

     total cpu time spent up to now is      889.7 secs

     total energy              =  -20153.47986771 Ry
     estimated scf accuracy    <       0.60441070 Ry

     iteration # 10     ecut=    50.00 Ry     beta= 0.70
     Davidson diagonalization with overlap
     ethr =  2.11E-04,  avg # of iterations =  1.1

     negative rho (up, down):  2.208E-03 0.000E+00

     total cpu time spent up to now is      938.2 secs

     total energy              =  -20153.49289696 Ry
     estimated scf accuracy    <       0.07933020 Ry

     iteration # 11     ecut=    50.00 Ry     beta= 0.70
     Davidson diagonalization with overlap
     c_bands:  1 eigenvalues not converged
     c_bands:  1 eigenvalues not converged
     c_bands:  1 eigenvalues not converged
     c_bands:  1 eigenvalues not converged
     ethr =  2.77E-05,  avg # of iterations = 10.0

     negative rho (up, down):  2.303E-03 0.000E+00

     total cpu time spent up to now is     1005.0 secs

     total energy              =  -20153.49517147 Ry
     estimated scf accuracy    <       0.01862206 Ry

     iteration # 12     ecut=    50.00 Ry     beta= 0.70
     Davidson diagonalization with overlap
     c_bands:  1 eigenvalues not converged
     c_bands:  1 eigenvalues not converged
     c_bands:  1 eigenvalues not converged
     c_bands:  1 eigenvalues not converged
     ethr =  6.51E-06,  avg # of iterations = 11.1

     negative rho (up, down):  2.255E-03 0.000E+00

     total cpu time spent up to now is     1083.8 secs

     total energy              =  -20153.49136925 Ry
     estimated scf accuracy    <       0.29508213 Ry

     iteration # 13     ecut=    50.00 Ry     beta= 0.70
     Davidson diagonalization with overlap
     ethr =  6.51E-06,  avg # of iterations =  8.5

     negative rho (up, down):  2.336E-03 0.000E+00

     total cpu time spent up to now is     1150.1 secs

     total energy              =  -20153.49707703 Ry
     estimated scf accuracy    <       0.02699899 Ry

     iteration # 14     ecut=    50.00 Ry     beta= 0.70
     Davidson diagonalization with overlap
     ethr =  6.51E-06,  avg # of iterations =  2.2

     negative rho (up, down):  2.298E-03 0.000E+00

     total cpu time spent up to now is     1203.5 secs

     total energy              =  -20153.49708472 Ry
     estimated scf accuracy    <       0.01606942 Ry

     iteration # 15     ecut=    50.00 Ry     beta= 0.70
     Davidson diagonalization with overlap
     c_bands:  1 eigenvalues not converged
     ethr =  5.62E-06,  avg # of iterations = 13.1

     negative rho (up, down):  2.298E-03 0.000E+00

     total cpu time spent up to now is     1280.4 secs

     total energy              =  -20153.48283542 Ry
     estimated scf accuracy    <       1.46529977 Ry

     iteration # 16     ecut=    50.00 Ry     beta= 0.70
     Davidson diagonalization with overlap
     c_bands:  1 eigenvalues not converged
     c_bands:  1 eigenvalues not converged
     c_bands:  1 eigenvalues not converged
     ethr =  5.62E-06,  avg # of iterations = 13.5

     negative rho (up, down):  2.302E-03 0.000E+00

     total cpu time spent up to now is     1354.5 secs

     total energy              =  -20153.49833396 Ry
     estimated scf accuracy    <       0.00248327 Ry

     iteration # 17     ecut=    50.00 Ry     beta= 0.70
     Davidson diagonalization with overlap
     ethr =  8.68E-07,  avg # of iterations =  2.6

     negative rho (up, down):  2.305E-03 0.000E+00

     total cpu time spent up to now is     1408.5 secs

     total energy              =  -20153.49847291 Ry
     estimated scf accuracy    <       0.00033803 Ry

     iteration # 18     ecut=    50.00 Ry     beta= 0.70
     Davidson diagonalization with overlap
     ethr =  1.18E-07,  avg # of iterations =  3.5

     negative rho (up, down):  2.306E-03 0.000E+00

     total cpu time spent up to now is     1467.3 secs

     total energy              =  -20153.49850115 Ry
     estimated scf accuracy    <       0.00007867 Ry

     iteration # 19     ecut=    50.00 Ry     beta= 0.70
     Davidson diagonalization with overlap
     ethr =  2.75E-08,  avg # of iterations =  4.6

     negative rho (up, down):  2.308E-03 0.000E+00

     total cpu time spent up to now is     1542.6 secs

     total energy              =  -20153.49847887 Ry
     estimated scf accuracy    <       0.00089962 Ry

     iteration # 20     ecut=    50.00 Ry     beta= 0.70
     Davidson diagonalization with overlap
     ethr =  2.75E-08,  avg # of iterations =  2.0

     negative rho (up, down):  2.311E-03 0.000E+00

     total cpu time spent up to now is     1600.1 secs

     total energy              =  -20153.49849577 Ry
     estimated scf accuracy    <       0.00034837 Ry

     iteration # 21     ecut=    50.00 Ry     beta= 0.70
     Davidson diagonalization with overlap
     ethr =  2.75E-08,  avg # of iterations =  2.0

     negative rho (up, down):  2.312E-03 0.000E+00

     total cpu time spent up to now is     1658.7 secs

     total energy              =  -20153.49850528 Ry
     estimated scf accuracy    <       0.00019287 Ry

     iteration # 22     ecut=    50.00 Ry     beta= 0.70
     Davidson diagonalization with overlap
     ethr =  2.75E-08,  avg # of iterations =  2.0

     negative rho (up, down):  2.313E-03 0.000E+00

     total cpu time spent up to now is     1712.4 secs

     total energy              =  -20153.49850833 Ry
     estimated scf accuracy    <       0.00026800 Ry

     iteration # 23     ecut=    50.00 Ry     beta= 0.70
     Davidson diagonalization with overlap
     ethr =  2.75E-08,  avg # of iterations =  1.8

     negative rho (up, down):  2.312E-03 0.000E+00

     total cpu time spent up to now is     1764.4 secs

     total energy              =  -20153.49852065 Ry
     estimated scf accuracy    <       0.00001418 Ry

     iteration # 24     ecut=    50.00 Ry     beta= 0.70
     Davidson diagonalization with overlap
     ethr =  4.96E-09,  avg # of iterations =  2.0

     negative rho (up, down):  2.313E-03 0.000E+00

     total cpu time spent up to now is     1822.3 secs

     total energy              =  -20153.49852079 Ry
     estimated scf accuracy    <       0.00004547 Ry

     iteration # 25     ecut=    50.00 Ry     beta= 0.70
     Davidson diagonalization with overlap
     ethr =  4.96E-09,  avg # of iterations =  1.3

     negative rho (up, down):  2.313E-03 0.000E+00

     total cpu time spent up to now is     1871.7 secs

     total energy              =  -20153.49852269 Ry
     estimated scf accuracy    <       0.00002758 Ry

     iteration # 26     ecut=    50.00 Ry     beta= 0.70
     Davidson diagonalization with overlap
     ethr =  4.96E-09,  avg # of iterations =  1.0

     negative rho (up, down):  2.313E-03 0.000E+00

     total cpu time spent up to now is     1919.4 secs

     total energy              =  -20153.49852188 Ry
     estimated scf accuracy    <       0.00013205 Ry

     iteration # 27     ecut=    50.00 Ry     beta= 0.70
     Davidson diagonalization with overlap
     ethr =  4.96E-09,  avg # of iterations =  1.0

     negative rho (up, down):  2.313E-03 0.000E+00

     total cpu time spent up to now is     1967.1 secs

     total energy              =  -20153.49852028 Ry
     estimated scf accuracy    <       0.00025619 Ry

     iteration # 28     ecut=    50.00 Ry     beta= 0.70
     Davidson diagonalization with overlap
     ethr =  4.96E-09,  avg # of iterations =  1.0

     negative rho (up, down):  2.313E-03 0.000E+00

     total cpu time spent up to now is     2014.1 secs

     total energy              =  -20153.49852394 Ry
     estimated scf accuracy    <       0.00000123 Ry

     iteration # 29     ecut=    50.00 Ry     beta= 0.70
     Davidson diagonalization with overlap
     ethr =  4.30E-10,  avg # of iterations =  2.0

     negative rho (up, down):  2.313E-03 0.000E+00

     total cpu time spent up to now is     2069.2 secs

     total energy              =  -20153.49852394 Ry
     estimated scf accuracy    <       0.00000397 Ry

     iteration # 30     ecut=    50.00 Ry     beta= 0.70
     Davidson diagonalization with overlap
     ethr =  4.30E-10,  avg # of iterations =  1.0

     negative rho (up, down):  2.313E-03 0.000E+00

     total cpu time spent up to now is     2116.8 secs

     total energy              =  -20153.49852410 Ry
     estimated scf accuracy    <       0.00000160 Ry

     iteration # 31     ecut=    50.00 Ry     beta= 0.70
     Davidson diagonalization with overlap
     ethr =  4.30E-10,  avg # of iterations =  1.0

     negative rho (up, down):  2.313E-03 0.000E+00

     total cpu time spent up to now is     2164.3 secs

     End of self-consistent calculation

          k = 0.0000 0.0000 0.0000 ( 23605 PWs)   bands (ev):

     1.5107   1.6528   1.8901   2.1939   2.5560   2.9475   3.3244   3.6282
     3.8187   3.8937   3.9474   3.9502   4.0685   4.0748   4.0776   4.2089
     4.2312   4.2880   4.4112   4.4337   4.5135   4.5451   4.5690   4.6047
     4.6545   4.6921   4.7852   4.8880   4.9865   5.0069   5.1678   5.4394
     5.5662   5.7103   5.7595   5.9698   6.1407   6.1446   6.1774   6.2310
     6.2501   6.2718   6.3125   6.3194   6.3222   6.3346   6.3421   6.3559
     6.3562   6.3777   6.3920   6.4012   6.4066   6.4083   6.4274   6.4406
     6.4429   6.4562   6.4770   6.4863   6.5105   6.5284   6.5365   6.5469
     6.5640   6.5663   6.5780   6.5922   6.6360   6.6540   6.6898   6.7136
     6.7570   6.7693   6.8641   6.8726   6.8726   6.8749   6.8750   7.0423
     7.0861   7.1488   7.1836   7.3030   7.4632   7.4744   7.5398   7.5668
     7.6280   7.6847   7.6864   7.6973   7.7027   7.7245   7.7326   7.7716
     7.7967   7.8169   7.8815   7.8976   7.9041   7.9452   8.0225   8.0266
     8.0268   8.1054   8.1801   8.1983   8.3290   8.3652   8.3861   8.3912
     8.4892   8.5146   8.5333   8.5552   8.5733   8.6114   8.6982   8.7094
     8.7151   8.7254   8.7624   8.7659   8.7736   8.7987   8.8076   8.8248
     8.8277   8.8394   8.8483   8.8659   8.8878   8.9040   8.9444   8.9622
     9.0212   9.0340   9.1198   9.2221   9.2241   9.4141  10.2081  10.5110
    10.5677  10.6307  10.9364  11.2520  11.4735  11.6293  11.7318  11.7956
    11.8569  11.8844  11.9299  12.1228  12.1253  13.5376  13.7355  13.9806
    13.9901  14.2920  14.5492  14.8688  14.8907  15.0645  15.3519  15.9030
    16.2357  16.3956  16.4585  16.4726

          k = 0.0000 0.1443 0.0000 ( 23551 PWs)   bands (ev):

     1.6627   1.8042   2.0391   2.3414   2.7016   3.0924   3.4694   3.7721
     3.9569   4.0247   4.0672   4.0748   4.1912   4.2104   4.2132   4.3007
     4.3501   4.3912   4.5197   4.5593   4.6120   4.6442   4.6627   4.7404
     4.7843   4.8014   4.8860   4.9544   5.1095   5.1308   5.2233   5.4714
     5.5721   5.6816   5.7662   5.9350   6.0452   6.0929   6.1215   6.1336
     6.1510   6.1895   6.2562   6.2574   6.2732   6.2862   6.3333   6.3345
     6.3644   6.3812   6.3974   6.4226   6.4261   6.4400   6.4499   6.4613
     6.4679   6.4763   6.4955   6.5133   6.5307   6.5407   6.5612   6.5779
     6.5968   6.6021   6.6276   6.6356   6.6538   6.6633   6.6814   6.7190
     6.7219   6.7562   6.8177   6.8369   6.8441   6.8730   6.9544   6.9585
     6.9626   6.9902   7.1876   7.2318   7.3017   7.3451   7.4270   7.4848
     7.4918   7.5724   7.5799   7.6202   7.6227   7.6669   7.7018   7.7316
     7.7636   7.7702   7.7835   7.8128   7.8427   7.9210   7.9479   7.9539
     8.0351   8.0639   8.0951   8.1411   8.1456   8.2422   8.2544   8.3054
     8.3080   8.4140   8.4575   8.4715   8.4816   8.5020   8.5263   8.5770
     8.6164   8.6209   8.6240   8.7031   8.7038   8.7234   8.7340   8.7439
     8.7554   8.7733   8.7737   8.8024   8.8520   8.8714   8.8967   8.9222
     8.9227   9.0377   9.0530   9.1303   9.4174  10.0227  10.8563  10.9212
    11.0750  11.1061  11.3188  11.5305  11.6840  11.8045  11.9056  11.9991
    12.1116  12.2344  12.3727  12.5071  12.5338  13.5395  13.7752  14.0120
    14.0645  14.3847  14.6527  14.9309  15.0243  15.1744  15.5097  16.0592
    16.1585  16.4850  16.5409  16.5617

          k = 0.0000 0.2887 0.0000 ( 23495 PWs)   bands (ev):

     2.1030   2.2419   2.4671   2.7615   3.1116   3.4960   3.8704   4.1689
     4.3358   4.3835   4.3865   4.4160   4.5111   4.5242   4.5838   4.5865
     4.6115   4.6559   4.7576   4.8688   4.9006   4.9256   4.9480   5.0531
     5.0883   5.1149   5.1648   5.2277   5.3532   5.4137   5.4648   5.5873
     5.6012   5.6276   5.7572   5.8102   5.8311   5.8908   5.9191   5.9632
     5.9893   5.9922   6.0492   6.0708   6.0786   6.0904   6.1467   6.1509
     6.1899   6.2084   6.2292   6.2725   6.3770   6.4021   6.4069   6.4773
     6.4924   6.5116   6.5677   6.6032   6.6096   6.6225   6.6230   6.6536
     6.6705   6.6849   6.6901   6.6981   6.7482   6.7512   6.7769   6.8047
     6.8058   6.8151   6.8454   6.8842   6.8863   6.9043   6.9344   6.9730
     6.9758   7.0029   7.0614   7.1032   7.1369   7.1918   7.2136   7.2227
     7.2522   7.3081   7.3313   7.3772   7.4170   7.4467   7.4636   7.4734
     7.5247   7.5810   7.6193   7.6722   7.7168   7.7720   7.7839   7.8015
     7.8676   7.9194   7.9379   7.9484   7.9714   7.9716   8.0557   8.0758
     8.1244   8.1873   8.2246   8.2282   8.3178   8.3280   8.3393   8.4654
     8.4949   8.5076   8.5322   8.5582   8.5770   8.6046   8.6180   8.6566
     8.6903   8.7128   8.7213   8.7213   8.7959   8.8051   8.8557   8.9365
     8.9472   9.0493   9.1452   9.5458  10.1861  10.8621  11.7529  11.9668
    11.9876  12.0057  12.0521  12.1285  12.1454  12.2289  12.3575  12.5209
    12.7116  12.9371  13.1470  13.3806  13.5882  13.6236  14.0106  14.1551
    14.3802  14.7073  14.9668  15.1488  15.4248  15.5066  15.7393  16.0511
    16.1861  16.6766  16.7677  16.8076

          k = 0.0000 0.4330 0.0000 ( 23423 PWs)   bands (ev):

     2.7819   2.9125   3.1107   3.3797   3.6938   4.0473   4.4021   4.6953
     4.7484   4.7842   4.8426   4.8575   4.8703   4.8775   4.9290   4.9763
     5.0056   5.0759   5.0785   5.1157   5.1767   5.2371   5.3385   5.3544
     5.3740   5.4100   5.4569   5.4588   5.4987   5.5559   5.5614   5.6062
     5.6556   5.6831   5.6956   5.7435   5.7609   5.7883   5.7918   5.7972
     5.8124   5.8156   5.8400   5.8406   5.9013   5.9120   5.9172   5.9452
     5.9902   6.0513   6.0647   6.0903   6.1174   6.2002   6.2700   6.2903
     6.3160   6.3386   6.4297   6.4693   6.5025   6.5475   6.5535   6.6164
     6.6234   6.6355   6.6812   6.7014   6.7100   6.7365   6.7385   6.7536
     6.7661   6.7903   6.8265   6.8824   6.9101   6.9639   7.0239   7.0388
     7.1176   7.1431   7.1834   7.1910   7.1983   7.2784   7.2869   7.3174
     7.3613   7.3875   7.4035   7.4040   7.4067   7.4318   7.4425   7.4607
     7.5054   7.5074   7.5329   7.5542   7.5875   7.6264   7.6558   7.7068
     7.7627   7.8281   7.8397   7.8433   7.9011   7.9183   7.9726   7.9909
     8.0029   8.0615   8.0857   8.1315   8.1846   8.2854   8.3544   8.4032
     8.4221   8.4480   8.4974   8.5015   8.5367   8.5703   8.6072   8.6207
     8.6610   8.6625   8.6750   8.7337   8.7763   8.7901   8.8082   8.8475
     8.9307   9.2067   9.6851  10.2034  10.9247  11.6560  12.5108  12.5384
    12.5966  12.6431  12.6546  12.8404  12.9040  13.1178  13.2119  13.4107
    13.4835  13.5490  13.8456  13.9999  14.2633  14.3510  14.5699  14.5799
    14.8533  15.2472  15.3347  15.6000  15.6033  15.6764  15.9703  16.0693
    16.1622  16.5090  16.7103  16.9741

          k = 0.0000 0.5774 0.0000 ( 23470 PWs)   bands (ev):

     3.6019   3.7124   3.8454   4.0471   4.2628   4.5151   4.7774   4.8508
     5.0285   5.0416   5.0670   5.1086   5.1141   5.1167   5.1867   5.2329
     5.2409   5.2612   5.2858   5.3093   5.3606   5.3683   5.3734   5.3931
     5.4199   5.4277   5.4495   5.5081   5.5114   5.5202   5.5500   5.5541
     5.5762   5.5861   5.6448   5.6491   5.6753   5.6824   5.7041   5.7153
     5.7641   5.7913   5.7936   5.7997   5.8135   5.8503   5.8528   5.9680
     5.9713   5.9742   6.0462   6.0710   6.1342   6.1925   6.2447   6.2556
     6.3283   6.3410   6.3733   6.3929   6.4019   6.4071   6.4262   6.4514
     6.4617   6.4753   6.5237   6.5446   6.5829   6.5882   6.5891   6.5920
     6.6386   6.6558   6.8521   6.9729   7.0010   7.0523   7.0542   7.0569
     7.0588   7.0604   7.1800   7.2071   7.2499   7.3489   7.3624   7.4468
     7.4823   7.5207   7.5271   7.5402   7.5473   7.5517   7.5622   7.5740
     7.5938   7.6025   7.6458   7.6971   7.7831   7.8206   7.8255   7.8290
     7.8370   7.9547   8.0327   8.0719   8.1875   8.2129   8.2545   8.3157
     8.3776   8.4114   8.4219   8.4381   8.4570   8.4573   8.4941   8.4998
     8.5134   8.5214   8.5510   8.5626   8.6008   8.6037   8.6312   8.6404
     8.6477   8.6824   8.6856   8.6874   8.7050   8.7099   8.8326   8.8577
     9.2690   9.7548  10.3356  10.9416  11.7026  12.4440  12.9267  13.1443
    13.2104  13.2664  13.2822  13.2950  13.3241  13.4217  13.5365  13.6194
    13.7324  13.8272  13.8703  14.0536  14.7742  14.9097  14.9354  15.0438
    15.3084  15.3296  15.3972  15.5571  15.8646  15.8815  16.1531  16.3287
    16.4136  16.5505  16.8625  16.9143

          k = 0.0000 0.7217 0.0000 ( 23446 PWs)   bands (ev):

     4.3536   4.4632   4.4881   4.5543   4.6254   4.7247   4.7570   4.8537
     4.8950   4.9624   4.9647   4.9837   5.0474   5.0826   5.1411   5.1884
     5.1950   5.2327   5.2472   5.2549   5.2798   5.2883   5.3621   5.3652
     5.4190   5.4504   5.4892   5.5230   5.5310   5.5726   5.5947   5.6017
     5.6137   5.6329   5.6389   5.6686   5.7036   5.7196   5.7385   5.7394
     5.7731   5.7802   5.7864   5.8022   5.8197   5.8454   5.8823   5.9241
     6.0158   6.0359   6.1123   6.1298   6.1601   6.1999   6.2080   6.2473
     6.2558   6.3150   6.3229   6.3456   6.3539   6.3564   6.3744   6.4010
     6.4157   6.4246   6.4992   6.5899   6.5920   6.6214   6.6670   6.7140
     6.7158   6.7647   6.9701   6.9748   6.9772   7.0162   7.0220   7.1301
     7.1765   7.1786   7.1841   7.2360   7.2905   7.3056   7.3687   7.3802
     7.3997   7.4357   7.4760   7.5269   7.5331   7.5818   7.6213   7.6421
     7.6579   7.6617   7.7212   7.7969   7.8119   7.8568   7.8600   7.8734
     7.9690   8.0622   8.1126   8.1325   8.2463   8.3128   8.3645   8.5190
     8.5449   8.6010   8.6762   8.6826   8.6984   8.7006   8.7149   8.7271
     8.7335   8.7523   8.7747   8.7821   8.8445   8.8709   8.8994   8.9075
     8.9181   8.9213   9.3307   9.3504   9.3666   9.4372   9.5607   9.8058
    10.2057  10.7204  11.3307  11.7230  11.8047  11.9680  12.0138  12.2627
    12.5936  12.7128  12.9965  13.4171  13.4185  13.7658  13.9909  14.0507
    14.1557  14.1668  14.3204  14.4310  14.6741  14.7623  14.9877  15.1465
    15.5225  15.6410  15.9644  16.1215  16.1719  16.4279  16.4586  16.6089
    16.7057  16.8157  17.0591  17.1216

          k = 0.0000-0.8660 0.0000 ( 23420 PWs)   bands (ev):

     4.6380   4.6381   4.7646   4.7646   4.8232   4.8232   4.8290   4.8291
     4.9010   4.9010   4.9372   4.9372   5.0291   5.0292   5.0473   5.0473
     5.1151   5.1151   5.1879   5.1879   5.2506   5.2507   5.2544   5.2545
     5.4587   5.4587   5.4855   5.4855   5.5262   5.5262   5.5465   5.5466
     5.6233   5.6233   5.6740   5.6741   5.7503   5.7503   5.7616   5.7616
     5.8550   5.8550   5.8966   5.8966   5.9193   5.9194   5.9975   5.9975
     6.0030   6.0030   6.0641   6.0641   6.1102   6.1102   6.1329   6.1329
     6.2176   6.2176   6.2838   6.2838   6.3497   6.3497   6.4341   6.4341
     6.5491   6.5491   6.5799   6.5799   6.6152   6.6152   6.7479   6.7479
     6.9864   6.9865   6.9893   6.9893   7.0317   7.0317   7.0347   7.0348
     7.1318   7.1318   7.2364   7.2364   7.2976   7.2977   7.3408   7.3409
     7.3855   7.3856   7.4593   7.4593   7.5446   7.5446   7.6527   7.6527
     7.6811   7.6811   7.7819   7.7820   7.8462   7.8462   7.8756   7.8757
     7.9631   7.9632   8.0361   8.0361   8.2025   8.2025   8.4334   8.4334
     8.6155   8.6155   8.7750   8.7751   8.8217   8.8218   8.8411   8.8412
     8.8721   8.8722   8.9170   8.9171   8.9914   8.9914   9.0416   9.0417
     9.0535   9.0536  10.4262  10.4262  10.4591  10.4591  10.5684  10.5684
    10.7131  10.7131  10.9484  10.9484  11.2814  11.2814  11.7096  11.7097
    12.2173  12.2174  12.7983  12.7984  13.3897  13.3897  14.0376  14.0376
    14.5870  14.5871  15.0350  15.0350  15.7448  15.7448  15.7590  15.7590
    15.8843  15.8843  15.9538  15.9538  16.1856  16.1856  16.2570  16.2571
    16.4659  16.4660  16.6018  16.6018

          k = 0.1250 0.0000 0.0000 ( 23563 PWs)   bands (ev):

     1.6253   1.7666   2.0024   2.3049   2.6658   3.0568   3.4339   3.7370
     3.9237   3.9441   3.9925   4.0471   4.0650   4.1769   4.1797   4.2271
     4.2526   4.3262   4.4239   4.4465   4.5365   4.5770   4.6024   4.6195
     4.6704   4.7438   4.8282   4.9303   5.0143   5.0403   5.2028   5.4664
     5.5804   5.6996   5.7707   5.9823   6.0703   6.1460   6.1561   6.1732
     6.2128   6.2131   6.2635   6.2834   6.3025   6.3382   6.3399   6.3478
     6.3626   6.3746   6.4110   6.4206   6.4234   6.4268   6.4430   6.4522
     6.4620   6.4731   6.4794   6.5087   6.5326   6.5494   6.5545   6.5697
     6.5902   6.5966   6.6207   6.6312   6.6322   6.6666   6.6937   6.7314
     6.7659   6.7686   6.8320   6.8540   6.8665   6.9291   6.9355   6.9379
     7.0181   7.0685   7.1296   7.3015   7.3718   7.3825   7.4228   7.5168
     7.5477   7.5866   7.5974   7.5977   7.6442   7.6721   7.7416   7.7556
     7.8123   7.8184   7.8205   7.8746   7.8995   7.9258   7.9425   7.9428
     8.0550   8.0734   8.1046   8.1868   8.2426   8.2590   8.3020   8.3571
     8.3993   8.4425   8.4793   8.4864   8.5700   8.5889   8.5916   8.6393
     8.6689   8.6735   8.6905   8.6997   8.7226   8.7377   8.7565   8.7708
     8.7773   8.7812   8.8081   8.8260   8.8518   8.8586   8.8682   8.9371
     8.9640   9.0023   9.1246   9.1266   9.2965   9.3468   9.6698   9.9360
     9.9476  10.1351  10.2118  10.3346  10.6933  10.8289  11.0005  11.2750
    11.9597  12.6663  13.2824  13.4581  13.5335  13.6652  13.9243  14.0033
    14.2155  14.5233  14.8313  14.9149  15.1468  15.2162  15.5925  15.9106
    16.3775  16.4615  16.5357  16.9304

          k = 0.1250 0.1443 0.0000 ( 23537 PWs)   bands (ev):

     1.7767   1.9159   2.1499   2.4494   2.8083   3.1982   3.5756   3.8773
     4.0590   4.0680   4.1183   4.1777   4.1899   4.3082   4.3111   4.3423
     4.3521   4.4306   4.5448   4.5620   4.6477   4.6790   4.6998   4.7449
     4.7951   4.8390   4.9365   4.9948   5.1362   5.1659   5.2558   5.4907
     5.6063   5.6282   5.7550   5.9256   5.9939   6.0337   6.0948   6.0976
     6.1234   6.1786   6.2046   6.2214   6.2458   6.2739   6.2869   6.3073
     6.3143   6.3514   6.3881   6.4261   6.4510   6.4714   6.4723   6.4855
     6.4957   6.5055   6.5120   6.5188   6.5375   6.5738   6.5834   6.6079
     6.6131   6.6280   6.6524   6.6643   6.6888   6.6944   6.7056   6.7212
     6.7421   6.7634   6.7754   6.8209   6.8294   6.8833   6.9249   6.9255
     7.0167   7.0195   7.1368   7.1734   7.2047   7.2552   7.3719   7.4355
     7.4565   7.5088   7.5348   7.5574   7.5626   7.5663   7.6026   7.6401
     7.7069   7.7294   7.7525   7.8116   7.8386   7.8608   7.8633   7.9182
     7.9492   7.9835   8.0522   8.0759   8.1453   8.1603   8.2021   8.2103
     8.3030   8.3302   8.3553   8.3574   8.4040   8.4540   8.4890   8.5255
     8.5425   8.5474   8.5652   8.5835   8.6169   8.6339   8.6653   8.7058
     8.7234   8.7492   8.7540   8.7732   8.7877   8.7916   8.8446   8.8899
     9.0104   9.0363   9.1419   9.1433   9.6688   9.9804  10.1426  10.3095
    10.3489  10.4449  10.5708  10.7911  11.1687  11.1697  11.4148  11.6980
    12.3290  12.9968  13.4762  13.5580  13.6484  13.7379  14.0183  14.0343
    14.3239  14.6315  14.9346  14.9814  15.2550  15.3382  15.7250  15.9652
    16.4241  16.5460  16.6387  16.9825

          k = 0.1250 0.2887 0.0000 ( 23467 PWs)   bands (ev):

     2.2116   2.3450   2.5694   2.8575   3.2041   3.5837   3.9553   4.2486
     4.3980   4.4099   4.4506   4.5201   4.5247   4.5593   4.6446   4.6591
     4.6604   4.6632   4.7806   4.8656   4.9327   4.9588   4.9791   5.0766
     5.0902   5.1395   5.1861   5.2509   5.3566   5.4231   5.4781   5.4806
     5.5922   5.6608   5.7423   5.7632   5.8211   5.8596   5.8687   5.9758
     5.9856   6.0254   6.0329   6.0462   6.0650   6.0818   6.0913   6.1253
     6.1558   6.2073   6.2251   6.2503   6.3252   6.3414   6.4608   6.4761
     6.4980   6.5323   6.5803   6.5966   6.6121   6.6234   6.6432   6.6517
     6.6537   6.6780   6.7280   6.7488   6.7750   6.7907   6.7939   6.7997
     6.8365   6.8485   6.8676   6.8923   6.8932   6.9074   6.9242   6.9769
     6.9934   7.0265   7.0291   7.0472   7.0686   7.0936   7.1604   7.1907
     7.1978   7.2285   7.2606   7.3198   7.3585   7.3790   7.4074   7.4839
     7.5251   7.5283   7.5670   7.6152   7.6787   7.6969   7.7457   7.7813
     7.7922   7.7948   7.8615   7.8675   7.9388   7.9648   7.9717   8.0629
     8.1053   8.1238   8.1377   8.2153   8.2364   8.2365   8.2552   8.2804
     8.3384   8.4012   8.4255   8.4974   8.5596   8.6320   8.6471   8.6958
     8.7519   8.7542   8.7816   8.7893   8.8236   8.8279   8.8793   8.9882
     9.0195   9.1530   9.2041   9.6896  10.3262  10.7502  10.8189  10.9382
    11.0529  11.1001  11.3316  11.6582  11.9086  12.0819  12.3741  12.5970
    13.1922  13.5962  13.7158  13.8290  13.9421  14.1818  14.1905  14.4417
    14.6854  14.9736  15.2109  15.2666  15.5871  15.6375  15.9934  16.1194
    16.4444  16.8152  16.9608  16.9701

          k = 0.1250 0.4330 0.0000 ( 23435 PWs)   bands (ev):

     2.8742   2.9917   3.1898   3.4429   3.7464   4.0804   4.4125   4.6677
     4.7802   4.7954   4.8121   4.8587   4.8632   4.8884   4.9495   4.9795
     5.0008   5.0896   5.0931   5.1009   5.1279   5.1885   5.2425   5.3007
     5.3510   5.3654   5.4012   5.4350   5.4685   5.5294   5.5775   5.6058
     5.6556   5.6896   5.7000   5.7347   5.7551   5.7796   5.8001   5.8148
     5.8389   5.8417   5.8647   5.8866   5.9116   5.9409   5.9603   5.9632
     6.0193   6.0360   6.0674   6.1221   6.1809   6.2536   6.2792   6.3248
     6.3830   6.4253   6.4593   6.4822   6.5041   6.5207   6.5577   6.5855
     6.6007   6.6391   6.6490   6.6560   6.6756   6.7085   6.7307   6.7432
     6.7527   6.8152   6.8814   6.8965   6.9555   6.9668   6.9890   7.0517
     7.1374   7.1393   7.1803   7.2048   7.2075   7.2294   7.2593   7.3004
     7.3123   7.3275   7.3440   7.3650   7.4063   7.4267   7.4572   7.4868
     7.4960   7.5367   7.5369   7.5663   7.5934   7.6201   7.6386   7.6610
     7.6813   7.7404   7.7951   7.8086   7.8533   7.9228   7.9315   7.9352
     7.9526   8.0488   8.0896   8.1235   8.1561   8.1990   8.2108   8.2935
     8.3802   8.4303   8.5028   8.5069   8.6055   8.6061   8.6770   8.7184
     8.7312   8.7447   8.7494   8.7740   8.8072   8.8429   8.8998   8.9419
     9.0812   9.2230   9.7352  10.3045  11.0136  11.3795  11.4614  11.6361
    11.7773  11.8702  12.1786  12.5701  12.6768  13.0179  13.4855  13.5785
    13.7737  13.9213  14.2048  14.3028  14.5202  14.6283  14.6762  14.8483
    15.1607  15.3772  15.5455  15.6509  15.6739  15.8630  16.1444  16.1535
    16.3529  16.6359  16.7937  17.2725

          k = 0.1250 0.5774 0.0000 ( 23447 PWs)   bands (ev):

     3.6492   3.7273   3.8744   4.0460   4.2467   4.4621   4.6808   4.8513
     4.8637   4.8791   4.9486   4.9738   4.9781   5.0195   5.0595   5.0742
     5.1116   5.1217   5.1882   5.2078   5.2288   5.2367   5.2826   5.3307
     5.3931   5.4210   5.4256   5.4563   5.4596   5.4890   5.5389   5.5423
     5.5950   5.6083   5.6601   5.6938   5.7038   5.7429   5.7465   5.7586
     5.7724   5.7845   5.7895   5.8796   5.8797   5.9227   5.9351   5.9739
     6.0111   6.0676   6.0716   6.1111   6.1642   6.1754   6.2111   6.2508
     6.3211   6.3761   6.4078   6.4549   6.5068   6.5377   6.5389   6.5721
     6.5937   6.6003   6.6090   6.6148   6.6483   6.6791   6.7127   6.7328
     6.7577   6.7632   6.8699   6.9057   6.9548   6.9704   6.9704   7.0985
     7.1821   7.2344   7.2577   7.2661   7.3078   7.3348   7.3780   7.4209
     7.4438   7.4727   7.4919   7.5347   7.5525   7.5536   7.6166   7.6362
     7.6620   7.6866   7.7227   7.7380   7.7709   7.7908   7.9042   7.9121
     7.9227   7.9859   8.0713   8.1219   8.1832   8.2044   8.2331   8.2401
     8.3382   8.3614   8.3945   8.4321   8.4394   8.4569   8.4842   8.4981
     8.5123   8.5546   8.5649   8.6029   8.6149   8.6303   8.6426   8.6612
     8.7041   8.7298   8.7407   8.7490   8.7896   8.8274   8.8347   8.9732
     9.2543   9.7661  10.3702  11.0141  11.7624  12.0790  12.1933  12.4070
    12.5273  12.6922  13.0144  13.2852  13.3635  13.4061  13.4504  13.6738
    13.9275  13.9991  14.1857  14.2734  14.4849  14.6215  14.8718  15.0592
    15.2412  15.4324  15.4508  15.6040  15.8950  16.0174  16.2019  16.2980
    16.3973  16.7189  16.9059  16.9470

          k = 0.1250 0.7217 0.0000 ( 23455 PWs)   bands (ev):

     4.2728   4.3042   4.4322   4.5138   4.6083   4.6678   4.6814   4.7309
     4.7535   4.8067   4.8215   4.8649   4.9109   4.9521   4.9844   5.0268
     5.0681   5.0957   5.1056   5.1191   5.1985   5.2048   5.2488   5.2635
     5.2661   5.2914   5.3062   5.3426   5.4113   5.4315   5.4506   5.4592
     5.4997   5.5808   5.5889   5.6293   5.6664   5.7120   5.7248   5.7395
     5.7845   5.8307   5.8325   5.8782   5.9028   5.9334   5.9614   5.9918
     6.0000   6.0542   6.1050   6.1499   6.2164   6.2371   6.2665   6.3075
     6.3364   6.3665   6.3702   6.4386   6.4730   6.5185   6.5556   6.6126
     6.6154   6.6398   6.7188   6.7715   6.7843   6.7898   6.8327   6.8447
     6.9084   6.9249   6.9555   7.0076   7.0284   7.0431   7.0739   7.1111
     7.1790   7.1990   7.2580   7.2701   7.3928   7.4068   7.4867   7.4898
     7.5001   7.5603   7.5687   7.6457   7.6663   7.6862   7.7206   7.7663
     7.7825   7.8044   7.8536   7.8725   7.9056   7.9445   8.0427   8.0539
     8.0745   8.1818   8.2359   8.2395   8.3386   8.3408   8.4181   8.5432
     8.5482   8.5804   8.6257   8.6531   8.6595   8.6678   8.7006   8.7439
     8.7604   8.7755   8.7958   8.8046   8.8234   8.8908   8.9012   8.9131
     8.9279   8.9648   9.2824   9.3110   9.3526   9.4114   9.5276   9.7648
    10.1741  10.7120  11.3437  11.8026  11.8781  12.0164  12.0789  12.3104
    12.6316  12.7550  13.0094  13.0896  13.2222  13.4065  13.4826  13.5196
    13.7257  13.9541  14.1030  14.1967  14.4809  14.5811  14.8488  15.0890
    15.2927  15.5614  15.7715  15.9303  15.9807  16.2974  16.3076  16.5210
    16.5232  16.6444  16.7956  16.9846

          k = 0.1250-0.8660 0.0000 ( 23492 PWs)   bands (ev):

     4.4675   4.5314   4.5567   4.6033   4.6285   4.6730   4.7042   4.7218
     4.7557   4.7778   4.8234   4.8593   4.9350   4.9355   5.0019   5.0025
     5.0590   5.0802   5.1090   5.1153   5.1383   5.1410   5.1549   5.1662
     5.2254   5.2467   5.2925   5.2958   5.3340   5.3382   5.3664   5.3791
     5.4746   5.4812   5.5693   5.5914   5.6410   5.6445   5.7347   5.7354
     5.8141   5.8393   5.9014   5.9175   5.9294   5.9511   5.9991   6.0102
     6.0520   6.0538   6.0902   6.0994   6.1492   6.1778   6.2536   6.2709
     6.4135   6.4139   6.4409   6.4681   6.5858   6.5879   6.6205   6.6366
     6.6935   6.7155   6.7665   6.7700   6.8477   6.8498   6.8562   6.8757
     6.9027   6.9180   6.9979   7.0057   7.0702   7.0702   7.1277   7.1753
     7.2093   7.2612   7.3330   7.3663   7.4281   7.4572   7.4863   7.4966
     7.5250   7.5649   7.6021   7.6754   7.7050   7.7133   7.7670   7.8177
     7.8520   7.8617   7.8997   7.9418   7.9992   8.0092   8.0291   8.0480
     8.0833   8.1146   8.1432   8.1819   8.2533   8.2574   8.4404   8.4471
     8.6040   8.6203   8.7377   8.7571   8.7885   8.7903   8.8072   8.8347
     8.8653   8.8859   8.9214   8.9302   8.9842   9.0127   9.0361   9.0420
     9.0541   9.0570  10.4187  10.4303  10.4576  10.4674  10.5703  10.5714
    10.7018  10.7175  10.9297  10.9391  11.2525  11.2673  11.6811  11.6939
    12.2015  12.2058  12.8011  12.8018  13.3806  13.4334  14.0018  14.0265
    14.4481  14.4661  14.6561  14.6609  14.7762  14.8469  14.9753  15.0306
    15.2701  15.2951  15.4277  15.4671  15.8006  15.8324  15.9084  15.9763
    16.2444  16.2524  16.5875  16.6188

          k = 0.1250-0.7217 0.0000 ( 23455 PWs)   bands (ev):

     4.1684   4.3168   4.4170   4.5770   4.6102   4.6478   4.6713   4.7532
     4.7741   4.8062   4.8271   4.8595   4.9089   4.9325   4.9740   5.0106
     5.0800   5.0824   5.1088   5.1167   5.1845   5.2301   5.2349   5.2564
     5.2630   5.3028   5.3236   5.3653   5.4018   5.4340   5.4536   5.4620
     5.5086   5.5562   5.5939   5.6067   5.6683   5.7034   5.7310   5.7334
     5.8022   5.8099   5.8257   5.8730   5.9009   5.9175   5.9455   6.0241
     6.0300   6.0669   6.0927   6.1670   6.2143   6.2613   6.2868   6.3269
     6.3402   6.3630   6.3868   6.4213   6.4459   6.5146   6.5373   6.5878
     6.6962   6.6962   6.7480   6.7723   6.7940   6.7940   6.8473   6.8627
     6.8991   6.9223   6.9868   6.9895   7.0321   7.0673   7.1198   7.1252
     7.1317   7.2123   7.2134   7.2911   7.3660   7.4191   7.4713   7.4830
     7.4982   7.5146   7.5725   7.6141   7.6387   7.6816   7.7062   7.7139
     7.7473   7.8153   7.8568   7.8730   7.9483   8.0059   8.0430   8.0461
     8.0854   8.1715   8.2342   8.2633   8.3422   8.3604   8.4214   8.5194
     8.5372   8.6057   8.6171   8.6480   8.6583   8.6642   8.7253   8.7482
     8.7497   8.7802   8.7941   8.8161   8.8455   8.8681   8.9016   8.9020
     8.9187   8.9246   9.2696   9.3223   9.3651   9.4213   9.5306   9.7724
    10.1768  10.7030  11.3350  11.7980  11.8742  11.9695  12.0667  12.3000
    12.6107  12.7333  12.9928  13.0874  13.2070  13.3951  13.4216  13.5214
    13.7216  13.9421  14.1672  14.1989  14.4247  14.5982  14.8224  15.0889
    15.3012  15.5883  15.7600  15.8733  16.0575  16.3033  16.3357  16.5006
    16.5530  16.6644  16.9482  16.9861

          k = 0.1250-0.5774 0.0000 ( 23447 PWs)   bands (ev):

     3.5943   3.7321   3.8559   4.0642   4.2584   4.4815   4.6965   4.7023
     4.8624   4.9016   4.9328   4.9434   4.9937   5.0144   5.0556   5.0620
     5.0935   5.1433   5.2057   5.2082   5.2411   5.2459   5.3162   5.3300
     5.3916   5.3967   5.4532   5.4636   5.4775   5.4922   5.5536   5.5634
     5.5945   5.6104   5.6217   5.6697   5.6866   5.7406   5.7545   5.7672
     5.7833   5.7958   5.8188   5.8652   5.8756   5.9160   5.9322   5.9599
     5.9971   6.0795   6.0975   6.1023   6.1255   6.1539   6.2360   6.2911
     6.3316   6.3830   6.4383   6.4762   6.4838   6.5287   6.5742   6.5760
     6.5953   6.5954   6.6300   6.6516   6.7023   6.7144   6.7398   6.7552
     6.7657   6.7980   6.8397   6.9431   6.9545   6.9590   7.0096   7.1242
     7.1499   7.2021   7.2569   7.2614   7.3035   7.3098   7.3464   7.4106
     7.4426   7.4506   7.4812   7.5169   7.5234   7.5758   7.5872   7.6198
     7.6378   7.6879   7.7164   7.7251   7.8217   7.8758   7.9040   7.9119
     7.9436   7.9706   8.0881   8.0982   8.1842   8.1963   8.2025   8.2552
     8.3428   8.3552   8.3934   8.4240   8.4358   8.4455   8.4821   8.5054
     8.5250   8.5634   8.5980   8.5991   8.6151   8.6297   8.6378   8.7020
     8.7252   8.7305   8.7430   8.7495   8.8057   8.8343   8.8445   8.8512
     9.2457   9.7449  10.3517  10.9536  11.7387  12.0793  12.1904  12.4141
    12.4603  12.6903  13.0304  13.2647  13.3657  13.4064  13.4758  13.6446
    13.8758  13.9824  14.1528  14.2539  14.3480  14.7406  14.8043  15.0204
    15.2369  15.4399  15.4740  15.6350  15.8614  15.9447  16.2952  16.3531
    16.4722  16.8173  16.8947  16.9861

          k = 0.1250-0.4330 0.0000 ( 23435 PWs)   bands (ev):

     2.8540   2.9929   3.1793   3.4474   3.7463   4.0844   4.4123   4.6639
     4.6816   4.7505   4.7746   4.8502   4.8665   4.8936   4.9122   4.9552
     4.9918   5.0946   5.1005   5.1044   5.1520   5.2091   5.2781   5.3586
     5.3804   5.3817   5.4216   5.4224   5.4835   5.5202   5.5837   5.6222
     5.6632   5.6938   5.7002   5.7274   5.7528   5.7698   5.7906   5.7920
     5.8479   5.8532   5.8667   5.8874   5.9424   5.9507   5.9625   5.9679
     6.0186   6.0561   6.0700   6.1110   6.1529   6.2472   6.2981   6.3435
     6.4128   6.4152   6.4489   6.4850   6.5000   6.5532   6.5624   6.5840
     6.5883   6.6394   6.6518   6.6524   6.6810   6.7135   6.7251   6.7465
     6.7546   6.8469   6.9014   6.9293   6.9658   6.9830   6.9992   7.0612
     7.1163   7.1474   7.1728   7.2052   7.2074   7.2300   7.2890   7.2945
     7.3029   7.3246   7.3434   7.3589   7.4213   7.4414   7.4431   7.4840
     7.4957   7.5211   7.5289   7.5677   7.5915   7.6202   7.6413   7.6666
     7.6939   7.7507   7.8200   7.8511   7.8512   7.9246   7.9370   7.9381
     7.9737   8.0301   8.0487   8.0819   8.1548   8.1889   8.2091   8.2841
     8.3392   8.4413   8.5115   8.5222   8.6040   8.6361   8.6814   8.7298
     8.7299   8.7532   8.7759   8.7935   8.8301   8.8302   8.8879   8.9567
     8.9637   9.1977   9.7147  10.2340  10.9879  11.3798  11.4569  11.6376
    11.7000  11.8653  12.1873  12.5811  12.6753  13.0440  13.5233  13.5290
    13.7305  13.9388  14.2001  14.2398  14.5208  14.6540  14.6646  14.7320
    15.1457  15.2635  15.5694  15.6544  15.6611  15.9270  16.1729  16.2022
    16.4104  16.6075  16.9660  17.2244

          k = 0.1250-0.2887 0.0000 ( 23467 PWs)   bands (ev):

     2.2035   2.3453   2.5647   2.8585   3.2029   3.5832   3.9520   4.2448
     4.3767   4.3971   4.4493   4.4762   4.5188   4.5503   4.6433   4.6539
     4.6603   4.6630   4.7819   4.8636   4.9291   4.9534   4.9923   5.0629
     5.0989   5.1241   5.2081   5.2432   5.3484   5.4118   5.4537   5.5816
     5.6222   5.6526   5.7407   5.7797   5.7936   5.8794   5.9333   5.9657
     5.9930   6.0203   6.0299   6.0379   6.0570   6.0716   6.1121   6.1485
     6.1601   6.2010   6.2295   6.2820   6.3211   6.3556   6.4335   6.4599
     6.5121   6.5130   6.5810   6.6023   6.6026   6.6257   6.6326   6.6470
     6.6655   6.7034   6.7086   6.7441   6.7683   6.7901   6.7906   6.8107
     6.8427   6.8551   6.8557   6.8876   6.9010   6.9196   6.9448   6.9726
     6.9982   7.0100   7.0267   7.0483   7.0625   7.1280   7.1421   7.1994
     7.2061   7.2273   7.2694   7.3130   7.3740   7.4083   7.4220   7.4768
     7.5099   7.5610   7.5886   7.6024   7.6913   7.7091   7.7448   7.7884
     7.7937   7.8303   7.8510   7.8818   7.9427   7.9619   7.9732   8.0602
     8.0831   8.1270   8.1544   8.1777   8.2116   8.2335   8.2489   8.2816
     8.3520   8.3565   8.4574   8.5116   8.5423   8.6577   8.6613   8.7011
     8.7531   8.7695   8.7864   8.7893   8.8234   8.8437   8.8880   8.9835
     9.0287   9.0386   9.1912   9.6113  10.3017  10.7623  10.8123  10.9369
    10.9667  11.0896  11.3299  11.6618  11.9049  12.0966  12.3404  12.6231
    13.2182  13.5769  13.7116  13.8534  13.9205  14.1818  14.2127  14.4416
    14.6731  14.9547  15.2052  15.2719  15.5968  15.6258  15.8825  16.0951
    16.4511  16.8351  16.9334  16.9683

          k = 0.1250-0.1443 0.0000 ( 23537 PWs)   bands (ev):

     1.7738   1.9160   2.1481   2.4496   2.8076   3.1974   3.5737   3.8752
     4.0546   4.0637   4.1185   4.1585   4.1893   4.3082   4.3110   4.3426
     4.3498   4.4305   4.5424   4.5646   4.6484   4.6731   4.7028   4.7415
     4.7954   4.8515   4.9138   4.9964   5.1335   5.1617   5.2491   5.4860
     5.5619   5.7014   5.7750   5.9588   5.9746   6.0470   6.0897   6.1216
     6.1437   6.1679   6.2030   6.2124   6.2386   6.2801   6.2833   6.3043
     6.3403   6.3596   6.3695   6.4003   6.4375   6.4640   6.4790   6.4927
     6.5003   6.5017   6.5168   6.5230   6.5426   6.5586   6.5869   6.6063
     6.6249   6.6315   6.6478   6.6698   6.6865   6.7014   6.7179   6.7337
     6.7416   6.7670   6.7966   6.8142   6.8557   6.8965   6.8976   6.9351
     7.0163   7.0200   7.1267   7.1556   7.1892   7.2638   7.3327   7.4626
     7.4743   7.5040   7.5367   7.5550   7.5555   7.5847   7.6179   7.6471
     7.7146   7.7206   7.7461   7.7834   7.8285   7.8682   7.8869   7.8926
     7.9388   8.0118   8.0466   8.0833   8.1575   8.1638   8.2083   8.2426
     8.3072   8.3178   8.3629   8.3970   8.4092   8.4525   8.4606   8.5225
     8.5435   8.5442   8.5658   8.5848   8.6324   8.6644   8.6822   8.7026
     8.7194   8.7454   8.7503   8.7662   8.7999   8.8319   8.8523   8.8934
     8.9861   9.0388   9.0557   9.0677   9.6501   9.9943  10.1421  10.2634
    10.3143  10.4345  10.5614  10.7894  11.1675  11.1774  11.3973  11.7137
    12.3467  13.0123  13.4792  13.5572  13.6608  13.7272  14.0133  14.0463
    14.3182  14.6292  14.9349  14.9806  15.2589  15.3392  15.6848  15.9296
    16.4281  16.5582  16.6409  16.9703

          k = 0.2500 0.0000 0.0000 ( 23536 PWs)   bands (ev):

     1.9599   2.0984   2.3283   2.6245   2.9792   3.3661   3.7419   3.8958
     4.0133   4.0414   4.1722   4.2154   4.2680   4.3174   4.3536   4.3627
     4.4108   4.4626   4.4655   4.4794   4.5141   4.6105   4.7039   4.7456
     4.7791   4.8611   4.9483   5.0396   5.1105   5.1356   5.3083   5.5393
     5.6340   5.6513   5.8060   5.8630   5.9287   6.0186   6.0241   6.0608
     6.1155   6.1300   6.1574   6.1654   6.1924   6.2290   6.2791   6.2926
     6.3036   6.3503   6.3825   6.4140   6.4497   6.4762   6.5044   6.5102
     6.5353   6.5441   6.5660   6.5818   6.5960   6.6148   6.6225   6.6365
     6.6500   6.6713   6.7062   6.7067   6.7218   6.7419   6.7590   6.7660
     6.8036   6.8087   6.8273   6.8397   6.8806   6.8974   6.9126   6.9161
     6.9888   7.0326   7.1069   7.1117   7.1461   7.2376   7.2590   7.3038
     7.3685   7.3968   7.4315   7.4539   7.4814   7.5124   7.5723   7.5750
     7.6505   7.6585   7.6968   7.7321   7.7423   7.8380   7.8502   7.8599
     7.9487   7.9754   7.9812   8.0366   8.0635   8.1242   8.2226   8.2371
     8.2431   8.2822   8.2986   8.3310   8.3748   8.3960   8.4098   8.4215
     8.4609   8.4767   8.4975   8.5303   8.5372   8.5481   8.5713   8.6100
     8.6119   8.6137   8.6337   8.6508   8.6806   8.7058   8.7890   8.7918
     8.7986   8.8122   8.8416   8.8796   8.9202   8.9279   8.9342   8.9547
     9.1149   9.3882   9.7031   9.9705  10.4027  10.6667  11.1468  11.5143
    11.8430  11.9033  12.6713  13.4023  14.0983  14.1502  15.0709  15.1175
    15.3364  15.3960  15.5096  15.6137  15.9179  16.3558  16.6627  16.7735
    16.8157  17.1119  17.4035  17.7966

          k = 0.2500 0.1443 0.0000 ( 23484 PWs)   bands (ev):

     2.1074   2.2419   2.4700   2.7612   3.1128   3.4971   3.8734   4.0282
     4.1459   4.1726   4.3005   4.3414   4.3831   4.4488   4.4548   4.4936
     4.5209   4.5838   4.5866   4.6039   4.6431   4.7237   4.7926   4.8230
     4.8800   4.9519   5.0442   5.1144   5.2316   5.2422   5.3545   5.5413
     5.5543   5.6621   5.7672   5.8151   5.8908   5.9205   5.9546   5.9898
     6.0502   6.0599   6.0810   6.0916   6.1513   6.1691   6.2144   6.2396
     6.2577   6.3444   6.3460   6.3837   6.4016   6.4050   6.4426   6.4570
     6.5187   6.5346   6.5713   6.5778   6.5984   6.6072   6.6252   6.6280
     6.6499   6.6731   6.6876   6.7019   6.7332   6.7526   6.7642   6.7945
     6.8145   6.8301   6.8321   6.8472   6.8841   6.8967   6.9152   6.9403
     6.9674   7.0192   7.0557   7.1065   7.1156   7.1934   7.2204   7.2310
     7.2728   7.3067   7.3072   7.3483   7.3923   7.4459   7.4611   7.4763
     7.5244   7.5764   7.6248   7.6787   7.7133   7.7420   7.7625   7.8117
     7.8578   7.8725   7.9026   7.9266   7.9310   8.0034   8.0198   8.0370
     8.1407   8.1654   8.1897   8.2085   8.2211   8.2380   8.2591   8.3179
     8.3183   8.3934   8.4559   8.4722   8.5294   8.5451   8.5578   8.5868
     8.6221   8.6709   8.7145   8.7227   8.7430   8.7602   8.8026   8.8654
     8.9114   8.9848   9.1146   9.1400   9.2332   9.3241   9.3752   9.4577
     9.5997   9.6708  10.1042  10.1916  10.7010  10.9232  11.3866  11.7542
    12.1075  12.1671  12.8603  13.5689  14.1435  14.3158  15.1507  15.2928
    15.3859  15.5020  15.5696  15.7198  16.0083  16.4427  16.7530  16.8706
    16.9078  17.1978  17.4608  17.8286

          k = 0.2500 0.2887 0.0000 ( 23496 PWs)   bands (ev):

     2.5226   2.6471   2.8631   3.1359   3.4679   3.8318   4.1923   4.3790
     4.4735   4.4919   4.6152   4.6167   4.6562   4.6576   4.7198   4.7734
     4.7977   4.8318   4.8806   4.8841   4.9282   4.9865   5.0617   5.0870
     5.1191   5.1968   5.2688   5.3047   5.3640   5.3765   5.4459   5.5579
     5.6149   5.6418   5.7024   5.7229   5.7673   5.7909   5.8774   5.9203
     5.9218   5.9311   5.9572   5.9586   6.0100   6.0616   6.0908   6.1037
     6.1204   6.1315   6.1820   6.2086   6.2500   6.2821   6.3687   6.3688
     6.4237   6.4454   6.4811   6.4978   6.5401   6.5625   6.5689   6.6118
     6.6235   6.6678   6.6752   6.6837   6.7020   6.7307   6.7775   6.7822
     6.8280   6.8370   6.8600   6.8814   6.8978   6.9459   6.9621   6.9674
     6.9849   7.0176   7.0297   7.0532   7.1091   7.1258   7.1593   7.1649
     7.1755   7.2190   7.2525   7.3044   7.3079   7.3422   7.3604   7.3636
     7.4488   7.4497   7.4826   7.5347   7.5401   7.5892   7.6267   7.6829
     7.7188   7.7463   7.7468   7.8194   7.8252   7.8417   7.8996   7.9016
     7.9439   7.9652   8.0054   8.0794   8.1017   8.1588   8.1706   8.2490
     8.2554   8.3923   8.3940   8.4755   8.5939   8.6054   8.6621   8.6998
     8.7655   8.7656   8.7854   8.7947   8.8304   8.8673   8.9602   8.9941
     9.0116   9.1160   9.4663   9.8046   9.8528   9.9151  10.0145  10.0154
    10.1845  10.4657  10.6731  10.8746  11.3959  11.4415  12.0061  12.3053
    12.6545  12.9688  13.3672  14.0108  14.3539  14.7198  15.4106  15.5309
    15.6713  15.8363  15.8530  16.0047  16.2514  16.6446  17.0136  17.0640
    17.2044  17.2824  17.5682  17.6434

          k = 0.2500 0.4330 0.0000 ( 23431 PWs)   bands (ev):

     3.1267   3.2251   3.4117   3.6324   3.9016   4.1873   4.4643   4.6626
     4.7315   4.7829   4.7855   4.8085   4.8239   4.8802   4.8842   4.9487
     5.0002   5.0163   5.0231   5.1041   5.1083   5.1385   5.1496   5.2207
     5.2510   5.2548   5.3082   5.4176   5.4658   5.4985   5.5287   5.5618
     5.5803   5.6336   5.6819   5.7043   5.7466   5.7786   5.8050   5.8299
     5.8525   5.8844   5.9081   5.9352   5.9594   5.9843   6.0066   6.0452
     6.0735   6.1079   6.1112   6.1423   6.1689   6.1952   6.2553   6.2951
     6.3452   6.3670   6.4199   6.4370   6.5236   6.5414   6.5718   6.5738
     6.6216   6.6231   6.6650   6.6768   6.7002   6.7225   6.7400   6.7647
     6.8216   6.8840   6.9102   6.9400   6.9862   6.9894   6.9899   7.0303
     7.0347   7.1316   7.1411   7.1845   7.1877   7.2211   7.2682   7.2763
     7.3142   7.3460   7.3614   7.4110   7.4123   7.4362   7.4836   7.5085
     7.5376   7.5650   7.5889   7.6018   7.6321   7.6420   7.6655   7.6973
     7.7006   7.7142   7.7956   7.8249   7.8322   7.8738   7.8889   7.9511
     7.9665   8.0347   8.0452   8.0652   8.1132   8.1736   8.2405   8.2631
     8.3632   8.4155   8.4385   8.5833   8.6124   8.6596   8.7527   8.8073
     8.8240   8.8299   8.8404   8.8543   8.8570   8.8776   8.9860   9.0270
     9.1606   9.3354   9.9101  10.4138  10.4562  10.5375  10.5588  10.7176
    10.9528  11.2517  11.2870  11.7111  12.0396  12.2121  12.7852  12.9003
    13.3626  14.0167  14.0270  14.5443  14.8544  15.1020  15.6819  15.8324
    15.8925  15.9041  15.9768  16.1771  16.2864  16.4167  16.4928  16.6953
    16.8976  17.0605  17.4126  17.4351

          k = 0.2500 0.5774 0.0000 ( 23466 PWs)   bands (ev):

     3.7367   3.7901   3.9578   4.0861   4.2477   4.3923   4.5328   4.6064
     4.6527   4.6902   4.7225   4.7530   4.7691   4.8295   4.8716   4.8989
     4.9026   4.9977   5.0042   5.0475   5.0503   5.1215   5.1371   5.1782
     5.1869   5.2195   5.2272   5.2571   5.2923   5.3397   5.3572   5.3885
     5.4478   5.4877   5.5211   5.6204   5.6625   5.6667   5.7538   5.7720
     5.8238   5.8570   5.8937   5.8942   5.9581   5.9678   5.9969   6.0854
     6.1319   6.1674   6.2310   6.2331   6.2935   6.4025   6.4147   6.4606
     6.4703   6.5121   6.5293   6.5792   6.5950   6.6203   6.6275   6.6382
     6.6551   6.7127   6.7576   6.7986   6.7996   6.8485   6.8488   6.9237
     6.9450   6.9845   6.9910   7.0207   7.0818   7.1140   7.1848   7.1850
     7.2830   7.2911   7.3354   7.3631   7.3800   7.4890   7.4994   7.5161
     7.5264   7.5461   7.5658   7.6742   7.6757   7.7585   7.7836   7.8065
     7.8644   7.8713   7.9255   7.9352   7.9377   7.9706   8.0076   8.0623
     8.0670   8.0730   8.0966   8.1349   8.1370   8.1441   8.1934   8.2135
     8.2742   8.3187   8.3459   8.3552   8.4063   8.4314   8.4529   8.4948
     8.5094   8.5445   8.5840   8.5966   8.6737   8.7097   8.7450   8.7557
     8.7561   8.8249   8.8284   8.8536   8.8550   8.9506   8.9880   9.1247
     9.2379   9.8273  10.4907  11.0719  11.1409  11.1884  11.2865  11.4905
    11.7672  11.9370  12.1352  12.5755  12.7199  13.0707  13.5032  13.5650
    13.7875  13.8437  14.0667  14.2835  14.4414  14.7566  15.0271  15.0863
    15.1477  15.4552  15.6267  15.7477  15.9231  16.1993  16.4088  16.5632
    16.6633  17.0341  17.1709  17.4536

          k = 0.2500 0.7217 0.0000 ( 23545 PWs)   bands (ev):

     4.0875   4.1303   4.3123   4.3735   4.3866   4.4993   4.5017   4.5180
     4.5514   4.5833   4.6002   4.6511   4.6647   4.7425   4.7608   4.7651
     4.8241   4.8649   4.8752   4.8768   4.9222   4.9351   4.9414   5.0156
     5.0510   5.0830   5.0984   5.1294   5.1486   5.2283   5.2455   5.2544
     5.2964   5.3492   5.4090   5.4915   5.5363   5.5876   5.6774   5.6971
     5.7815   5.8352   5.8487   5.9335   5.9845   6.0098   6.0162   6.1122
     6.1299   6.2522   6.2825   6.3307   6.3638   6.3842   6.4022   6.4551
     6.5442   6.5497   6.5704   6.5991   6.6220   6.6650   6.7009   6.7221
     6.7685   6.8072   6.8215   6.8583   6.9230   6.9699   7.0447   7.0828
     7.1186   7.1259   7.2097   7.2175   7.2660   7.3147   7.3256   7.3614
     7.4276   7.4451   7.5693   7.6084   7.6545   7.6669   7.7164   7.8283
     7.8399   7.9037   7.9210   7.9246   7.9495   7.9786   8.0048   8.1096
     8.1304   8.1763   8.1992   8.2007   8.2239   8.2348   8.2798   8.3166
     8.3189   8.3310   8.4183   8.4275   8.4788   8.5395   8.5517   8.5607
     8.5830   8.5885   8.6009   8.6188   8.6614   8.6897   8.7120   8.7210
     8.7673   8.7788   8.8022   8.8200   8.8707   8.9139   8.9370   8.9401
     8.9462   9.0668   9.1480   9.2188   9.3203   9.3630   9.4557   9.6707
    10.1095  10.7094  11.3996  11.9196  11.9830  12.0096  12.0676  12.1329
    12.1513  12.2617  12.4118  12.5623  12.7985  12.8808  12.9693  13.1666
    13.2991  13.4211  13.6363  13.9319  13.9817  14.2770  14.2997  14.6774
    14.8680  15.3111  15.3184  15.3813  15.5567  15.7566  15.7635  15.9881
    16.0332  16.2128  16.4417  16.5687

          k = 0.2500-0.8660 0.0000 ( 23532 PWs)   bands (ev):

     4.1916   4.2650   4.3065   4.3260   4.3984   4.4552   4.4749   4.5008
     4.5474   4.5571   4.6191   4.6464   4.7184   4.7221   4.7409   4.7490
     4.7937   4.7988   4.8070   4.8096   4.8949   4.9050   4.9059   4.9258
     4.9507   4.9533   5.0435   5.0473   5.0919   5.0951   5.2174   5.2382
     5.2986   5.3090   5.3358   5.3378   5.5079   5.5103   5.6561   5.6787
     5.7955   5.8385   5.9231   5.9615   6.0486   6.0520   6.0895   6.1223
     6.1538   6.1562   6.2305   6.2453   6.4029   6.4119   6.4442   6.4479
     6.5192   6.5470   6.5735   6.5785   6.6506   6.6516   6.7146   6.7432
     6.7884   6.8188   6.8909   6.9163   6.9669   6.9887   7.1003   7.1355
     7.1785   7.1945   7.2897   7.2983   7.3807   7.3904   7.4437   7.4638
     7.5187   7.5302   7.6765   7.7049   7.7058   7.7237   7.8657   7.9020
     7.9267   7.9958   8.0630   8.0636   8.0792   8.0872   8.0996   8.1544
     8.2174   8.2475   8.2945   8.3431   8.3598   8.3704   8.3890   8.3986
     8.4039   8.4157   8.4345   8.4468   8.4770   8.4842   8.5300   8.5411
     8.6219   8.6481   8.7172   8.7333   8.7547   8.7614   8.7855   8.8111
     8.8422   8.8851   8.9093   8.9517   8.9720   9.0202   9.0385   9.0497
     9.0613   9.0670  10.3915  10.4290  10.4732  10.4911  10.6117  10.6207
    10.7235  10.7603  10.9175  10.9381  11.1962  11.2319  11.5991  11.6352
    12.1145  12.1411  12.7130  12.7605  13.3331  13.3350  13.5241  13.5576
    13.6465  13.6465  13.7417  13.8043  13.9729  14.0883  14.1975  14.2195
    14.3617  14.5853  14.7237  14.8209  14.9857  15.1456  15.4205  15.4518
    15.7416  15.7815  15.9879  15.9997

          k = 0.2500-0.7217 0.0000 ( 23545 PWs)   bands (ev):

     3.9893   4.1396   4.2685   4.4231   4.4470   4.4504   4.5058   4.5198
     4.5320   4.6027   4.6176   4.6385   4.6916   4.7136   4.7251   4.7662
     4.8314   4.8600   4.8753   4.8889   4.9246   4.9342   4.9429   5.0147
     5.0302   5.0980   5.1064   5.1192   5.1583   5.2320   5.2458   5.2477
     5.3238   5.3261   5.4065   5.4764   5.5277   5.5900   5.6788   5.7158
     5.7981   5.8253   5.8450   5.9427   5.9936   6.0163   6.0327   6.1243
     6.1612   6.2635   6.2961   6.3106   6.3644   6.3989   6.4339   6.4916
     6.5300   6.5356   6.5809   6.5929   6.6083   6.6728   6.7076   6.7188
     6.7954   6.7954   6.8414   6.8722   6.9553   6.9785   7.0245   7.0300
     7.1131   7.1179   7.1736   7.2305   7.2598   7.2833   7.3349   7.4006
     7.4485   7.4957   7.5530   7.5919   7.6547   7.6575   7.7333   7.7863
     7.8600   7.9001   7.9007   7.9482   7.9516   7.9806   8.0287   8.0622
     8.1013   8.1695   8.1742   8.2074   8.2265   8.2643   8.2720   8.3107
     8.3250   8.3548   8.4327   8.4718   8.4877   8.5349   8.5486   8.5572
     8.5766   8.5929   8.6084   8.6446   8.6717   8.6767   8.6814   8.7410
     8.7620   8.7715   8.8376   8.8496   8.9029   8.9119   8.9166   8.9292
     8.9445   8.9532   9.1357   9.2312   9.3264   9.3918   9.4647   9.6891
    10.1172  10.6925  11.3871  11.9353  11.9909  12.0258  12.0509  12.0853
    12.1730  12.2496  12.3234  12.4920  12.6499  12.8441  12.9041  13.0712
    13.3567  13.4892  13.5224  13.8232  14.0612  14.3003  14.5121  14.7476
    15.0925  15.2910  15.3150  15.3911  15.5779  15.5840  15.7480  15.9433
    16.1293  16.1927  16.3894  16.6259

          k = 0.2500-0.5774 0.0000 ( 23466 PWs)   bands (ev):

     3.6456   3.7981   3.9184   4.1192   4.2715   4.4185   4.5498   4.5517
     4.6394   4.6456   4.7234   4.7295   4.7552   4.8451   4.8604   4.8689
     4.9070   4.9969   5.0150   5.0433   5.0583   5.1269   5.1416   5.1830
     5.1985   5.1993   5.2342   5.2675   5.2972   5.3536   5.3724   5.3966
     5.4471   5.4793   5.5342   5.5866   5.6481   5.6800   5.7612   5.8180
     5.8181   5.8485   5.9143   5.9331   5.9509   5.9854   6.0353   6.0688
     6.1434   6.1721   6.2408   6.2609   6.3020   6.3789   6.4207   6.4471
     6.4993   6.5085   6.5465   6.5825   6.6152   6.6177   6.6316   6.6462
     6.6767   6.7018   6.7518   6.7588   6.8304   6.8538   6.8752   6.9279
     6.9426   6.9615   6.9986   7.0181   7.0991   7.1203   7.1442   7.2245
     7.2269   7.2948   7.3401   7.3418   7.4707   7.4811   7.5160   7.5240
     7.5421   7.5437   7.6261   7.6334   7.6885   7.7266   7.7846   7.8301
     7.8369   7.8797   7.9153   7.9305   7.9664   8.0057   8.0076   8.0634
     8.0689   8.0849   8.0850   8.1184   8.1200   8.1478   8.1928   8.2190
     8.2596   8.3174   8.3365   8.3566   8.4096   8.4402   8.4612   8.4970
     8.5077   8.5435   8.5843   8.6404   8.6870   8.7091   8.7458   8.7524
     8.7985   8.8323   8.8621   8.8648   8.8710   8.9027   8.9967   9.0065
     9.2157   9.7789  10.4520  11.0698  11.0834  11.1334  11.2827  11.4750
    11.7602  11.8946  12.1244  12.5738  12.6065  13.0884  13.5084  13.6165
    13.7404  13.8664  14.0181  14.3162  14.4441  14.7022  14.9698  15.0297
    15.1019  15.4879  15.6673  15.6972  15.8959  16.2511  16.4250  16.5005
    16.7135  17.2164  17.2550  17.5228

          k = 0.2500-0.4330 0.0000 ( 23431 PWs)   bands (ev):

     3.0846   3.2282   3.3919   3.6434   3.9041   4.1979   4.4675   4.5978
     4.6485   4.7282   4.7438   4.8171   4.8287   4.8651   4.8896   4.9208
     4.9588   5.0170   5.0703   5.1049   5.1360   5.1552   5.2063   5.2407
     5.2509   5.2568   5.3170   5.4637   5.4834   5.4888   5.5179   5.5625
     5.5860   5.6307   5.6718   5.7072   5.7269   5.7954   5.8115   5.8558
     5.8725   5.9162   5.9262   5.9346   5.9856   5.9936   6.0127   6.0300
     6.0496   6.1081   6.1209   6.1615   6.1691   6.2350   6.2384   6.2829
     6.3632   6.3754   6.4160   6.4471   6.5030   6.5448   6.5749   6.5981
     6.6150   6.6198   6.6697   6.6777   6.7064   6.7240   6.7275   6.7595
     6.8400   6.8992   6.9043   6.9785   6.9871   6.9898   7.0271   7.0338
     7.0903   7.1047   7.1787   7.1850   7.2017   7.2428   7.2600   7.2933
     7.2957   7.3388   7.3711   7.3847   7.3997   7.4307   7.4753   7.4933
     7.5599   7.5743   7.5984   7.6090   7.6314   7.6610   7.6630   7.6879
     7.7111   7.7518   7.8071   7.8445   7.8705   7.8845   7.8907   7.9243
     7.9728   8.0208   8.0408   8.0613   8.0996   8.1623   8.1928   8.2456
     8.3803   8.4227   8.4351   8.5632   8.6372   8.7122   8.7587   8.8012
     8.8128   8.8274   8.8599   8.8693   8.8732   8.8970   8.9380   9.0375
     9.0435   9.2756   9.8632  10.4154  10.4233  10.4497  10.5546  10.7060
    10.9486  11.2067  11.2872  11.7259  11.9214  12.2458  12.8204  12.9020
    13.4327  13.9304  14.0240  14.6019  14.8982  14.9048  15.5931  15.7773
    15.8547  15.8930  15.9697  16.1565  16.2773  16.4532  16.4576  16.6350
    16.9908  17.1728  17.4506  17.5070

          k = 0.2500-0.2887 0.0000 ( 23496 PWs)   bands (ev):

     2.5061   2.6479   2.8540   3.1388   3.4664   3.8322   4.1873   4.3454
     4.4646   4.4907   4.5849   4.6045   4.6349   4.6498   4.6978   4.7232
     4.7950   4.8318   4.8804   4.8834   4.9357   4.9876   5.0460   5.0804
     5.1353   5.2167   5.2292   5.3070   5.3781   5.4816   5.5174   5.5224
     5.6159   5.6241   5.7156   5.7221   5.7942   5.8096   5.8734   5.9075
     5.9261   5.9294   5.9599   5.9877   6.0053   6.0572   6.0993   6.1097
     6.1237   6.1463   6.1799   6.2430   6.2900   6.3040   6.3535   6.3628
     6.4201   6.4361   6.4726   6.4895   6.5218   6.5650   6.5808   6.6216
     6.6234   6.6608   6.6893   6.7076   6.7118   6.7375   6.7740   6.7779
     6.8286   6.8325   6.8718   6.8805   6.9192   6.9368   6.9689   6.9844
     6.9917   7.0050   7.0234   7.0714   7.0933   7.1369   7.1471   7.1800
     7.1850   7.2320   7.2589   7.2989   7.3277   7.3415   7.3710   7.3724
     7.4536   7.4572   7.5136   7.5516   7.5698   7.6186   7.6292   7.6883
     7.6936   7.7595   7.7774   7.7786   7.8114   7.8542   7.8858   7.9107
     7.9580   7.9712   7.9851   8.0376   8.1035   8.1780   8.1782   8.1988
     8.2673   8.3885   8.3948   8.4669   8.6110   8.6180   8.6811   8.6881
     8.7654   8.7662   8.7982   8.8061   8.8349   8.8718   8.9267   8.9699
     9.0017   9.0076   9.4274   9.8150   9.8524   9.9079   9.9111  10.0049
    10.1780  10.4686  10.6316  10.8926  11.3302  11.4284  12.0425  12.3009
    12.7015  12.9134  13.3788  14.0426  14.3928  14.6532  15.3982  15.4871
    15.6761  15.8393  15.8556  16.0104  16.2038  16.5972  17.0244  17.0485
    17.2207  17.2678  17.5553  17.6233

          k = 0.2500-0.1443 0.0000 ( 23484 PWs)   bands (ev):

     2.1016   2.2421   2.4665   2.7618   3.1117   3.4961   3.8699   4.0221
     4.1449   4.1679   4.2974   4.3347   4.3821   4.4127   4.4525   4.4913
     4.5213   4.5837   4.5864   4.6054   4.6413   4.7259   4.7833   4.8264
     4.8771   4.9677   5.0138   5.1104   5.2319   5.2382   5.3422   5.5398
     5.6066   5.6581   5.7881   5.8274   5.8871   5.9162   5.9774   5.9978
     6.0383   6.0666   6.0969   6.1207   6.1378   6.1777   6.2172   6.2669
     6.2817   6.3062   6.3119   6.3763   6.3827   6.4363   6.4432   6.4898
     6.4997   6.5213   6.5823   6.5844   6.5886   6.6160   6.6170   6.6320
     6.6406   6.6915   6.6990   6.7131   6.7384   6.7564   6.7698   6.7961
     6.8091   6.8270   6.8486   6.8619   6.8871   6.9014   6.9366   6.9669
     6.9795   7.0326   7.0424   7.0934   7.1202   7.1895   7.2044   7.2324
     7.2347   7.2677   7.2940   7.3172   7.4297   7.4720   7.4755   7.4833
     7.5806   7.5870   7.6612   7.6760   7.7167   7.7451   7.7568   7.8147
     7.8739   7.8786   7.9028   7.9277   7.9525   7.9723   8.0174   8.0756
     8.0994   8.1441   8.1816   8.2049   8.2348   8.2492   8.2533   8.3056
     8.3172   8.4071   8.4563   8.4650   8.5064   8.5395   8.5876   8.6066
     8.6091   8.6688   8.7114   8.7161   8.7359   8.7572   8.8045   8.8094
     8.9145   8.9213   9.1239   9.1276   9.2417   9.3313   9.3640   9.4508
     9.5271   9.6745  10.1225  10.1630  10.7272  10.8452  11.4146  11.7506
    12.1338  12.1399  12.8716  13.5832  14.1653  14.2927  15.1485  15.2925
    15.3700  15.5098  15.5696  15.7242  15.9819  16.4269  16.7756  16.8743
    16.8953  17.1915  17.4663  17.8146

          k = 0.3750 0.0000 0.0000 ( 23492 PWs)   bands (ev):

     2.4822   2.6129   2.8273   3.1045   3.4368   3.6577   3.7637   3.8014
     3.9128   4.0830   4.1596   4.2412   4.3716   4.4402   4.4983   4.5841
     4.6224   4.6396   4.6944   4.7302   4.8501   4.8530   4.8535   4.9337
     4.9779   5.0166   5.1256   5.1857   5.2376   5.3251   5.4820   5.5095
     5.5978   5.6544   5.7002   5.7379   5.7917   5.8750   5.8825   5.9199
     5.9393   5.9771   6.0217   6.0732   6.0742   6.1230   6.1414   6.1691
     6.2275   6.2551   6.3346   6.4139   6.4196   6.4552   6.4943   6.5163
     6.5175   6.5623   6.5640   6.5897   6.5934   6.6202   6.6464   6.6468
     6.6621   6.6916   6.7001   6.7037   6.7466   6.7809   6.8132   6.8227
     6.8498   6.8646   6.8935   6.9197   6.9298   6.9384   6.9490   6.9838
     7.0038   7.0173   7.0279   7.0736   7.1265   7.1539   7.1705   7.1865
     7.2084   7.2090   7.2988   7.3164   7.3435   7.3552   7.4038   7.4736
     7.4859   7.5118   7.5305   7.5320   7.6173   7.6255   7.6505   7.6978
     7.7047   7.7317   7.7749   7.7956   7.8731   7.9105   7.9492   7.9632
     7.9745   7.9792   8.0149   8.0324   8.0403   8.0579   8.0729   8.0754
     8.1185   8.1359   8.1774   8.1973   8.2339   8.2680   8.2781   8.3155
     8.3256   8.3377   8.3756   8.4416   8.4547   8.5377   8.5743   8.5920
     8.6388   8.6406   8.6842   8.8062   8.8137   8.8570   8.8657   8.9535
     9.1763   9.4143   9.7791   9.9505  10.4390  10.6134  11.1293  11.3602
    11.8789  12.2603  12.6381  12.8821  13.4771  14.3540  14.9670  15.3805
    15.6269  15.8227  16.4937  16.9938  17.1963  17.2694  17.4349  17.6097
    17.7948  17.9680  18.2614  18.7144

          k = 0.3750 0.1443 0.0000 ( 23495 PWs)   bands (ev):

     2.6246   2.7496   2.9611   3.2309   3.5587   3.7966   3.9035   3.9199
     4.0413   4.2060   4.2820   4.3535   4.4810   4.5735   4.6122   4.7168
     4.7422   4.7593   4.8183   4.8497   4.9531   4.9628   4.9653   5.0121
     5.0544   5.1121   5.2137   5.2813   5.3552   5.4106   5.4711   5.5062
     5.5709   5.6423   5.6650   5.7529   5.7733   5.8070   5.8193   5.8533
     5.8722   5.9116   5.9450   5.9934   6.0146   6.0405   6.0743   6.0785
     6.1276   6.1756   6.2082   6.2527   6.2890   6.3250   6.3425   6.4194
     6.4306   6.4500   6.4611   6.5045   6.5272   6.5507   6.5636   6.5864
     6.6013   6.6458   6.6795   6.6883   6.6964   6.7026   6.7128   6.7429
     6.7772   6.7983   6.8296   6.8502   6.8873   6.9319   6.9551   7.0053
     7.0206   7.0480   7.0776   7.0973   7.1432   7.1608   7.1891   7.2126
     7.2486   7.2721   7.2975   7.3018   7.3363   7.3742   7.3825   7.4055
     7.4212   7.4614   7.4792   7.4853   7.5390   7.5841   7.6538   7.6899
     7.7017   7.7330   7.7563   7.7690   7.7837   7.8577   7.8839   7.9199
     7.9563   7.9828   8.0242   8.0542   8.1111   8.1195   8.1492   8.1596
     8.2346   8.2688   8.2975   8.3182   8.3962   8.4172   8.4452   8.4857
     8.4963   8.5131   8.5163   8.5497   8.6160   8.6362   8.6500   8.6995
     8.7043   8.7220   8.7490   8.7641   8.7960   8.8198   8.9537   9.1204
     9.3943   9.5660   9.9507  10.1102  10.5854  10.7722  11.2627  11.5377
    12.0172  12.4227  12.7665  13.1477  13.6099  14.4321  15.1815  15.4813
    15.7915  15.9239  16.6208  17.1058  17.2744  17.3576  17.4715  17.6410
    17.9002  18.0447  18.2975  18.7655

          k = 0.3750 0.2887 0.0000 ( 23497 PWs)   bands (ev):

     3.0124   3.1221   3.3167   3.5587   3.8564   4.1634   4.1844   4.2683
     4.3469   4.4626   4.5217   4.5616   4.6793   4.8021   4.8188   4.9330
     4.9604   4.9728   5.1030   5.1100   5.1866   5.1869   5.1947   5.2509
     5.2654   5.3090   5.3232   5.3723   5.4333   5.4880   5.5071   5.5825
     5.5868   5.6204   5.6230   5.6954   5.7096   5.7379   5.7482   5.7710
     5.7751   5.8271   5.8540   5.8675   5.9080   5.9117   5.9586   5.9678
     5.9836   5.9874   6.0520   6.0704   6.0955   6.1739   6.1861   6.2195
     6.2809   6.3079   6.3144   6.3655   6.4008   6.4025   6.4309   6.4396
     6.4812   6.5168   6.5389   6.5700   6.5964   6.6109   6.6369   6.6996
     6.7137   6.7383   6.7387   6.7416   6.8252   6.8552   6.8850   6.9519
[...]
     8.4958   8.5181   8.5564   8.5817   8.6207   8.6472   8.6625   8.6910
     8.7095   8.7208   8.7535   8.7674   8.7958   8.8372   8.9422   9.1055
     9.3995   9.5484   9.9621  10.0902  10.5944  10.7449  11.2797  11.5208
    12.0132  12.3984  12.7850  13.1359  13.5640  14.4059  15.1859  15.4801
    15.7650  15.9359  16.6183  17.1132  17.2744  17.3470  17.4472  17.6444
    17.8858  18.0356  18.3078  18.7626

          k =-0.5000 0.0000-0.0000 ( 23442 PWs)   bands (ev):

     3.1130   3.1130   3.2214   3.2214   3.3993   3.3993   3.6377   3.6378
     3.9096   3.9096   4.2013   4.2013   4.4705   4.4705   4.6554   4.6554
     4.7576   4.7576   4.8761   4.8761   5.0141   5.0141   5.1385   5.1385
     5.1726   5.1726   5.2137   5.2137   5.3144   5.3145   5.4456   5.4457
     5.5866   5.5866   5.7134   5.7134   5.8216   5.8216   5.8944   5.8944
     5.9272   5.9272   5.9936   5.9936   6.0547   6.0547   6.1495   6.1495
     6.2154   6.2154   6.2595   6.2596   6.3984   6.3984   6.5184   6.5184
     6.5830   6.5830   6.5962   6.5962   6.6204   6.6204   6.6464   6.6464
     6.6843   6.6843   6.6899   6.6900   6.7002   6.7002   6.7510   6.7510
     6.8102   6.8102   6.8251   6.8252   6.9015   6.9015   6.9630   6.9630
     6.9685   6.9685   7.1238   7.1239   7.1959   7.1959   7.1995   7.1996
     7.2162   7.2163   7.2653   7.2653   7.3331   7.3331   7.4164   7.4164
     7.4460   7.4460   7.4972   7.4973   7.5447   7.5447   7.5605   7.5605
     7.6086   7.6086   7.6227   7.6227   7.6632   7.6632   7.7023   7.7023
     7.8068   7.8068   7.8179   7.8180   7.9033   7.9033   7.9815   7.9815
     8.0490   8.0490   8.0529   8.0529   8.1144   8.1145   8.1714   8.1714
     8.2493   8.2494   8.3850   8.3850   8.3875   8.3875   8.5573   8.5574
     8.7149   8.7150   8.8161   8.8161   8.8243   8.8243   8.8713   8.8713
     9.3200   9.3200   9.8852   9.8852  10.5118  10.5119  11.2137  11.2137
    12.0011  12.0011  12.8682  12.8682  13.9788  13.9789  14.8552  14.8553
    15.8731  15.8732  16.4512  16.4521  17.4193  17.4198  17.8144  17.8146
    19.1586  19.1587  19.3028  19.3030

          k =-0.5000 0.1443-0.0000 ( 23476 PWs)   bands (ev):

     3.2515   3.2521   3.3557   3.3558   3.5267   3.5270   3.7573   3.7576
     4.0230   4.0231   4.3132   4.3134   4.5934   4.5935   4.7999   4.8009
     4.8987   4.8988   5.0087   5.0088   5.1377   5.1378   5.2153   5.2161
     5.2819   5.2823   5.2988   5.2999   5.3810   5.3815   5.4918   5.4926
     5.6061   5.6074   5.6818   5.6841   5.7474   5.7486   5.7604   5.7619
     5.8469   5.8470   5.8663   5.8666   5.9534   5.9535   6.0077   6.0090
     6.0572   6.0601   6.0847   6.0853   6.2422   6.2443   6.3920   6.3959
     6.4628   6.4646   6.4974   6.5005   6.5389   6.5422   6.5929   6.5939
     6.6186   6.6224   6.6348   6.6503   6.6538   6.6553   6.6711   6.6714
     6.7092   6.7138   6.7295   6.7319   6.7589   6.7594   6.8672   6.8677
     6.9830   6.9836   7.0688   7.0695   7.1704   7.1715   7.3036   7.3041
     7.3571   7.3590   7.3824   7.3830   7.3877   7.3877   7.4073   7.4099
     7.4574   7.4616   7.4996   7.5005   7.5855   7.5868   7.6344   7.6362
     7.7092   7.7094   7.7705   7.7714   7.7839   7.7845   7.8328   7.8346
     7.8646   7.8658   7.9402   7.9416   8.0872   8.0873   8.1058   8.1058
     8.1715   8.1748   8.1972   8.2003   8.2385   8.2397   8.3013   8.3017
     8.3054   8.3057   8.3491   8.3496   8.4318   8.4328   8.5780   8.5796
     8.6410   8.6458   8.7167   8.7169   8.7603   8.7618   9.0095   9.0118
     9.4716   9.4750  10.0145  10.0179  10.6348  10.6387  11.3407  11.3427
    12.1291  12.1322  12.9857  12.9864  14.2048  14.2065  14.9870  14.9888
    15.9946  15.9949  16.5486  16.5501  17.5650  17.5673  17.8720  17.8728
    19.2182  19.2194  19.3877  19.3902

          k =-0.5000 0.2887-0.0000 ( 23540 PWs)   bands (ev):

     3.6181   3.6205   3.7053   3.7056   3.8475   3.8485   4.0414   4.0425
     4.2684   4.2691   4.5234   4.5247   4.7892   4.7905   5.0497   5.0501
     5.2406   5.2425   5.2881   5.2909   5.3250   5.3273   5.3660   5.3665
     5.3965   5.3973   5.4246   5.4264   5.4499   5.4504   5.5219   5.5225
     5.5290   5.5291   5.5500   5.5528   5.5972   5.5989   5.6524   5.6528
     5.7258   5.7272   5.7835   5.7853   5.8279   5.8283   5.8343   5.8350
     6.0019   6.0037   6.0569   6.0586   6.0763   6.0769   6.1606   6.1616
     6.2183   6.2210   6.2608   6.2624   6.3480   6.3503   6.4142   6.4173
     6.4635   6.4681   6.4997   6.5034   6.5344   6.5363   6.5613   6.5740
     6.6038   6.6039   6.6059   6.6075   6.9822   6.9836   6.9923   6.9945
     7.0013   7.0030   7.0516   7.0536   7.1578   7.1660   7.1929   7.1969
     7.2708   7.2722   7.3473   7.3511   7.4427   7.4491   7.5220   7.5240
     7.5751   7.5758   7.6385   7.6386   7.6890   7.6909   7.7831   7.7847
     7.7858   7.7893   7.9505   7.9516   8.0249   8.0256   8.0461   8.0466
     8.1869   8.1901   8.1958   8.1975   8.2450   8.2467   8.3708   8.3710
     8.4072   8.4079   8.4348   8.4352   8.4489   8.4506   8.4910   8.4914
     8.5299   8.5325   8.5624   8.5683   8.5996   8.5996   8.6346   8.6359
     8.6862   8.6863   8.7172   8.7206   8.8465   8.8473   9.2771   9.2796
     9.7723   9.7764  10.3332  10.3379  10.9674  10.9740  11.6843  11.6877
    12.4675  12.4734  13.2846  13.2864  14.7878  14.7923  15.3780  15.3812
    16.3366  16.3386  16.8613  16.8650  17.9323  17.9393  18.0553  18.0564
    19.3006  19.3019  19.3344  19.3424

          k =-0.5000 0.4330-0.0000 ( 23522 PWs)   bands (ev):

     3.9757   3.9817   4.0584   4.0588   4.1807   4.1841   4.3255   4.3283
     4.4544   4.4575   4.5830   4.5862   4.7293   4.7315   4.8721   4.8734
     4.9736   4.9754   5.0389   5.0403   5.0941   5.0959   5.1465   5.1473
     5.2108   5.2116   5.3033   5.3045   5.3523   5.3538   5.4651   5.4652
     5.5109   5.5114   5.5984   5.5988   5.6462   5.6519   5.7521   5.7536
     5.8630   5.8633   5.9338   5.9359   6.0001   6.0003   6.0580   6.0584
     6.1186   6.1205   6.1902   6.1907   6.2316   6.2335   6.2788   6.2788
     6.3384   6.3403   6.4165   6.4191   6.4385   6.4386   6.4913   6.4955
     6.5362   6.5378   6.6309   6.6345   6.7157   6.7164   6.7566   6.7611
     6.8047   6.8085   6.8341   6.8350   6.8978   6.9006   6.9246   6.9260
     7.0295   7.0303   7.1142   7.1151   7.2300   7.2310   7.3975   7.3976
     7.5012   7.5023   7.5276   7.5296   7.5569   7.5571   7.5902   7.5945
     7.6179   7.6190   7.6895   7.6915   7.8143   7.8149   7.8508   7.8514
     8.0136   8.0139   8.1002   8.1021   8.2125   8.2132   8.2753   8.2754
     8.3636   8.3647   8.4620   8.4626   8.5077   8.5082   8.5343   8.5349
     8.5695   8.5698   8.6345   8.6348   8.6751   8.6803   8.7807   8.7811
     8.7860   8.7866   8.8277   8.8317   8.8562   8.8568   8.8799   8.8806
     8.9248   8.9249   9.0114   9.0115   9.2056   9.2059   9.6332   9.6353
    10.1745  10.1785  10.7885  10.7930  11.4601  11.4682  12.1884  12.1923
    12.9505  12.9586  13.7083  13.7110  15.4458  15.4535  15.9490  15.9530
    16.7691  16.7728  17.4153  17.4268  17.4674  17.4742  17.6913  17.6949
    17.9683  17.9726  18.1213  18.1216

          k =-0.5000 0.5774-0.0000 ( 23534 PWs)   bands (ev):

     4.0371   4.0430   4.1388   4.1389   4.2948   4.2995   4.4527   4.4584
     4.4901   4.4902   4.5149   4.5149   4.5927   4.5963   4.6399   4.6418
     4.7312   4.7316   4.7503   4.7508   4.8170   4.8172   4.8753   4.8757
     4.9370   4.9386   5.0318   5.0341   5.0978   5.0979   5.2452   5.2456
     5.2646   5.2648   5.3520   5.3526   5.5613   5.5629   5.7416   5.7423
     5.8799   5.8817   6.0481   6.0506   6.2035   6.2080   6.2689   6.2758
     6.3262   6.3267   6.3556   6.3559   6.4279   6.4293   6.4964   6.4969
     6.5441   6.5456   6.5745   6.5773   6.5936   6.5944   6.7098   6.7122
     6.7348   6.7357   6.8312   6.8338   6.9560   6.9569   7.0160   7.0172
     7.1041   7.1056   7.1883   7.1900   7.2580   7.2592   7.3114   7.3151
     7.4301   7.4315   7.5672   7.5674   7.6511   7.6532   7.7764   7.7803
     7.8316   7.8319   7.9101   7.9102   7.9360   7.9363   8.0272   8.0278
     8.1506   8.1539   8.2012   8.2050   8.2109   8.2117   8.2201   8.2207
     8.2743   8.2750   8.2830   8.2842   8.4403   8.4403   8.4853   8.4857
     8.5169   8.5177   8.5835   8.5839   8.5994   8.6002   8.6710   8.6716
     8.7377   8.7377   8.7846   8.7863   8.8178   8.8226   8.9089   8.9090
     8.9517   8.9562   9.1145   9.1146   9.2332   9.2333   9.3262   9.3271
     9.3663   9.3689   9.4561   9.4569   9.6802   9.6811  10.1171  10.1177
    10.7091  10.7118  11.3900  11.3927  12.1134  12.1212  12.8546  12.8583
    13.5763  13.5863  14.2756  14.2778  15.2890  15.2905  15.3645  15.3687
    15.5725  15.5749  15.7079  15.7102  15.9946  15.9978  16.4364  16.4395
    16.9060  16.9067  17.1992  17.1998

          k =-0.5000 0.7217-0.0000 ( 23516 PWs)   bands (ev):

     3.9844   3.9895   4.0904   4.0905   4.2541   4.2583   4.2742   4.2771
     4.3483   4.3484   4.4534   4.4545   4.4657   4.4658   4.5547   4.5556
     4.5841   4.5846   4.6280   4.6280   4.6416   4.6432   4.6945   4.6946
     4.7563   4.7578   4.8092   4.8108   4.9407   4.9411   5.0671   5.0671
     5.0948   5.0950   5.2141   5.2141   5.4874   5.4877   5.7492   5.7506
     5.9286   5.9298   6.0761   6.0828   6.1800   6.1817   6.2579   6.2665
     6.3077   6.3107   6.3695   6.3719   6.3828   6.3883   6.4659   6.4663
     6.5303   6.5324   6.6059   6.6114   6.7408   6.7443   6.7988   6.7996
     6.9129   6.9154   7.0147   7.0161   7.0808   7.0829   7.3003   7.3018
     7.3349   7.3350   7.4249   7.4254   7.5969   7.5979   7.7532   7.7580
     7.8293   7.8294   7.8891   7.8916   8.1312   8.1319   8.1430   8.1448
     8.2468   8.2471   8.3957   8.3968   8.4663   8.4667   8.5516   8.5533
     8.5614   8.5626   8.5963   8.5966   8.6528   8.6534   8.6777   8.6798
     8.6964   8.6965   8.7190   8.7206   8.7222   8.7226   8.7370   8.7374
     8.7631   8.7636   8.7767   8.7789   8.8004   8.8005   8.8455   8.8459
     8.8732   8.8740   8.9272   8.9284   8.9984   9.0034   9.0739   9.0740
     9.0805   9.0816   9.5749   9.5790   9.8204   9.8207  10.0555  10.0582
    10.2215  10.2243  10.3122  10.3159  10.4728  10.4769  10.8360  10.8390
    11.3886  11.3896  12.0479  12.0510  12.7450  12.7460  13.3374  13.3463
    13.4711  13.4715  13.5573  13.5640  13.6755  13.6919  13.9477  13.9508
    14.2478  14.2616  14.5463  14.5508  14.8601  14.8723  15.2475  15.2566
    15.6051  15.6095  15.8982  15.9039

          k =-0.5000-0.8660-0.0000 ( 23552 PWs)   bands (ev):

     3.9557   3.9606   4.0622   4.0623   4.2053   4.2080   4.2266   4.2307
     4.2836   4.2837   4.4003   4.4012   4.4328   4.4330   4.4887   4.4897
     4.5357   4.5363   4.5627   4.5628   4.6084   4.6099   4.6581   4.6598
     4.6939   4.6959   4.7059   4.7069   4.8838   4.8842   5.0075   5.0077
     5.0298   5.0298   5.1687   5.1688   5.4563   5.4563   5.7432   5.7446
     5.9497   5.9505   6.0593   6.0680   6.1629   6.1632   6.2436   6.2517
     6.3219   6.3220   6.3251   6.3265   6.3345   6.3388   6.4212   6.4215
     6.5658   6.5705   6.7366   6.7401   6.7690   6.7695   6.7830   6.7840
     7.0061   7.0085   7.0580   7.0614   7.1369   7.1379   7.2794   7.2803
     7.4848   7.4861   7.5643   7.5646   7.5737   7.5760   7.8479   7.8486
     7.9498   7.9560   8.0438   8.0456   8.1222   8.1235   8.3755   8.3759
     8.3926   8.3926   8.4883   8.4895   8.5771   8.5785   8.6981   8.6982
     8.7008   8.7062   8.7419   8.7423   8.7934   8.7975   8.8032   8.8035
     8.8162   8.8202   8.8396   8.8404   8.8414   8.8418   8.8606   8.8611
     8.8839   8.8842   8.9084   8.9101   8.9442   8.9442   8.9805   8.9821
     9.0248   9.0248   9.0268   9.0283   9.0655   9.0656   9.2337   9.2339
     9.2344   9.2346  10.1987  10.2090  10.5597  10.5609  10.9298  10.9368
    11.2427  11.2469  11.4725  11.4738  11.6260  11.6298  11.7286  11.7336
    11.8000  11.8018  11.8438  11.8585  11.8890  11.8893  11.9035  11.9356
    12.1292  12.1293  12.1298  12.1299  13.5480  13.5723  13.7359  13.7386
    13.9936  14.0137  14.2802  14.2851  14.5422  14.5562  14.8892  14.8989
    15.3514  15.3697  15.8846  15.9006

     the Fermi energy is    10.7350 ev

!    total energy              =  -20153.51514338 Ry

     total all-electron energy =   -988623.513511 Ry
     estimated scf accuracy    <          1.1E-09 Ry
     smearing contrib. (-TS)   =      -0.00037271 Ry
     internal energy E=F+TS    =  -20153.51477067 Ry

     The total energy is F=E-TS. E is the sum of the following terms:
     one-electron contribution =   -8807.41537003 Ry
     hartree contribution      =    4729.23098633 Ry
     xc contribution           =    -833.58846516 Ry
     ewald contribution        =    2763.58948726 Ry
     one-center paw contrib.   =  -18005.33140907 Ry

     convergence has been achieved in  25 iterations

     negative rho (up, down):  2.003E-03 0.000E+00

     Forces acting on atoms (cartesian axes, Ry/au):

     atom    1 type  1   force =    -0.00003524    0.00006202   -0.00061496
     atom    2 type  1   force =     0.00003610   -0.00002720    0.00055207
     atom    3 type  1   force =     0.00004647   -0.00000961   -0.00005374
     atom    4 type  1   force =     0.00002631   -0.00066353   -0.00003787
     atom    5 type  1   force =    -0.00004496    0.00003517   -0.00018375
     atom    6 type  1   force =     0.00001443    0.00002619    0.00044303
     atom    7 type  1   force =    -0.00008984    0.00000692   -0.00046728
     atom    8 type  1   force =     0.00004529    0.00069516    0.00039302
     atom    9 type  1   force =     0.00000370    0.00003030   -0.00002312
     atom   10 type  1   force =     0.00008968    0.00002993    0.00064915
     atom   11 type  1   force =    -0.00001428   -0.00001194   -0.00042830
     atom   12 type  1   force =    -0.00000977   -0.00006704   -0.00002249
     atom   13 type  1   force =    -0.00007470    0.00007042   -0.00020271
     atom   14 type  1   force =     0.00001672    0.00002891    0.00044523
     atom   15 type  1   force =    -0.00008693   -0.00005133   -0.00045917
     atom   16 type  1   force =     0.00004367    0.00064077    0.00038980
     atom   17 type  1   force =     0.00000921    0.00002795   -0.00002263
     atom   18 type  1   force =     0.00008724    0.00002757    0.00064986
     atom   19 type  1   force =    -0.00001904   -0.00006189   -0.00043099
     atom   20 type  1   force =    -0.00000628   -0.00012446   -0.00002159
     atom   21 type  1   force =    -0.00007126    0.00006832   -0.00020570
     atom   22 type  1   force =    -0.00003336    0.00004379   -0.00061606
     atom   23 type  1   force =     0.00003688   -0.00008226    0.00055042
     atom   24 type  1   force =     0.00004791   -0.00007010   -0.00005481
     atom   25 type  1   force =     0.00003042   -0.00066164   -0.00004184
     atom   26 type  1   force =    -0.00004837    0.00003758   -0.00018557

     Total force =     0.001968     Total SCF correction =     0.000214
     SCF correction compared to forces is large: reduce conv_thr to get better values
     Energy error            =      6.3E-05 Ry
     Gradient error          =      6.5E-04 Ry/Bohr

     bfgs converged in   9 scf cycles and   7 bfgs steps
     (criteria: energy <  1.0E-04 Ry, force <  1.0E-03 Ry/Bohr)

     End of BFGS Geometry Optimization

     Final energy             =  -20153.5151433800 Ry

     File ./pwscf.bfgs deleted, as requested
Begin final coordinates

ATOMIC_POSITIONS (angstrom)
Au            0.0000000000        0.0000000000       -0.0068170702    0   0   1
Au            5.0991277561       -0.0354811138       28.8536279395    0   0   1
Au            5.0991339819       -0.0354811138       21.6354468862    0   0   1
Au            5.0991389889        0.0000000000       14.4215682814    0   0   1
Au            5.0991452147        0.0000000000        7.2104511852    0   0   1
Au            1.6997150733        0.0000000000        2.4179414730    0   0   1
Au            1.6996977676       -0.0354811138       24.0392158993    0   0   1
Au            1.6997039934       -0.0354811138       16.8251170920    0   0   1
Au            1.6997090005        0.0000000000        9.6132029706    0   0   1
Au            3.3994301414        0.0000000000        4.8060149889    0   0   1
Au            3.3994129888       -0.0354811138       26.4280053913    0   0   1
Au            3.3994189086       -0.0354811138       19.2315339835    0   0   1
Au            3.3994248284        0.0000000000       12.0181769963    0   0   1
Au            4.2492909414        1.4719970299        2.4179148242    0   0   1
Au            4.2492725751        1.4365159161       24.0392065886    0   0   1
Au            4.2492788009        1.4365159161       16.8251206169    0   0   1
Au            4.2492850215        1.4719970299        9.6132154143    0   0   1
Au            0.8498539674        1.4719970299        4.8059856276    0   0   1
Au            0.8498368147        1.4365159161       26.4280533126    0   0   1
Au            0.8498428875        1.4365159161       19.2315416250    0   0   1
Au            0.8498488838        1.4719970299       12.0182222261    0   0   1
Au            2.5495761740        1.4719970299       -0.0067908760    0   0   1
Au            2.5495526478        1.4365159161       28.8536500759    0   0   1
Au            2.5495578078        1.4365159161       21.6354458986    0   0   1
Au            2.5495637276        1.4719970299       14.4215477452    0   0   1
Au            2.5495699534        1.4719970299        7.2104663807    0   0   1
End final coordinates



     Writing all to output data dir ./pwscf.save/
 
     init_run     :     25.00s CPU     26.10s WALL (       1 calls)
     electrons    :  14409.68s CPU  14558.62s WALL (       9 calls)
     update_pot   :      4.18s CPU      4.21s WALL (       8 calls)
     forces       :     75.20s CPU     75.79s WALL (       9 calls)

     Called by init_run:
     wfcinit      :     24.32s CPU     25.07s WALL (       1 calls)
     potinit      :      0.38s CPU      0.47s WALL (       1 calls)
     hinit0       :      0.20s CPU      0.43s WALL (       1 calls)

     Called by electrons:
     c_bands      :  13187.16s CPU  13320.63s WALL (     198 calls)
     sum_band     :   1162.20s CPU   1174.34s WALL (     198 calls)
     v_of_rho     :      4.18s CPU      4.91s WALL (     205 calls)
     newd         :     11.10s CPU     12.89s WALL (     205 calls)
     PAW_pot      :     48.83s CPU     49.18s WALL (     213 calls)
     mix_rho      :      0.73s CPU      0.85s WALL (     198 calls)

     Called by c_bands:
     init_us_2    :     62.34s CPU     63.01s WALL (   20700 calls)
     init_us_2:cp :     62.21s CPU     62.96s WALL (   20700 calls)
     cegterg      :  12731.69s CPU  12859.79s WALL (   10055 calls)

     Called by *egterg:
     cdiaghg      :   1384.70s CPU   1405.19s WALL (   53809 calls)
     h_psi        :   7432.07s CPU   7506.91s WALL (   54459 calls)
     s_psi        :    937.41s CPU    941.99s WALL (   54459 calls)
     g_psi        :     17.72s CPU     17.92s WALL (   44354 calls)

     Called by h_psi:
     h_psi:calbec :   1039.39s CPU   1045.89s WALL (   54459 calls)
     vloc_psi     :   5355.46s CPU   5413.42s WALL (   54459 calls)
     add_vuspsi   :   1010.92s CPU   1015.91s WALL (   54459 calls)

     General routines
     calbec       :   1473.88s CPU   1482.92s WALL (   66559 calls)
     fft          :      4.55s CPU      5.63s WALL (    2364 calls)
     ffts         :      0.24s CPU      0.28s WALL (     198 calls)
     fftw         :   5830.80s CPU   5889.34s WALL (10870208 calls)
 
     Parallel routines
 
     PWSCF        :      4h 2m CPU      4h 5m WALL

 
   This run was terminated on:  21:54:10  14Feb2024            

=------------------------------------------------------------------------------=
   JOB DONE.
=------------------------------------------------------------------------------=
