MPI startup(): Warning: I_MPI_PMI_LIBRARY will be ignored since the hydra process manager was found
MPI startup(): Warning: I_MPI_PMI_LIBRARY will be ignored since the hydra process manager was found
MPI startup(): Warning: I_MPI_PMI_LIBRARY will be ignored since the hydra process manager was found
MPI startup(): Warning: I_MPI_PMI_LIBRARY will be ignored since the hydra process manager was found
MPI startup(): Warning: I_MPI_PMI_LIBRARY will be ignored since the hydra process manager was found
MPI startup(): Warning: I_MPI_PMI_LIBRARY will be ignored since the hydra process manager was found
MPI startup(): Warning: I_MPI_PMI_LIBRARY will be ignored since the hydra process manager was found
MPI startup(): Warning: I_MPI_PMI_LIBRARY will be ignored since the hydra process manager was found
MPI startup(): Warning: I_MPI_PMI_LIBRARY will be ignored since the hydra process manager was found
MPI startup(): Warning: I_MPI_PMI_LIBRARY will be ignored since the hydra process manager was found

     Program PWSCF v.7.0 starts on  3Dec2023 at  8:50:16 

     This program is part of the open-source Quantum ESPRESSO suite
     for quantum simulation of materials; please cite
         "P. Giannozzi et al., J. Phys.:Condens. Matter 21 395502 (2009);
         "P. Giannozzi et al., J. Phys.:Condens. Matter 29 465901 (2017);
         "P. Giannozzi et al., J. Chem. Phys. 152 154105 (2020);
          URL http://www.quantum-espresso.org", 
     in publications or presentations arising from this work. More details at
     http://www.quantum-espresso.org/quote

     Parallel version (MPI), running on    10 processors

     MPI processes distributed on     1 nodes
     K-points division:     npool     =       2
     R & G space division:  proc/nbgrp/npool/nimage =       5
     78014 MiB available memory on the printing compute node when the environment starts
 
     Reading input from elasticFCC0.in
Warning: card &CELL ignored
Warning: card / ignored

     Current dimensions of program PWSCF are:
     Max number of different atomic species (ntypx) = 10
     Max number of k-points (npk) =  40000
     Max angular momentum in pseudopotentials (lmaxx) =  4
     file Au.pbe-n-kjpaw_psl.1.0.0.UPF: wavefunction(s)  6S 5D renormalized

     Subspace diagonalization in iterative solution of the eigenvalue problem:
     one sub-group per band group will be used
     scalapack distributed-memory algorithm (size of sub-group:  2*  2 procs)

 
     Parallelization info
     --------------------
     sticks:   dense  smooth     PW     G-vecs:    dense   smooth      PW
     Min         589     205     60                24717     5067     828
     Max         589     207     61                24719     5067     831
     Sum        2945    1027    303               123591    25335    4151
 
     Using Slab Decomposition
 


     bravais-lattice index     =            0
     lattice parameter (alat)  =       8.2544  a.u.
     unit-cell volume          =     528.9746 (a.u.)^3
     number of atoms/cell      =            4
     number of atomic types    =            1
     number of electrons       =        44.00
     number of Kohn-Sham states=           26
     kinetic-energy cutoff     =      50.0000  Ry
     charge density cutoff     =     576.0000  Ry
     scf convergence threshold =      1.0E-06
     mixing beta               =       0.7000
     number of iterations used =            8  plain     mixing
     Exchange-correlation= SLA  PW   PBX  PBC
                           (   1   4   3   4   0   0   0)

     celldm(1)=   8.254363  celldm(2)=   0.000000  celldm(3)=   0.000000
     celldm(4)=   0.000000  celldm(5)=   0.000000  celldm(6)=   0.000000

     crystal axes: (cart. coord. in units of alat)
               a(1) = (   1.000000   0.000000   0.000000 )  
               a(2) = (   0.000000   0.941234   0.000000 )  
               a(3) = (   0.000000   0.000000   0.999278 )  

     reciprocal axes: (cart. coord. in units 2 pi/alat)
               b(1) = (  1.000000  0.000000  0.000000 )  
               b(2) = (  0.000000  1.062435  0.000000 )  
               b(3) = (  0.000000  0.000000  1.000723 )  


     PseudoPot. # 1 for Au read from file:
     ./Au.pbe-n-kjpaw_psl.1.0.0.UPF
     MD5 check sum: 4db85c736373c707a97ce4c36c2a9d23
     Pseudo is Projector augmented-wave + core cor, Zval = 11.0
     Generated using &quot;atomic&quot; code by A. Dal Corso  v.6.3
     Shape of augmentation charge: PSQ
     Using radial grid of 1279 points,  6 beta functions with: 
                l(1) =   0
                l(2) =   0
                l(3) =   1
                l(4) =   1
                l(5) =   2
                l(6) =   2
     Q(r) pseudized with 0 coefficients 


     atomic species   valence    mass     pseudopotential
        Au            11.00   196.96657     Au( 1.00)

     No symmetry found



   Cartesian axes

     site n.     atom                  positions (alat units)
         1           Au  tau(   1) = (   0.0000000   0.0000000   0.0000000  )
         2           Au  tau(   2) = (   0.0000000   0.4765816   0.4765816  )
         3           Au  tau(   3) = (   0.4765816   0.0000000   0.4765816  )
         4           Au  tau(   4) = (   0.4765816   0.4765816   0.0000000  )

     number of k points=   260  Gaussian smearing, width (Ry)=  0.0020

     Number of k-points >= 100: set verbosity='high' to print them.

     Dense  grid:   123591 G-vectors     FFT dimensions: (  64,  60,  64)

     Smooth grid:    25335 G-vectors     FFT dimensions: (  40,  36,  40)

     Estimated max dynamical RAM per process >      86.14 MB

     Estimated total dynamical RAM >     831.18 MB

     Initial potential from superposition of free atoms

     starting charge      43.9996, renormalised to      44.0000
     Starting wfcs are   36 randomized atomic wfcs
     Checking if some PAW data can be deallocated... 

     total cpu time spent up to now is        2.2 secs

     Self-consistent Calculation

     iteration #  1     ecut=    50.00 Ry     beta= 0.70
     Davidson diagonalization with overlap
     ethr =  1.00E-02,  avg # of iterations =  2.9

     Threshold (ethr) on eigenvalues was too large:
     Diagonalizing with lowered threshold

     Davidson diagonalization with overlap
     ethr =  2.98E-04,  avg # of iterations =  3.9

     total cpu time spent up to now is        9.9 secs

     total energy              =   -3100.46957370 Ry
     estimated scf accuracy    <       0.17999541 Ry

     iteration #  2     ecut=    50.00 Ry     beta= 0.70
     Davidson diagonalization with overlap
     ethr =  4.09E-04,  avg # of iterations =  3.3

     total cpu time spent up to now is       14.2 secs

     total energy              =   -3100.52962098 Ry
     estimated scf accuracy    <       0.02315748 Ry

     iteration #  3     ecut=    50.00 Ry     beta= 0.70
     Davidson diagonalization with overlap
     ethr =  5.26E-05,  avg # of iterations =  4.3

     total cpu time spent up to now is       18.5 secs

     total energy              =   -3100.53432884 Ry
     estimated scf accuracy    <       0.00171627 Ry

     iteration #  4     ecut=    50.00 Ry     beta= 0.70
     Davidson diagonalization with overlap
     c_bands:  1 eigenvalues not converged
     c_bands:  1 eigenvalues not converged
     ethr =  3.90E-06,  avg # of iterations =  6.4

     total cpu time spent up to now is       24.4 secs

     total energy              =   -3100.53558882 Ry
     estimated scf accuracy    <       0.00043059 Ry

     iteration #  5     ecut=    50.00 Ry     beta= 0.70
     Davidson diagonalization with overlap
     c_bands:  1 eigenvalues not converged
     ethr =  9.79E-07,  avg # of iterations =  3.7

     total cpu time spent up to now is       28.9 secs

     total energy              =   -3100.53560650 Ry
     estimated scf accuracy    <       0.00058608 Ry

     iteration #  6     ecut=    50.00 Ry     beta= 0.70
     Davidson diagonalization with overlap
     ethr =  9.79E-07,  avg # of iterations =  1.8

     total cpu time spent up to now is       32.0 secs

     total energy              =   -3100.53559266 Ry
     estimated scf accuracy    <       0.00011139 Ry

     iteration #  7     ecut=    50.00 Ry     beta= 0.70
     Davidson diagonalization with overlap
     ethr =  2.53E-07,  avg # of iterations =  4.3

     total cpu time spent up to now is       36.7 secs

     total energy              =   -3100.53564477 Ry
     estimated scf accuracy    <       0.00000153 Ry

     iteration #  8     ecut=    50.00 Ry     beta= 0.70
     Davidson diagonalization with overlap
     c_bands:  1 eigenvalues not converged
     ethr =  3.49E-09,  avg # of iterations = 11.1

     total cpu time spent up to now is       48.3 secs

     total energy              =   -3100.53565012 Ry
     estimated scf accuracy    <       0.00001621 Ry

     iteration #  9     ecut=    50.00 Ry     beta= 0.70
     Davidson diagonalization with overlap
     ethr =  3.49E-09,  avg # of iterations =  2.1

     total cpu time spent up to now is       52.2 secs

     total energy              =   -3100.53564849 Ry
     estimated scf accuracy    <       0.00000582 Ry

     iteration # 10     ecut=    50.00 Ry     beta= 0.70
     Davidson diagonalization with overlap
     ethr =  3.49E-09,  avg # of iterations =  3.4

     total cpu time spent up to now is       56.6 secs

     total energy              =   -3100.53564866 Ry
     estimated scf accuracy    <       0.00000102 Ry

     iteration # 11     ecut=    50.00 Ry     beta= 0.70
     Davidson diagonalization with overlap
     ethr =  2.31E-09,  avg # of iterations =  3.4

     total cpu time spent up to now is       61.1 secs

     End of self-consistent calculation

     Number of k-points >= 100: set verbosity='high' to print the bands.

     the Fermi energy is    12.8883 ev

!    total energy              =   -3100.53564903 Ry

     total all-electron energy =   -152095.920013 Ry
     estimated scf accuracy    <       0.00000002 Ry
     smearing contrib. (-TS)   =      -0.00002016 Ry
     internal energy E=F+TS    =   -3100.53562887 Ry

     The total energy is F=E-TS. E is the sum of the following terms:
     one-electron contribution =      34.90924118 Ry
     hartree contribution      =      36.42295719 Ry
     xc contribution           =    -128.08842249 Ry
     ewald contribution        =    -273.75762563 Ry
     one-center paw contrib.   =   -2770.02177911 Ry

     convergence has been achieved in  11 iterations

     Forces acting on atoms (cartesian axes, Ry/au):

     atom    1 type  1   force =    -0.01544290    0.00461828   -0.01525721
     atom    2 type  1   force =    -0.01545447   -0.00461747    0.01526071
     atom    3 type  1   force =     0.01544828    0.00461728    0.01526116
     atom    4 type  1   force =     0.01544909   -0.00461809   -0.01526466

     Total force =     0.044402     Total SCF correction =     0.000244

     Writing all to output data dir ./pwscf.save/
 
     init_run     :      1.68s CPU      1.84s WALL (       1 calls)
     electrons    :     57.38s CPU     58.98s WALL (       1 calls)
     forces       :      0.44s CPU      0.49s WALL (       1 calls)

     Called by init_run:
     wfcinit      :      1.22s CPU      1.26s WALL (       1 calls)
     potinit      :      0.14s CPU      0.20s WALL (       1 calls)
     hinit0       :      0.19s CPU      0.25s WALL (       1 calls)

     Called by electrons:
     c_bands      :     51.02s CPU     51.76s WALL (      12 calls)
     sum_band     :      5.10s CPU      5.32s WALL (      12 calls)
     v_of_rho     :      0.28s CPU      0.57s WALL (      12 calls)
     newd         :      0.32s CPU      0.42s WALL (      12 calls)
     PAW_pot      :      0.69s CPU      0.73s WALL (      12 calls)
     mix_rho      :      0.02s CPU      0.02s WALL (      12 calls)

     Called by c_bands:
     init_us_2    :      0.51s CPU      0.51s WALL (    3380 calls)
     init_us_2:cp :      0.50s CPU      0.51s WALL (    3380 calls)
     cegterg      :     44.28s CPU     44.98s WALL (    1560 calls)

     Called by *egterg:
     cdiaghg      :      6.69s CPU      6.78s WALL (    7979 calls)
     h_psi        :     28.82s CPU     29.35s WALL (    8239 calls)
     s_psi        :      1.82s CPU      1.84s WALL (    8239 calls)
     g_psi        :      0.20s CPU      0.20s WALL (    6549 calls)

     Called by h_psi:
     h_psi:calbec :      2.25s CPU      2.29s WALL (    8239 calls)
     vloc_psi     :     24.33s CPU     24.79s WALL (    8239 calls)
     add_vuspsi   :      2.07s CPU      2.10s WALL (    8239 calls)

     General routines
     calbec       :      2.86s CPU      2.91s WALL (   10319 calls)
     fft          :      0.23s CPU      0.81s WALL (     166 calls)
     ffts         :      0.01s CPU      0.03s WALL (      24 calls)
     fftw         :     25.65s CPU     26.14s WALL (  330348 calls)
     interpolate  :      0.05s CPU      0.25s WALL (      12 calls)
 
     Parallel routines
 
     PWSCF        :   1m 0.34s CPU   1m 3.80s WALL

 
   This run was terminated on:   8:51:20   3Dec2023            

=------------------------------------------------------------------------------=
   JOB DONE.
=------------------------------------------------------------------------------=
