MPI startup(): Warning: I_MPI_PMI_LIBRARY will be ignored since the hydra process manager was found
MPI startup(): Warning: I_MPI_PMI_LIBRARY will be ignored since the hydra process manager was found
MPI startup(): Warning: I_MPI_PMI_LIBRARY will be ignored since the hydra process manager was found
MPI startup(): Warning: I_MPI_PMI_LIBRARY will be ignored since the hydra process manager was found
MPI startup(): Warning: I_MPI_PMI_LIBRARY will be ignored since the hydra process manager was found
MPI startup(): Warning: I_MPI_PMI_LIBRARY will be ignored since the hydra process manager was found
MPI startup(): Warning: I_MPI_PMI_LIBRARY will be ignored since the hydra process manager was found
MPI startup(): Warning: I_MPI_PMI_LIBRARY will be ignored since the hydra process manager was found
MPI startup(): Warning: I_MPI_PMI_LIBRARY will be ignored since the hydra process manager was found
MPI startup(): Warning: I_MPI_PMI_LIBRARY will be ignored since the hydra process manager was found

     Program PWSCF v.7.0 starts on  3Dec2023 at  9: 3:56 

     This program is part of the open-source Quantum ESPRESSO suite
     for quantum simulation of materials; please cite
         "P. Giannozzi et al., J. Phys.:Condens. Matter 21 395502 (2009);
         "P. Giannozzi et al., J. Phys.:Condens. Matter 29 465901 (2017);
         "P. Giannozzi et al., J. Chem. Phys. 152 154105 (2020);
          URL http://www.quantum-espresso.org", 
     in publications or presentations arising from this work. More details at
     http://www.quantum-espresso.org/quote

     Parallel version (MPI), running on    10 processors

     MPI processes distributed on     1 nodes
     K-points division:     npool     =       2
     R & G space division:  proc/nbgrp/npool/nimage =       5
     87208 MiB available memory on the printing compute node when the environment starts
 
     Reading input from elasticFCC14.in
Warning: card &CELL ignored
Warning: card / ignored

     Current dimensions of program PWSCF are:
     Max number of different atomic species (ntypx) = 10
     Max number of k-points (npk) =  40000
     Max angular momentum in pseudopotentials (lmaxx) =  4
     file Au.pbe-n-kjpaw_psl.1.0.0.UPF: wavefunction(s)  6S 5D renormalized

     Subspace diagonalization in iterative solution of the eigenvalue problem:
     one sub-group per band group will be used
     scalapack distributed-memory algorithm (size of sub-group:  2*  2 procs)

 
     Parallelization info
     --------------------
     sticks:   dense  smooth     PW     G-vecs:    dense   smooth      PW
     Min         594     205     61                22998     4709     775
     Max         595     206     62                23000     4711     776
     Sum        2971    1027    307               114993    23549    3877
 
     Using Slab Decomposition
 


     bravais-lattice index     =            0
     lattice parameter (alat)  =       7.9029  a.u.
     unit-cell volume          =     492.6809 (a.u.)^3
     number of atoms/cell      =            4
     number of atomic types    =            1
     number of electrons       =        44.00
     number of Kohn-Sham states=           26
     kinetic-energy cutoff     =      50.0000  Ry
     charge density cutoff     =     576.0000  Ry
     scf convergence threshold =      1.0E-06
     mixing beta               =       0.7000
     number of iterations used =            8  plain     mixing
     Exchange-correlation= SLA  PW   PBX  PBC
                           (   1   4   3   4   0   0   0)

     celldm(1)=   7.902878  celldm(2)=   0.000000  celldm(3)=   0.000000
     celldm(4)=   0.000000  celldm(5)=   0.000000  celldm(6)=   0.000000

     crystal axes: (cart. coord. in units of alat)
               a(1) = (   1.000000   0.000000   0.000000 )  
               a(2) = (   0.000000   1.036272   0.000000 )  
               a(3) = (   0.000000   0.000000   0.963243 )  

     reciprocal axes: (cart. coord. in units 2 pi/alat)
               b(1) = (  1.000000  0.000000  0.000000 )  
               b(2) = (  0.000000  0.964997  0.000000 )  
               b(3) = (  0.000000  0.000000  1.038159 )  


     PseudoPot. # 1 for Au read from file:
     ./Au.pbe-n-kjpaw_psl.1.0.0.UPF
     MD5 check sum: 4db85c736373c707a97ce4c36c2a9d23
     Pseudo is Projector augmented-wave + core cor, Zval = 11.0
     Generated using &quot;atomic&quot; code by A. Dal Corso  v.6.3
     Shape of augmentation charge: PSQ
     Using radial grid of 1279 points,  6 beta functions with: 
                l(1) =   0
                l(2) =   0
                l(3) =   1
                l(4) =   1
                l(5) =   2
                l(6) =   2
     Q(r) pseudized with 0 coefficients 


     atomic species   valence    mass     pseudopotential
        Au            11.00   196.96657     Au( 1.00)

     No symmetry found



   Cartesian axes

     site n.     atom                  positions (alat units)
         1           Au  tau(   1) = (   0.0000000   0.0000000   0.0000000  )
         2           Au  tau(   2) = (   0.0000000   0.4977779   0.4977779  )
         3           Au  tau(   3) = (   0.4977779   0.0000000   0.4977779  )
         4           Au  tau(   4) = (   0.4977779   0.4977779   0.0000000  )

     number of k points=   260  Gaussian smearing, width (Ry)=  0.0020

     Number of k-points >= 100: set verbosity='high' to print them.

     Dense  grid:   114993 G-vectors     FFT dimensions: (  64,  64,  60)

     Smooth grid:    23549 G-vectors     FFT dimensions: (  36,  40,  36)

     Estimated max dynamical RAM per process >      80.51 MB

     Estimated total dynamical RAM >     777.07 MB

     Initial potential from superposition of free atoms

     starting charge      43.9996, renormalised to      44.0000
     Starting wfcs are   36 randomized atomic wfcs
     Checking if some PAW data can be deallocated... 

     total cpu time spent up to now is        2.1 secs

     Self-consistent Calculation

     iteration #  1     ecut=    50.00 Ry     beta= 0.70
     Davidson diagonalization with overlap
     ethr =  1.00E-02,  avg # of iterations =  3.0

     Threshold (ethr) on eigenvalues was too large:
     Diagonalizing with lowered threshold

     Davidson diagonalization with overlap
     ethr =  2.86E-04,  avg # of iterations =  4.3

     total cpu time spent up to now is       10.0 secs

     total energy              =   -3100.48473047 Ry
     estimated scf accuracy    <       0.18204148 Ry

     iteration #  2     ecut=    50.00 Ry     beta= 0.70
     Davidson diagonalization with overlap
     ethr =  4.14E-04,  avg # of iterations =  2.9

     total cpu time spent up to now is       14.1 secs

     total energy              =   -3100.54408598 Ry
     estimated scf accuracy    <       0.01920893 Ry

     iteration #  3     ecut=    50.00 Ry     beta= 0.70
     Davidson diagonalization with overlap
     ethr =  4.37E-05,  avg # of iterations =  4.8

     total cpu time spent up to now is       18.6 secs

     total energy              =   -3100.54853609 Ry
     estimated scf accuracy    <       0.00190379 Ry

     iteration #  4     ecut=    50.00 Ry     beta= 0.70
     Davidson diagonalization with overlap
     c_bands:  1 eigenvalues not converged
     c_bands:  1 eigenvalues not converged
     ethr =  4.33E-06,  avg # of iterations =  5.8

     total cpu time spent up to now is       23.8 secs

     total energy              =   -3100.54943447 Ry
     estimated scf accuracy    <       0.00104499 Ry

     iteration #  5     ecut=    50.00 Ry     beta= 0.70
     Davidson diagonalization with overlap
     ethr =  2.37E-06,  avg # of iterations =  3.4

     total cpu time spent up to now is       28.1 secs

     total energy              =   -3100.54958089 Ry
     estimated scf accuracy    <       0.00077526 Ry

     iteration #  6     ecut=    50.00 Ry     beta= 0.70
     Davidson diagonalization with overlap
     ethr =  1.76E-06,  avg # of iterations =  1.4

     total cpu time spent up to now is       30.9 secs

     total energy              =   -3100.54959523 Ry
     estimated scf accuracy    <       0.00012789 Ry

     iteration #  7     ecut=    50.00 Ry     beta= 0.70
     Davidson diagonalization with overlap
     ethr =  2.91E-07,  avg # of iterations =  4.2

     total cpu time spent up to now is       35.3 secs

     total energy              =   -3100.54964064 Ry
     estimated scf accuracy    <       0.00000542 Ry

     iteration #  8     ecut=    50.00 Ry     beta= 0.70
     Davidson diagonalization with overlap
     ethr =  1.23E-08,  avg # of iterations =  8.2

     total cpu time spent up to now is       43.8 secs

     total energy              =   -3100.54965226 Ry
     estimated scf accuracy    <       0.00001464 Ry

     iteration #  9     ecut=    50.00 Ry     beta= 0.70
     Davidson diagonalization with overlap
     ethr =  1.23E-08,  avg # of iterations =  2.0

     total cpu time spent up to now is       47.2 secs

     total energy              =   -3100.54965158 Ry
     estimated scf accuracy    <       0.00000319 Ry

     iteration # 10     ecut=    50.00 Ry     beta= 0.70
     Davidson diagonalization with overlap
     ethr =  7.25E-09,  avg # of iterations =  2.4

     total cpu time spent up to now is       51.0 secs

     End of self-consistent calculation

     Number of k-points >= 100: set verbosity='high' to print the bands.

     the Fermi energy is    14.3986 ev

!    total energy              =   -3100.54965228 Ry

     total all-electron energy =   -152095.934016 Ry
     estimated scf accuracy    <       0.00000012 Ry
     smearing contrib. (-TS)   =      -0.00004144 Ry
     internal energy E=F+TS    =   -3100.54961084 Ry

     The total energy is F=E-TS. E is the sum of the following terms:
     one-electron contribution =      44.86264757 Ry
     hartree contribution      =      33.49805523 Ry
     xc contribution           =    -128.27015563 Ry
     ewald contribution        =    -280.58432330 Ry
     one-center paw contrib.   =   -2770.05583471 Ry

     convergence has been achieved in  10 iterations

     Forces acting on atoms (cartesian axes, Ry/au):

     atom    1 type  1   force =    -0.00239014   -0.01946774    0.01793898
     atom    2 type  1   force =    -0.00239964    0.01947502   -0.01794338
     atom    3 type  1   force =     0.00239752   -0.01946675   -0.01793414
     atom    4 type  1   force =     0.00239226    0.01945948    0.01793854

     Total force =     0.053160     Total SCF correction =     0.000329

     Writing all to output data dir ./pwscf.save/
 
     init_run     :      1.66s CPU      1.78s WALL (       1 calls)
     electrons    :     48.09s CPU     48.96s WALL (       1 calls)
     forces       :      0.42s CPU      0.44s WALL (       1 calls)

     Called by init_run:
     wfcinit      :      1.18s CPU      1.21s WALL (       1 calls)
     potinit      :      0.14s CPU      0.19s WALL (       1 calls)
     hinit0       :      0.18s CPU      0.20s WALL (       1 calls)

     Called by electrons:
     c_bands      :     42.32s CPU     42.93s WALL (      11 calls)
     sum_band     :      4.65s CPU      4.75s WALL (      11 calls)
     v_of_rho     :      0.28s CPU      0.39s WALL (      11 calls)
     newd         :      0.25s CPU      0.27s WALL (      11 calls)
     PAW_pot      :      0.62s CPU      0.62s WALL (      11 calls)
     mix_rho      :      0.02s CPU      0.02s WALL (      11 calls)

     Called by c_bands:
     init_us_2    :      0.42s CPU      0.42s WALL (    3120 calls)
     init_us_2:cp :      0.41s CPU      0.42s WALL (    3120 calls)
     cegterg      :     35.51s CPU     36.06s WALL (    1430 calls)

     Called by *egterg:
     cdiaghg      :      5.54s CPU      5.61s WALL (    6794 calls)
     h_psi        :     23.60s CPU     24.03s WALL (    7054 calls)
     s_psi        :      1.29s CPU      1.31s WALL (    7054 calls)
     g_psi        :      0.15s CPU      0.15s WALL (    5494 calls)

     Called by h_psi:
     h_psi:calbec :      1.66s CPU      1.69s WALL (    7054 calls)
     vloc_psi     :     20.44s CPU     20.81s WALL (    7054 calls)
     add_vuspsi   :      1.39s CPU      1.41s WALL (    7054 calls)

     General routines
     calbec       :      2.18s CPU      2.23s WALL (    9004 calls)
     fft          :      0.25s CPU      0.44s WALL (     153 calls)
     ffts         :      0.02s CPU      0.04s WALL (      22 calls)
     fftw         :     21.85s CPU     22.25s WALL (  282574 calls)
     interpolate  :      0.04s CPU      0.10s WALL (      11 calls)
 
     Parallel routines
 
     PWSCF        :     51.08s CPU     54.72s WALL

 
   This run was terminated on:   9: 4:51   3Dec2023            

=------------------------------------------------------------------------------=
   JOB DONE.
=------------------------------------------------------------------------------=
