MPI startup(): Warning: I_MPI_PMI_LIBRARY will be ignored since the hydra process manager was found
MPI startup(): Warning: I_MPI_PMI_LIBRARY will be ignored since the hydra process manager was found
MPI startup(): Warning: I_MPI_PMI_LIBRARY will be ignored since the hydra process manager was found
MPI startup(): Warning: I_MPI_PMI_LIBRARY will be ignored since the hydra process manager was found
MPI startup(): Warning: I_MPI_PMI_LIBRARY will be ignored since the hydra process manager was found
MPI startup(): Warning: I_MPI_PMI_LIBRARY will be ignored since the hydra process manager was found
MPI startup(): Warning: I_MPI_PMI_LIBRARY will be ignored since the hydra process manager was found
MPI startup(): Warning: I_MPI_PMI_LIBRARY will be ignored since the hydra process manager was found
MPI startup(): Warning: I_MPI_PMI_LIBRARY will be ignored since the hydra process manager was found
MPI startup(): Warning: I_MPI_PMI_LIBRARY will be ignored since the hydra process manager was found

     Program PWSCF v.7.0 starts on  3Dec2023 at  8:58:55 

     This program is part of the open-source Quantum ESPRESSO suite
     for quantum simulation of materials; please cite
         "P. Giannozzi et al., J. Phys.:Condens. Matter 21 395502 (2009);
         "P. Giannozzi et al., J. Phys.:Condens. Matter 29 465901 (2017);
         "P. Giannozzi et al., J. Chem. Phys. 152 154105 (2020);
          URL http://www.quantum-espresso.org", 
     in publications or presentations arising from this work. More details at
     http://www.quantum-espresso.org/quote

     Parallel version (MPI), running on    10 processors

     MPI processes distributed on     1 nodes
     K-points division:     npool     =       2
     R & G space division:  proc/nbgrp/npool/nimage =       5
     77640 MiB available memory on the printing compute node when the environment starts
 
     Reading input from elasticFCC9.in
Warning: card &CELL ignored
Warning: card / ignored

     Current dimensions of program PWSCF are:
     Max number of different atomic species (ntypx) = 10
     Max number of k-points (npk) =  40000
     Max angular momentum in pseudopotentials (lmaxx) =  4
     file Au.pbe-n-kjpaw_psl.1.0.0.UPF: wavefunction(s)  6S 5D renormalized

     Subspace diagonalization in iterative solution of the eigenvalue problem:
     one sub-group per band group will be used
     scalapack distributed-memory algorithm (size of sub-group:  2*  2 procs)

 
     Parallelization info
     --------------------
     sticks:   dense  smooth     PW     G-vecs:    dense   smooth      PW
     Min         570     198     59                22484     4600     765
     Max         571     200     60                22487     4601     767
     Sum        2851     995    297               112425    23001    3831
 
     Using Slab Decomposition
 


     bravais-lattice index     =            0
     lattice parameter (alat)  =       7.7211  a.u.
     unit-cell volume          =     481.7071 (a.u.)^3
     number of atoms/cell      =            4
     number of atomic types    =            1
     number of electrons       =        44.00
     number of Kohn-Sham states=           26
     kinetic-energy cutoff     =      50.0000  Ry
     charge density cutoff     =     576.0000  Ry
     scf convergence threshold =      1.0E-06
     mixing beta               =       0.7000
     number of iterations used =            8  plain     mixing
     Exchange-correlation= SLA  PW   PBX  PBC
                           (   1   4   3   4   0   0   0)

     celldm(1)=   7.721130  celldm(2)=   0.000000  celldm(3)=   0.000000
     celldm(4)=   0.000000  celldm(5)=   0.000000  celldm(6)=   0.000000

     crystal axes: (cart. coord. in units of alat)
               a(1) = (   1.000000   0.000000   0.000000 )  
               a(2) = (   0.000000   1.040988   0.000000 )  
               a(3) = (   0.000000   0.000000   1.005298 )  

     reciprocal axes: (cart. coord. in units 2 pi/alat)
               b(1) = (  1.000000  0.000000  0.000000 )  
               b(2) = (  0.000000  0.960626  0.000000 )  
               b(3) = (  0.000000  0.000000  0.994730 )  


     PseudoPot. # 1 for Au read from file:
     ./Au.pbe-n-kjpaw_psl.1.0.0.UPF
     MD5 check sum: 4db85c736373c707a97ce4c36c2a9d23
     Pseudo is Projector augmented-wave + core cor, Zval = 11.0
     Generated using &quot;atomic&quot; code by A. Dal Corso  v.6.3
     Shape of augmentation charge: PSQ
     Using radial grid of 1279 points,  6 beta functions with: 
                l(1) =   0
                l(2) =   0
                l(3) =   1
                l(4) =   1
                l(5) =   2
                l(6) =   2
     Q(r) pseudized with 0 coefficients 


     atomic species   valence    mass     pseudopotential
        Au            11.00   196.96657     Au( 1.00)

     No symmetry found



   Cartesian axes

     site n.     atom                  positions (alat units)
         1           Au  tau(   1) = (   0.0000000   0.0000000   0.0000000  )
         2           Au  tau(   2) = (   0.0000000   0.5094951   0.5094951  )
         3           Au  tau(   3) = (   0.5094951   0.0000000   0.5094951  )
         4           Au  tau(   4) = (   0.5094951   0.5094951   0.0000000  )

     number of k points=   260  Gaussian smearing, width (Ry)=  0.0020

     Number of k-points >= 100: set verbosity='high' to print them.

     Dense  grid:   112425 G-vectors     FFT dimensions: (  60,  64,  60)

     Smooth grid:    23001 G-vectors     FFT dimensions: (  36,  40,  36)

     Estimated max dynamical RAM per process >      78.63 MB

     Estimated total dynamical RAM >     758.85 MB

     Initial potential from superposition of free atoms

     starting charge      43.9996, renormalised to      44.0000
     Starting wfcs are   36 randomized atomic wfcs
     Checking if some PAW data can be deallocated... 

     total cpu time spent up to now is        2.1 secs

     Self-consistent Calculation

     iteration #  1     ecut=    50.00 Ry     beta= 0.70
     Davidson diagonalization with overlap
     ethr =  1.00E-02,  avg # of iterations =  2.9

     Threshold (ethr) on eigenvalues was too large:
     Diagonalizing with lowered threshold

     Davidson diagonalization with overlap
     ethr =  2.80E-04,  avg # of iterations =  4.6

     total cpu time spent up to now is       10.1 secs

     total energy              =   -3100.48821612 Ry
     estimated scf accuracy    <       0.18337389 Ry

     iteration #  2     ecut=    50.00 Ry     beta= 0.70
     Davidson diagonalization with overlap
     ethr =  4.17E-04,  avg # of iterations =  2.8

     total cpu time spent up to now is       14.2 secs

     total energy              =   -3100.54763783 Ry
     estimated scf accuracy    <       0.01873550 Ry

     iteration #  3     ecut=    50.00 Ry     beta= 0.70
     Davidson diagonalization with overlap
     c_bands:  1 eigenvalues not converged
     ethr =  4.26E-05,  avg # of iterations =  4.6

     total cpu time spent up to now is       18.6 secs

     total energy              =   -3100.55205259 Ry
     estimated scf accuracy    <       0.00199283 Ry

     iteration #  4     ecut=    50.00 Ry     beta= 0.70
     Davidson diagonalization with overlap
     c_bands:  1 eigenvalues not converged
     ethr =  4.53E-06,  avg # of iterations =  5.9

     total cpu time spent up to now is       23.8 secs

     total energy              =   -3100.55302588 Ry
     estimated scf accuracy    <       0.00161545 Ry

     iteration #  5     ecut=    50.00 Ry     beta= 0.70
     Davidson diagonalization with overlap
     ethr =  3.67E-06,  avg # of iterations =  2.1

     total cpu time spent up to now is       27.5 secs

     total energy              =   -3100.55307464 Ry
     estimated scf accuracy    <       0.00112084 Ry

     iteration #  6     ecut=    50.00 Ry     beta= 0.70
     Davidson diagonalization with overlap
     ethr =  2.55E-06,  avg # of iterations =  1.4

     total cpu time spent up to now is       30.4 secs

     total energy              =   -3100.55311916 Ry
     estimated scf accuracy    <       0.00014723 Ry

     iteration #  7     ecut=    50.00 Ry     beta= 0.70
     Davidson diagonalization with overlap
     ethr =  3.35E-07,  avg # of iterations =  4.4

     total cpu time spent up to now is       34.9 secs

     total energy              =   -3100.55317645 Ry
     estimated scf accuracy    <       0.00000549 Ry

     iteration #  8     ecut=    50.00 Ry     beta= 0.70
     Davidson diagonalization with overlap
     ethr =  1.25E-08,  avg # of iterations =  8.9

     total cpu time spent up to now is       43.9 secs

     total energy              =   -3100.55319062 Ry
     estimated scf accuracy    <       0.00002082 Ry

     iteration #  9     ecut=    50.00 Ry     beta= 0.70
     Davidson diagonalization with overlap
     ethr =  1.25E-08,  avg # of iterations =  2.1

     total cpu time spent up to now is       47.5 secs

     total energy              =   -3100.55318998 Ry
     estimated scf accuracy    <       0.00000412 Ry

     iteration # 10     ecut=    50.00 Ry     beta= 0.70
     Davidson diagonalization with overlap
     ethr =  9.36E-09,  avg # of iterations =  2.6

     total cpu time spent up to now is       51.3 secs

     End of self-consistent calculation

     Number of k-points >= 100: set verbosity='high' to print the bands.

     the Fermi energy is    14.8625 ev

!    total energy              =   -3100.55319087 Ry

     total all-electron energy =   -152095.937555 Ry
     estimated scf accuracy    <       0.00000017 Ry
     smearing contrib. (-TS)   =      -0.00006414 Ry
     internal energy E=F+TS    =   -3100.55312673 Ry

     The total energy is F=E-TS. E is the sum of the following terms:
     one-electron contribution =      48.33038371 Ry
     hartree contribution      =      32.45448836 Ry
     xc contribution           =    -128.33067686 Ry
     ewald contribution        =    -282.94026603 Ry
     one-center paw contrib.   =   -2770.06705592 Ry

     convergence has been achieved in  10 iterations

     Forces acting on atoms (cartesian axes, Ry/au):

     atom    1 type  1   force =     0.01112296   -0.01181785    0.00796448
     atom    2 type  1   force =     0.01111581    0.01182121   -0.00795995
     atom    3 type  1   force =    -0.01112187   -0.01180877   -0.00795808
     atom    4 type  1   force =    -0.01111691    0.01180541    0.00795355

     Total force =     0.036141     Total SCF correction =     0.000323

     Writing all to output data dir ./pwscf.save/
 
     init_run     :      1.63s CPU      1.75s WALL (       1 calls)
     electrons    :     48.27s CPU     49.24s WALL (       1 calls)
     forces       :      0.41s CPU      0.43s WALL (       1 calls)

     Called by init_run:
     wfcinit      :      1.19s CPU      1.22s WALL (       1 calls)
     potinit      :      0.13s CPU      0.18s WALL (       1 calls)
     hinit0       :      0.16s CPU      0.18s WALL (       1 calls)

     Called by electrons:
     c_bands      :     42.59s CPU     43.30s WALL (      11 calls)
     sum_band     :      4.63s CPU      4.72s WALL (      11 calls)
     v_of_rho     :      0.22s CPU      0.33s WALL (      11 calls)
     newd         :      0.25s CPU      0.26s WALL (      11 calls)
     PAW_pot      :      0.62s CPU      0.62s WALL (      11 calls)
     mix_rho      :      0.02s CPU      0.02s WALL (      11 calls)

     Called by c_bands:
     init_us_2    :      0.42s CPU      0.42s WALL (    3120 calls)
     init_us_2:cp :      0.41s CPU      0.42s WALL (    3120 calls)
     cegterg      :     36.33s CPU     36.99s WALL (    1430 calls)

     Called by *egterg:
     cdiaghg      :      5.71s CPU      5.81s WALL (    6873 calls)
     h_psi        :     24.08s CPU     24.57s WALL (    7133 calls)
     s_psi        :      1.30s CPU      1.32s WALL (    7133 calls)
     g_psi        :      0.15s CPU      0.15s WALL (    5573 calls)

     Called by h_psi:
     h_psi:calbec :      1.74s CPU      1.77s WALL (    7133 calls)
     vloc_psi     :     20.78s CPU     21.21s WALL (    7133 calls)
     add_vuspsi   :      1.44s CPU      1.46s WALL (    7133 calls)

     General routines
     calbec       :      2.26s CPU      2.30s WALL (    9083 calls)
     fft          :      0.18s CPU      0.38s WALL (     153 calls)
     ffts         :      0.02s CPU      0.03s WALL (      22 calls)
     fftw         :     22.14s CPU     22.59s WALL (  288292 calls)
     interpolate  :      0.03s CPU      0.09s WALL (      11 calls)
 
     Parallel routines
 
     PWSCF        :     51.17s CPU     54.06s WALL

 
   This run was terminated on:   8:59:49   3Dec2023            

=------------------------------------------------------------------------------=
   JOB DONE.
=------------------------------------------------------------------------------=
