MPI startup(): Warning: I_MPI_PMI_LIBRARY will be ignored since the hydra process manager was found
MPI startup(): Warning: I_MPI_PMI_LIBRARY will be ignored since the hydra process manager was found
MPI startup(): Warning: I_MPI_PMI_LIBRARY will be ignored since the hydra process manager was found
MPI startup(): Warning: I_MPI_PMI_LIBRARY will be ignored since the hydra process manager was found
MPI startup(): Warning: I_MPI_PMI_LIBRARY will be ignored since the hydra process manager was found
MPI startup(): Warning: I_MPI_PMI_LIBRARY will be ignored since the hydra process manager was found
MPI startup(): Warning: I_MPI_PMI_LIBRARY will be ignored since the hydra process manager was found
MPI startup(): Warning: I_MPI_PMI_LIBRARY will be ignored since the hydra process manager was found
MPI startup(): Warning: I_MPI_PMI_LIBRARY will be ignored since the hydra process manager was found
MPI startup(): Warning: I_MPI_PMI_LIBRARY will be ignored since the hydra process manager was found

     Program PWSCF v.7.0 starts on  3Dec2023 at  9: 6:55 

     This program is part of the open-source Quantum ESPRESSO suite
     for quantum simulation of materials; please cite
         "P. Giannozzi et al., J. Phys.:Condens. Matter 21 395502 (2009);
         "P. Giannozzi et al., J. Phys.:Condens. Matter 29 465901 (2017);
         "P. Giannozzi et al., J. Chem. Phys. 152 154105 (2020);
          URL http://www.quantum-espresso.org", 
     in publications or presentations arising from this work. More details at
     http://www.quantum-espresso.org/quote

     Parallel version (MPI), running on    10 processors

     MPI processes distributed on     1 nodes
     K-points division:     npool     =       2
     R & G space division:  proc/nbgrp/npool/nimage =       5
     86146 MiB available memory on the printing compute node when the environment starts
 
     Reading input from elasticFCC17.in
Warning: card &CELL ignored
Warning: card / ignored

     Current dimensions of program PWSCF are:
     Max number of different atomic species (ntypx) = 10
     Max number of k-points (npk) =  40000
     Max angular momentum in pseudopotentials (lmaxx) =  4
     file Au.pbe-n-kjpaw_psl.1.0.0.UPF: wavefunction(s)  6S 5D renormalized

     Subspace diagonalization in iterative solution of the eigenvalue problem:
     one sub-group per band group will be used
     scalapack distributed-memory algorithm (size of sub-group:  2*  2 procs)

 
     Parallelization info
     --------------------
     sticks:   dense  smooth     PW     G-vecs:    dense   smooth      PW
     Min         600     208     62                23129     4732     778
     Max         601     209     64                23130     4734     779
     Sum        3003    1043    315               115647    23665    3893
 
     Using Slab Decomposition
 


     bravais-lattice index     =            0
     lattice parameter (alat)  =       8.2225  a.u.
     unit-cell volume          =     495.2556 (a.u.)^3
     number of atoms/cell      =            4
     number of atomic types    =            1
     number of electrons       =        44.00
     number of Kohn-Sham states=           26
     kinetic-energy cutoff     =      50.0000  Ry
     charge density cutoff     =     576.0000  Ry
     scf convergence threshold =      1.0E-06
     mixing beta               =       0.7000
     number of iterations used =            8  plain     mixing
     Exchange-correlation= SLA  PW   PBX  PBC
                           (   1   4   3   4   0   0   0)

     celldm(1)=   8.222505  celldm(2)=   0.000000  celldm(3)=   0.000000
     celldm(4)=   0.000000  celldm(5)=   0.000000  celldm(6)=   0.000000

     crystal axes: (cart. coord. in units of alat)
               a(1) = (   1.000000   0.000000   0.000000 )  
               a(2) = (   0.000000   0.967641   0.000000 )  
               a(3) = (   0.000000   0.000000   0.920668 )  

     reciprocal axes: (cart. coord. in units 2 pi/alat)
               b(1) = (  1.000000  0.000000  0.000000 )  
               b(2) = (  0.000000  1.033441  0.000000 )  
               b(3) = (  0.000000  0.000000  1.086168 )  


     PseudoPot. # 1 for Au read from file:
     ./Au.pbe-n-kjpaw_psl.1.0.0.UPF
     MD5 check sum: 4db85c736373c707a97ce4c36c2a9d23
     Pseudo is Projector augmented-wave + core cor, Zval = 11.0
     Generated using &quot;atomic&quot; code by A. Dal Corso  v.6.3
     Shape of augmentation charge: PSQ
     Using radial grid of 1279 points,  6 beta functions with: 
                l(1) =   0
                l(2) =   0
                l(3) =   1
                l(4) =   1
                l(5) =   2
                l(6) =   2
     Q(r) pseudized with 0 coefficients 


     atomic species   valence    mass     pseudopotential
        Au            11.00   196.96657     Au( 1.00)

     No symmetry found



   Cartesian axes

     site n.     atom                  positions (alat units)
         1           Au  tau(   1) = (   0.0000000   0.0000000   0.0000000  )
         2           Au  tau(   2) = (   0.0000000   0.4784282   0.4784282  )
         3           Au  tau(   3) = (   0.4784282   0.0000000   0.4784282  )
         4           Au  tau(   4) = (   0.4784282   0.4784282   0.0000000  )

     number of k points=   260  Gaussian smearing, width (Ry)=  0.0020

     Number of k-points >= 100: set verbosity='high' to print them.

     Dense  grid:   115647 G-vectors     FFT dimensions: (  64,  64,  60)

     Smooth grid:    23665 G-vectors     FFT dimensions: (  40,  36,  36)

     Estimated max dynamical RAM per process >      80.92 MB

     Estimated total dynamical RAM >     780.99 MB

     Initial potential from superposition of free atoms

     starting charge      43.9996, renormalised to      44.0000
     Starting wfcs are   36 randomized atomic wfcs
     Checking if some PAW data can be deallocated... 

     total cpu time spent up to now is        2.1 secs

     Self-consistent Calculation

     iteration #  1     ecut=    50.00 Ry     beta= 0.70
     Davidson diagonalization with overlap
     ethr =  1.00E-02,  avg # of iterations =  2.9

     Threshold (ethr) on eigenvalues was too large:
     Diagonalizing with lowered threshold

     Davidson diagonalization with overlap
     ethr =  2.87E-04,  avg # of iterations =  4.3

     total cpu time spent up to now is       10.1 secs

     total energy              =   -3100.48225408 Ry
     estimated scf accuracy    <       0.18251391 Ry

     iteration #  2     ecut=    50.00 Ry     beta= 0.70
     Davidson diagonalization with overlap
     ethr =  4.15E-04,  avg # of iterations =  3.0

     total cpu time spent up to now is       14.3 secs

     total energy              =   -3100.54189476 Ry
     estimated scf accuracy    <       0.01965170 Ry

     iteration #  3     ecut=    50.00 Ry     beta= 0.70
     Davidson diagonalization with overlap
     ethr =  4.47E-05,  avg # of iterations =  4.9

     total cpu time spent up to now is       18.8 secs

     total energy              =   -3100.54638357 Ry
     estimated scf accuracy    <       0.00179696 Ry

     iteration #  4     ecut=    50.00 Ry     beta= 0.70
     Davidson diagonalization with overlap
     c_bands:  1 eigenvalues not converged
     c_bands:  1 eigenvalues not converged
     c_bands:  1 eigenvalues not converged
     c_bands:  1 eigenvalues not converged
     ethr =  4.08E-06,  avg # of iterations =  6.1

     total cpu time spent up to now is       24.3 secs

     total energy              =   -3100.54741233 Ry
     estimated scf accuracy    <       0.00063090 Ry

     iteration #  5     ecut=    50.00 Ry     beta= 0.70
     Davidson diagonalization with overlap
     c_bands:  1 eigenvalues not converged
     ethr =  1.43E-06,  avg # of iterations =  3.9

     total cpu time spent up to now is       28.7 secs

     total energy              =   -3100.54745668 Ry
     estimated scf accuracy    <       0.00066141 Ry

     iteration #  6     ecut=    50.00 Ry     beta= 0.70
     Davidson diagonalization with overlap
     ethr =  1.43E-06,  avg # of iterations =  1.7

     total cpu time spent up to now is       31.7 secs

     total energy              =   -3100.54747428 Ry
     estimated scf accuracy    <       0.00010602 Ry

     iteration #  7     ecut=    50.00 Ry     beta= 0.70
     Davidson diagonalization with overlap
     ethr =  2.41E-07,  avg # of iterations =  4.3

     total cpu time spent up to now is       36.3 secs

     total energy              =   -3100.54751659 Ry
     estimated scf accuracy    <       0.00000314 Ry

     iteration #  8     ecut=    50.00 Ry     beta= 0.70
     Davidson diagonalization with overlap
     ethr =  7.15E-09,  avg # of iterations =  9.2

     total cpu time spent up to now is       46.0 secs

     total energy              =   -3100.54752566 Ry
     estimated scf accuracy    <       0.00001507 Ry

     iteration #  9     ecut=    50.00 Ry     beta= 0.70
     Davidson diagonalization with overlap
     ethr =  7.15E-09,  avg # of iterations =  2.0

     total cpu time spent up to now is       49.6 secs

     total energy              =   -3100.54752445 Ry
     estimated scf accuracy    <       0.00000387 Ry

     iteration # 10     ecut=    50.00 Ry     beta= 0.70
     Davidson diagonalization with overlap
     ethr =  7.15E-09,  avg # of iterations =  2.5

     total cpu time spent up to now is       53.5 secs

     End of self-consistent calculation

     Number of k-points >= 100: set verbosity='high' to print the bands.

     the Fermi energy is    14.2782 ev

!    total energy              =   -3100.54752528 Ry

     total all-electron energy =   -152095.931889 Ry
     estimated scf accuracy    <       0.00000011 Ry
     smearing contrib. (-TS)   =      -0.00004241 Ry
     internal energy E=F+TS    =   -3100.54748287 Ry

     The total energy is F=E-TS. E is the sum of the following terms:
     one-electron contribution =      43.96490546 Ry
     hartree contribution      =      33.78802299 Ry
     xc contribution           =    -128.25792697 Ry
     ewald contribution        =    -279.98860167 Ry
     one-center paw contrib.   =   -2770.05388268 Ry

     convergence has been achieved in  10 iterations

     Forces acting on atoms (cartesian axes, Ry/au):

     atom    1 type  1   force =    -0.02099518   -0.00579705    0.02044096
     atom    2 type  1   force =    -0.02099486    0.00579694   -0.02044618
     atom    3 type  1   force =     0.02099203   -0.00580189   -0.02044841
     atom    4 type  1   force =     0.02099802    0.00580199    0.02045363

     Total force =     0.059750     Total SCF correction =     0.000255

     Writing all to output data dir ./pwscf.save/
 
     init_run     :      1.72s CPU      1.84s WALL (       1 calls)
     electrons    :     50.48s CPU     51.45s WALL (       1 calls)
     forces       :      0.42s CPU      0.44s WALL (       1 calls)

     Called by init_run:
     wfcinit      :      1.23s CPU      1.27s WALL (       1 calls)
     potinit      :      0.15s CPU      0.20s WALL (       1 calls)
     hinit0       :      0.18s CPU      0.20s WALL (       1 calls)

     Called by electrons:
     c_bands      :     44.63s CPU     45.30s WALL (      11 calls)
     sum_band     :      4.74s CPU      4.85s WALL (      11 calls)
     v_of_rho     :      0.28s CPU      0.39s WALL (      11 calls)
     newd         :      0.24s CPU      0.26s WALL (      11 calls)
     PAW_pot      :      0.62s CPU      0.63s WALL (      11 calls)
     mix_rho      :      0.02s CPU      0.02s WALL (      11 calls)

     Called by c_bands:
     init_us_2    :      0.42s CPU      0.43s WALL (    3120 calls)
     init_us_2:cp :      0.42s CPU      0.42s WALL (    3120 calls)
     cegterg      :     37.49s CPU     38.11s WALL (    1430 calls)

     Called by *egterg:
     cdiaghg      :      5.80s CPU      5.88s WALL (    7131 calls)
     h_psi        :     25.04s CPU     25.52s WALL (    7391 calls)
     s_psi        :      1.37s CPU      1.39s WALL (    7391 calls)
     g_psi        :      0.16s CPU      0.16s WALL (    5831 calls)

     Called by h_psi:
     h_psi:calbec :      1.65s CPU      1.68s WALL (    7391 calls)
     vloc_psi     :     21.83s CPU     22.26s WALL (    7391 calls)
     add_vuspsi   :      1.43s CPU      1.46s WALL (    7391 calls)

     General routines
     calbec       :      2.17s CPU      2.21s WALL (    9341 calls)
     fft          :      0.23s CPU      0.43s WALL (     153 calls)
     ffts         :      0.01s CPU      0.04s WALL (      22 calls)
     fftw         :     23.28s CPU     23.73s WALL (  291876 calls)
     interpolate  :      0.03s CPU      0.10s WALL (      11 calls)
 
     Parallel routines
 
     PWSCF        :     53.46s CPU     56.53s WALL

 
   This run was terminated on:   9: 7:51   3Dec2023            

=------------------------------------------------------------------------------=
   JOB DONE.
=------------------------------------------------------------------------------=
