MPI startup(): Warning: I_MPI_PMI_LIBRARY will be ignored since the hydra process manager was found
MPI startup(): Warning: I_MPI_PMI_LIBRARY will be ignored since the hydra process manager was found
MPI startup(): Warning: I_MPI_PMI_LIBRARY will be ignored since the hydra process manager was found
MPI startup(): Warning: I_MPI_PMI_LIBRARY will be ignored since the hydra process manager was found
MPI startup(): Warning: I_MPI_PMI_LIBRARY will be ignored since the hydra process manager was found
MPI startup(): Warning: I_MPI_PMI_LIBRARY will be ignored since the hydra process manager was found
MPI startup(): Warning: I_MPI_PMI_LIBRARY will be ignored since the hydra process manager was found
MPI startup(): Warning: I_MPI_PMI_LIBRARY will be ignored since the hydra process manager was found
MPI startup(): Warning: I_MPI_PMI_LIBRARY will be ignored since the hydra process manager was found
MPI startup(): Warning: I_MPI_PMI_LIBRARY will be ignored since the hydra process manager was found

     Program PWSCF v.7.0 starts on  3Dec2023 at  8:59:53 

     This program is part of the open-source Quantum ESPRESSO suite
     for quantum simulation of materials; please cite
         "P. Giannozzi et al., J. Phys.:Condens. Matter 21 395502 (2009);
         "P. Giannozzi et al., J. Phys.:Condens. Matter 29 465901 (2017);
         "P. Giannozzi et al., J. Chem. Phys. 152 154105 (2020);
          URL http://www.quantum-espresso.org", 
     in publications or presentations arising from this work. More details at
     http://www.quantum-espresso.org/quote

     Parallel version (MPI), running on    10 processors

     MPI processes distributed on     1 nodes
     K-points division:     npool     =       2
     R & G space division:  proc/nbgrp/npool/nimage =       5
     87185 MiB available memory on the printing compute node when the environment starts
 
     Reading input from elasticFCC10.in
Warning: card &CELL ignored
Warning: card / ignored

     Current dimensions of program PWSCF are:
     Max number of different atomic species (ntypx) = 10
     Max number of k-points (npk) =  40000
     Max angular momentum in pseudopotentials (lmaxx) =  4
     file Au.pbe-n-kjpaw_psl.1.0.0.UPF: wavefunction(s)  6S 5D renormalized

     Subspace diagonalization in iterative solution of the eigenvalue problem:
     one sub-group per band group will be used
     scalapack distributed-memory algorithm (size of sub-group:  2*  2 procs)

 
     Parallelization info
     --------------------
     sticks:   dense  smooth     PW     G-vecs:    dense   smooth      PW
     Min         611     211     63                24563     5023     822
     Max         611     212     65                24563     5026     823
     Sum        3055    1057    319               122815    25123    4113
 
     Using Slab Decomposition
 


     bravais-lattice index     =            0
     lattice parameter (alat)  =       8.0994  a.u.
     unit-cell volume          =     526.1231 (a.u.)^3
     number of atoms/cell      =            4
     number of atomic types    =            1
     number of electrons       =        44.00
     number of Kohn-Sham states=           26
     kinetic-energy cutoff     =      50.0000  Ry
     charge density cutoff     =     576.0000  Ry
     scf convergence threshold =      1.0E-06
     mixing beta               =       0.7000
     number of iterations used =            8  plain     mixing
     Exchange-correlation= SLA  PW   PBX  PBC
                           (   1   4   3   4   0   0   0)

     celldm(1)=   8.099398  celldm(2)=   0.000000  celldm(3)=   0.000000
     celldm(4)=   0.000000  celldm(5)=   0.000000  celldm(6)=   0.000000

     crystal axes: (cart. coord. in units of alat)
               a(1) = (   1.000000   0.000000   0.000000 )  
               a(2) = (   0.000000   1.015594   0.000000 )  
               a(3) = (   0.000000   0.000000   0.975009 )  

     reciprocal axes: (cart. coord. in units 2 pi/alat)
               b(1) = (  1.000000  0.000000  0.000000 )  
               b(2) = (  0.000000  0.984645  0.000000 )  
               b(3) = (  0.000000  0.000000  1.025631 )  


     PseudoPot. # 1 for Au read from file:
     ./Au.pbe-n-kjpaw_psl.1.0.0.UPF
     MD5 check sum: 4db85c736373c707a97ce4c36c2a9d23
     Pseudo is Projector augmented-wave + core cor, Zval = 11.0
     Generated using &quot;atomic&quot; code by A. Dal Corso  v.6.3
     Shape of augmentation charge: PSQ
     Using radial grid of 1279 points,  6 beta functions with: 
                l(1) =   0
                l(2) =   0
                l(3) =   1
                l(4) =   1
                l(5) =   2
                l(6) =   2
     Q(r) pseudized with 0 coefficients 


     atomic species   valence    mass     pseudopotential
        Au            11.00   196.96657     Au( 1.00)

     No symmetry found



   Cartesian axes

     site n.     atom                  positions (alat units)
         1           Au  tau(   1) = (   0.0000000   0.0000000   0.0000000  )
         2           Au  tau(   2) = (   0.0000000   0.4857000   0.4857000  )
         3           Au  tau(   3) = (   0.4857000   0.0000000   0.4857000  )
         4           Au  tau(   4) = (   0.4857000   0.4857000   0.0000000  )

     number of k points=   260  Gaussian smearing, width (Ry)=  0.0020

     Number of k-points >= 100: set verbosity='high' to print them.

     Dense  grid:   122815 G-vectors     FFT dimensions: (  64,  64,  64)

     Smooth grid:    25123 G-vectors     FFT dimensions: (  40,  40,  36)

     Estimated max dynamical RAM per process >      85.91 MB

     Estimated total dynamical RAM >     829.08 MB

     Initial potential from superposition of free atoms

     starting charge      43.9996, renormalised to      44.0000
     Starting wfcs are   36 randomized atomic wfcs
     Checking if some PAW data can be deallocated... 

     total cpu time spent up to now is        2.7 secs

     Self-consistent Calculation

     iteration #  1     ecut=    50.00 Ry     beta= 0.70
     Davidson diagonalization with overlap
     ethr =  1.00E-02,  avg # of iterations =  2.9

     Threshold (ethr) on eigenvalues was too large:
     Diagonalizing with lowered threshold

     Davidson diagonalization with overlap
     ethr =  2.98E-04,  avg # of iterations =  3.8

     total cpu time spent up to now is       11.2 secs

     total energy              =   -3100.47389822 Ry
     estimated scf accuracy    <       0.18042135 Ry

     iteration #  2     ecut=    50.00 Ry     beta= 0.70
     Davidson diagonalization with overlap
     ethr =  4.10E-04,  avg # of iterations =  3.2

     total cpu time spent up to now is       15.9 secs

     total energy              =   -3100.53438572 Ry
     estimated scf accuracy    <       0.02270282 Ry

     iteration #  3     ecut=    50.00 Ry     beta= 0.70
     Davidson diagonalization with overlap
     ethr =  5.16E-05,  avg # of iterations =  4.3

     total cpu time spent up to now is       20.7 secs

     total energy              =   -3100.53889603 Ry
     estimated scf accuracy    <       0.00179486 Ry

     iteration #  4     ecut=    50.00 Ry     beta= 0.70
     Davidson diagonalization with overlap
     c_bands:  1 eigenvalues not converged
     c_bands:  1 eigenvalues not converged
     c_bands:  1 eigenvalues not converged
     c_bands:  1 eigenvalues not converged
     ethr =  4.08E-06,  avg # of iterations =  6.3

     total cpu time spent up to now is       27.0 secs

     total energy              =   -3100.54015210 Ry
     estimated scf accuracy    <       0.00071031 Ry

     iteration #  5     ecut=    50.00 Ry     beta= 0.70
     Davidson diagonalization with overlap
     ethr =  1.61E-06,  avg # of iterations =  3.5

     total cpu time spent up to now is       31.8 secs

     total energy              =   -3100.54017053 Ry
     estimated scf accuracy    <       0.00075876 Ry

     iteration #  6     ecut=    50.00 Ry     beta= 0.70
     Davidson diagonalization with overlap
     ethr =  1.61E-06,  avg # of iterations =  1.5

     total cpu time spent up to now is       35.1 secs

     total energy              =   -3100.54016675 Ry
     estimated scf accuracy    <       0.00011820 Ry

     iteration #  7     ecut=    50.00 Ry     beta= 0.70
     Davidson diagonalization with overlap
     ethr =  2.69E-07,  avg # of iterations =  4.7

     total cpu time spent up to now is       40.5 secs

     total energy              =   -3100.54023562 Ry
     estimated scf accuracy    <       0.00000540 Ry

     iteration #  8     ecut=    50.00 Ry     beta= 0.70
     Davidson diagonalization with overlap
     ethr =  1.23E-08,  avg # of iterations =  7.3

     total cpu time spent up to now is       49.2 secs

     total energy              =   -3100.54023987 Ry
     estimated scf accuracy    <       0.00001611 Ry

     iteration #  9     ecut=    50.00 Ry     beta= 0.70
     Davidson diagonalization with overlap
     ethr =  1.23E-08,  avg # of iterations =  2.0

     total cpu time spent up to now is       52.7 secs

     total energy              =   -3100.54023842 Ry
     estimated scf accuracy    <       0.00000566 Ry

     iteration # 10     ecut=    50.00 Ry     beta= 0.70
     Davidson diagonalization with overlap
     ethr =  1.23E-08,  avg # of iterations =  1.8

     total cpu time spent up to now is       56.1 secs

     total energy              =   -3100.54023832 Ry
     estimated scf accuracy    <       0.00000123 Ry

     iteration # 11     ecut=    50.00 Ry     beta= 0.70
     Davidson diagonalization with overlap
     ethr =  2.80E-09,  avg # of iterations =  4.9

     total cpu time spent up to now is       61.5 secs

     End of self-consistent calculation

     Number of k-points >= 100: set verbosity='high' to print the bands.

     the Fermi energy is    12.9673 ev

!    total energy              =   -3100.54023886 Ry

     total all-electron energy =   -152095.924603 Ry
     estimated scf accuracy    <       0.00000002 Ry
     smearing contrib. (-TS)   =      -0.00003656 Ry
     internal energy E=F+TS    =   -3100.54020230 Ry

     The total energy is F=E-TS. E is the sum of the following terms:
     one-electron contribution =      36.10312441 Ry
     hartree contribution      =      35.97889071 Ry
     xc contribution           =    -128.09399074 Ry
     ewald contribution        =    -274.50603409 Ry
     one-center paw contrib.   =   -2770.02219260 Ry

     convergence has been achieved in  11 iterations

     Forces acting on atoms (cartesian axes, Ry/au):

     atom    1 type  1   force =    -0.00983576   -0.01425498   -0.00132377
     atom    2 type  1   force =    -0.00982961    0.01425193    0.00132810
     atom    3 type  1   force =     0.00983113   -0.01425035    0.00132174
     atom    4 type  1   force =     0.00983425    0.01425340   -0.00132606

     Total force =     0.034732     Total SCF correction =     0.000085

     Writing all to output data dir ./pwscf.save/
 
     init_run     :      1.84s CPU      2.44s WALL (       1 calls)
     electrons    :     57.28s CPU     58.78s WALL (       1 calls)
     forces       :      0.47s CPU      0.51s WALL (       1 calls)

     Called by init_run:
     wfcinit      :      1.36s CPU      1.88s WALL (       1 calls)
     potinit      :      0.14s CPU      0.20s WALL (       1 calls)
     hinit0       :      0.20s CPU      0.21s WALL (       1 calls)

     Called by electrons:
     c_bands      :     50.10s CPU     50.82s WALL (      12 calls)
     sum_band     :      5.71s CPU      5.95s WALL (      12 calls)
     v_of_rho     :      0.29s CPU      0.57s WALL (      12 calls)
     newd         :      0.34s CPU      0.43s WALL (      12 calls)
     PAW_pot      :      0.86s CPU      0.90s WALL (      12 calls)
     mix_rho      :      0.02s CPU      0.02s WALL (      12 calls)

     Called by c_bands:
     init_us_2    :      0.49s CPU      0.50s WALL (    3380 calls)
     init_us_2:cp :      0.48s CPU      0.49s WALL (    3380 calls)
     cegterg      :     41.51s CPU     42.15s WALL (    1560 calls)

     Called by *egterg:
     cdiaghg      :      5.91s CPU      6.01s WALL (    7375 calls)
     h_psi        :     28.37s CPU     29.33s WALL (    7635 calls)
     s_psi        :      1.55s CPU      1.56s WALL (    7635 calls)
     g_psi        :      0.16s CPU      0.16s WALL (    5945 calls)

     Called by h_psi:
     h_psi:calbec :      1.85s CPU      1.88s WALL (    7635 calls)
     vloc_psi     :     24.73s CPU     25.64s WALL (    7635 calls)
     add_vuspsi   :      1.66s CPU      1.69s WALL (    7635 calls)

     General routines
     calbec       :      2.44s CPU      2.48s WALL (    9715 calls)
     fft          :      0.26s CPU      0.75s WALL (     166 calls)
     ffts         :      0.01s CPU      0.04s WALL (      24 calls)
     fftw         :     26.63s CPU     27.57s WALL (  298846 calls)
     interpolate  :      0.04s CPU      0.21s WALL (      12 calls)
 
     Parallel routines
 
     PWSCF        :   1m 0.52s CPU   1m 4.32s WALL

 
   This run was terminated on:   9: 0:57   3Dec2023            

=------------------------------------------------------------------------------=
   JOB DONE.
=------------------------------------------------------------------------------=
