MPI startup(): Warning: I_MPI_PMI_LIBRARY will be ignored since the hydra process manager was found
MPI startup(): Warning: I_MPI_PMI_LIBRARY will be ignored since the hydra process manager was found
MPI startup(): Warning: I_MPI_PMI_LIBRARY will be ignored since the hydra process manager was found
MPI startup(): Warning: I_MPI_PMI_LIBRARY will be ignored since the hydra process manager was found
MPI startup(): Warning: I_MPI_PMI_LIBRARY will be ignored since the hydra process manager was found
MPI startup(): Warning: I_MPI_PMI_LIBRARY will be ignored since the hydra process manager was found
MPI startup(): Warning: I_MPI_PMI_LIBRARY will be ignored since the hydra process manager was found
MPI startup(): Warning: I_MPI_PMI_LIBRARY will be ignored since the hydra process manager was found
MPI startup(): Warning: I_MPI_PMI_LIBRARY will be ignored since the hydra process manager was found
MPI startup(): Warning: I_MPI_PMI_LIBRARY will be ignored since the hydra process manager was found

     Program PWSCF v.7.0 starts on  3Dec2023 at  8:51:25 

     This program is part of the open-source Quantum ESPRESSO suite
     for quantum simulation of materials; please cite
         "P. Giannozzi et al., J. Phys.:Condens. Matter 21 395502 (2009);
         "P. Giannozzi et al., J. Phys.:Condens. Matter 29 465901 (2017);
         "P. Giannozzi et al., J. Chem. Phys. 152 154105 (2020);
          URL http://www.quantum-espresso.org", 
     in publications or presentations arising from this work. More details at
     http://www.quantum-espresso.org/quote

     Parallel version (MPI), running on    10 processors

     MPI processes distributed on     1 nodes
     K-points division:     npool     =       2
     R & G space division:  proc/nbgrp/npool/nimage =       5
     77839 MiB available memory on the printing compute node when the environment starts
 
     Reading input from elasticFCC1.in
Warning: card &CELL ignored
Warning: card / ignored

     Current dimensions of program PWSCF are:
     Max number of different atomic species (ntypx) = 10
     Max number of k-points (npk) =  40000
     Max angular momentum in pseudopotentials (lmaxx) =  4
     file Au.pbe-n-kjpaw_psl.1.0.0.UPF: wavefunction(s)  6S 5D renormalized

     Subspace diagonalization in iterative solution of the eigenvalue problem:
     one sub-group per band group will be used
     scalapack distributed-memory algorithm (size of sub-group:  2*  2 procs)

 
     Parallelization info
     --------------------
     sticks:   dense  smooth     PW     G-vecs:    dense   smooth      PW
     Min         573     198     58                22311     4574     754
     Max         575     200     59                22311     4575     759
     Sum        2873     993    293               111555    22871    3783
 
     Using Slab Decomposition
 


     bravais-lattice index     =            0
     lattice parameter (alat)  =       7.9778  a.u.
     unit-cell volume          =     477.8916 (a.u.)^3
     number of atoms/cell      =            4
     number of atomic types    =            1
     number of electrons       =        44.00
     number of Kohn-Sham states=           26
     kinetic-energy cutoff     =      50.0000  Ry
     charge density cutoff     =     576.0000  Ry
     scf convergence threshold =      1.0E-06
     mixing beta               =       0.7000
     number of iterations used =            8  plain     mixing
     Exchange-correlation= SLA  PW   PBX  PBC
                           (   1   4   3   4   0   0   0)

     celldm(1)=   7.977817  celldm(2)=   0.000000  celldm(3)=   0.000000
     celldm(4)=   0.000000  celldm(5)=   0.000000  celldm(6)=   0.000000

     crystal axes: (cart. coord. in units of alat)
               a(1) = (   1.000000   0.000000   0.000000 )  
               a(2) = (   0.000000   0.985364   0.000000 )  
               a(3) = (   0.000000   0.000000   0.955170 )  

     reciprocal axes: (cart. coord. in units 2 pi/alat)
               b(1) = (  1.000000  0.000000  0.000000 )  
               b(2) = (  0.000000  1.014854  0.000000 )  
               b(3) = (  0.000000  0.000000  1.046934 )  


     PseudoPot. # 1 for Au read from file:
     ./Au.pbe-n-kjpaw_psl.1.0.0.UPF
     MD5 check sum: 4db85c736373c707a97ce4c36c2a9d23
     Pseudo is Projector augmented-wave + core cor, Zval = 11.0
     Generated using &quot;atomic&quot; code by A. Dal Corso  v.6.3
     Shape of augmentation charge: PSQ
     Using radial grid of 1279 points,  6 beta functions with: 
                l(1) =   0
                l(2) =   0
                l(3) =   1
                l(4) =   1
                l(5) =   2
                l(6) =   2
     Q(r) pseudized with 0 coefficients 


     atomic species   valence    mass     pseudopotential
        Au            11.00   196.96657     Au( 1.00)

     No symmetry found



   Cartesian axes

     site n.     atom                  positions (alat units)
         1           Au  tau(   1) = (   0.0000000   0.0000000   0.0000000  )
         2           Au  tau(   2) = (   0.0000000   0.4931020   0.4931020  )
         3           Au  tau(   3) = (   0.4931020   0.0000000   0.4931020  )
         4           Au  tau(   4) = (   0.4931020   0.4931020   0.0000000  )

     number of k points=   260  Gaussian smearing, width (Ry)=  0.0020

     Number of k-points >= 100: set verbosity='high' to print them.

     Dense  grid:   111555 G-vectors     FFT dimensions: (  64,  64,  60)

     Smooth grid:    22871 G-vectors     FFT dimensions: (  36,  36,  36)

     Estimated max dynamical RAM per process >      78.24 MB

     Estimated total dynamical RAM >     755.16 MB

     Initial potential from superposition of free atoms

     starting charge      43.9996, renormalised to      44.0000
     Starting wfcs are   36 randomized atomic wfcs
     Checking if some PAW data can be deallocated... 

     total cpu time spent up to now is        2.0 secs

     Self-consistent Calculation

     iteration #  1     ecut=    50.00 Ry     beta= 0.70
     Davidson diagonalization with overlap
     ethr =  1.00E-02,  avg # of iterations =  2.9

     Threshold (ethr) on eigenvalues was too large:
     Diagonalizing with lowered threshold

     Davidson diagonalization with overlap
     ethr =  2.76E-04,  avg # of iterations =  4.7

     total cpu time spent up to now is        9.9 secs

     total energy              =   -3100.48747323 Ry
     estimated scf accuracy    <       0.18261987 Ry

     iteration #  2     ecut=    50.00 Ry     beta= 0.70
     Davidson diagonalization with overlap
     ethr =  4.15E-04,  avg # of iterations =  2.6

     total cpu time spent up to now is       13.7 secs

     total energy              =   -3100.54636665 Ry
     estimated scf accuracy    <       0.01814393 Ry

     iteration #  3     ecut=    50.00 Ry     beta= 0.70
     Davidson diagonalization with overlap
     ethr =  4.12E-05,  avg # of iterations =  4.7

     total cpu time spent up to now is       18.1 secs

     total energy              =   -3100.55076282 Ry
     estimated scf accuracy    <       0.00181928 Ry

     iteration #  4     ecut=    50.00 Ry     beta= 0.70
     Davidson diagonalization with overlap
     c_bands:  1 eigenvalues not converged
     c_bands:  1 eigenvalues not converged
     c_bands:  1 eigenvalues not converged
     ethr =  4.13E-06,  avg # of iterations =  5.8

     total cpu time spent up to now is       23.2 secs

     total energy              =   -3100.55180516 Ry
     estimated scf accuracy    <       0.00121587 Ry

     iteration #  5     ecut=    50.00 Ry     beta= 0.70
     Davidson diagonalization with overlap
     c_bands:  1 eigenvalues not converged
     c_bands:  1 eigenvalues not converged
     ethr =  2.76E-06,  avg # of iterations =  2.6

     total cpu time spent up to now is       27.0 secs

     total energy              =   -3100.55180276 Ry
     estimated scf accuracy    <       0.00094850 Ry

     iteration #  6     ecut=    50.00 Ry     beta= 0.70
     Davidson diagonalization with overlap
     ethr =  2.16E-06,  avg # of iterations =  1.6

     total cpu time spent up to now is       29.9 secs

     total energy              =   -3100.55182202 Ry
     estimated scf accuracy    <       0.00016648 Ry

     iteration #  7     ecut=    50.00 Ry     beta= 0.70
     Davidson diagonalization with overlap
     ethr =  3.78E-07,  avg # of iterations =  4.2

     total cpu time spent up to now is       34.1 secs

     total energy              =   -3100.55188013 Ry
     estimated scf accuracy    <       0.00000620 Ry

     iteration #  8     ecut=    50.00 Ry     beta= 0.70
     Davidson diagonalization with overlap
     ethr =  1.41E-08,  avg # of iterations =  8.2

     total cpu time spent up to now is       42.1 secs

     total energy              =   -3100.55189349 Ry
     estimated scf accuracy    <       0.00001467 Ry

     iteration #  9     ecut=    50.00 Ry     beta= 0.70
     Davidson diagonalization with overlap
     ethr =  1.41E-08,  avg # of iterations =  2.1

     total cpu time spent up to now is       45.5 secs

     total energy              =   -3100.55189350 Ry
     estimated scf accuracy    <       0.00000243 Ry

     iteration # 10     ecut=    50.00 Ry     beta= 0.70
     Davidson diagonalization with overlap
     ethr =  5.52E-09,  avg # of iterations =  3.6

     total cpu time spent up to now is       49.5 secs

     End of self-consistent calculation

     Number of k-points >= 100: set verbosity='high' to print the bands.

     the Fermi energy is    15.0173 ev

!    total energy              =   -3100.55189409 Ry

     total all-electron energy =   -152095.936258 Ry
     estimated scf accuracy    <       0.00000011 Ry
     smearing contrib. (-TS)   =      -0.00004074 Ry
     internal energy E=F+TS    =   -3100.55185335 Ry

     The total energy is F=E-TS. E is the sum of the following terms:
     one-electron contribution =      49.37106232 Ry
     hartree contribution      =      32.17747610 Ry
     xc contribution           =    -128.35492225 Ry
     ewald contribution        =    -283.67356532 Ry
     one-center paw contrib.   =   -2770.07190420 Ry

     convergence has been achieved in  10 iterations

     Forces acting on atoms (cartesian axes, Ry/au):

     atom    1 type  1   force =    -0.00828207    0.00052410    0.01989758
     atom    2 type  1   force =    -0.00827641   -0.00052291   -0.01989102
     atom    3 type  1   force =     0.00828014    0.00052422   -0.01989846
     atom    4 type  1   force =     0.00827833   -0.00052541    0.01989190

     Total force =     0.043110     Total SCF correction =     0.000157

     Writing all to output data dir ./pwscf.save/
 
     init_run     :      1.61s CPU      1.72s WALL (       1 calls)
     electrons    :     46.64s CPU     47.47s WALL (       1 calls)
     forces       :      0.42s CPU      0.43s WALL (       1 calls)

     Called by init_run:
     wfcinit      :      1.14s CPU      1.16s WALL (       1 calls)
     potinit      :      0.14s CPU      0.20s WALL (       1 calls)
     hinit0       :      0.17s CPU      0.18s WALL (       1 calls)

     Called by electrons:
     c_bands      :     41.13s CPU     41.70s WALL (      11 calls)
     sum_band     :      4.39s CPU      4.49s WALL (      11 calls)
     v_of_rho     :      0.28s CPU      0.39s WALL (      11 calls)
     newd         :      0.24s CPU      0.26s WALL (      11 calls)
     PAW_pot      :      0.62s CPU      0.63s WALL (      11 calls)
     mix_rho      :      0.02s CPU      0.02s WALL (      11 calls)

     Called by c_bands:
     init_us_2    :      0.42s CPU      0.43s WALL (    3120 calls)
     init_us_2:cp :      0.41s CPU      0.42s WALL (    3120 calls)
     cegterg      :     34.77s CPU     35.29s WALL (    1430 calls)

     Called by *egterg:
     cdiaghg      :      5.73s CPU      5.80s WALL (    6884 calls)
     h_psi        :     22.56s CPU     22.94s WALL (    7144 calls)
     s_psi        :      1.32s CPU      1.33s WALL (    7144 calls)
     g_psi        :      0.14s CPU      0.15s WALL (    5584 calls)

     Called by h_psi:
     h_psi:calbec :      1.77s CPU      1.80s WALL (    7144 calls)
     vloc_psi     :     19.21s CPU     19.53s WALL (    7144 calls)
     add_vuspsi   :      1.46s CPU      1.48s WALL (    7144 calls)

     General routines
     calbec       :      2.29s CPU      2.33s WALL (    9094 calls)
     fft          :      0.24s CPU      0.43s WALL (     153 calls)
     ffts         :      0.02s CPU      0.04s WALL (      22 calls)
     fftw         :     20.50s CPU     20.85s WALL (  283766 calls)
     interpolate  :      0.04s CPU      0.10s WALL (      11 calls)
 
     Parallel routines
 
     PWSCF        :     49.58s CPU     52.67s WALL

 
   This run was terminated on:   8:52:18   3Dec2023            

=------------------------------------------------------------------------------=
   JOB DONE.
=------------------------------------------------------------------------------=
