MPI startup(): Warning: I_MPI_PMI_LIBRARY will be ignored since the hydra process manager was found
MPI startup(): Warning: I_MPI_PMI_LIBRARY will be ignored since the hydra process manager was found
MPI startup(): Warning: I_MPI_PMI_LIBRARY will be ignored since the hydra process manager was found
MPI startup(): Warning: I_MPI_PMI_LIBRARY will be ignored since the hydra process manager was found
MPI startup(): Warning: I_MPI_PMI_LIBRARY will be ignored since the hydra process manager was found
MPI startup(): Warning: I_MPI_PMI_LIBRARY will be ignored since the hydra process manager was found
MPI startup(): Warning: I_MPI_PMI_LIBRARY will be ignored since the hydra process manager was found
MPI startup(): Warning: I_MPI_PMI_LIBRARY will be ignored since the hydra process manager was found
MPI startup(): Warning: I_MPI_PMI_LIBRARY will be ignored since the hydra process manager was found
MPI startup(): Warning: I_MPI_PMI_LIBRARY will be ignored since the hydra process manager was found

     Program PWSCF v.7.0 starts on  3Dec2023 at  8:54:54 

     This program is part of the open-source Quantum ESPRESSO suite
     for quantum simulation of materials; please cite
         "P. Giannozzi et al., J. Phys.:Condens. Matter 21 395502 (2009);
         "P. Giannozzi et al., J. Phys.:Condens. Matter 29 465901 (2017);
         "P. Giannozzi et al., J. Chem. Phys. 152 154105 (2020);
          URL http://www.quantum-espresso.org", 
     in publications or presentations arising from this work. More details at
     http://www.quantum-espresso.org/quote

     Parallel version (MPI), running on    10 processors

     MPI processes distributed on     1 nodes
     K-points division:     npool     =       2
     R & G space division:  proc/nbgrp/npool/nimage =       5
     77841 MiB available memory on the printing compute node when the environment starts
 
     Reading input from elasticFCC5.in
Warning: card &CELL ignored
Warning: card / ignored

     Current dimensions of program PWSCF are:
     Max number of different atomic species (ntypx) = 10
     Max number of k-points (npk) =  40000
     Max angular momentum in pseudopotentials (lmaxx) =  4
     file Au.pbe-n-kjpaw_psl.1.0.0.UPF: wavefunction(s)  6S 5D renormalized

     Subspace diagonalization in iterative solution of the eigenvalue problem:
     one sub-group per band group will be used
     scalapack distributed-memory algorithm (size of sub-group:  2*  2 procs)

 
     Parallelization info
     --------------------
     sticks:   dense  smooth     PW     G-vecs:    dense   smooth      PW
     Min         615     212     64                24671     5039     824
     Max         616     214     65                24672     5041     826
     Sum        3077    1065    321               123357    25199    4123
 
     Using Slab Decomposition
 


     bravais-lattice index     =            0
     lattice parameter (alat)  =       8.1327  a.u.
     unit-cell volume          =     528.1688 (a.u.)^3
     number of atoms/cell      =            4
     number of atomic types    =            1
     number of electrons       =        44.00
     number of Kohn-Sham states=           26
     kinetic-energy cutoff     =      50.0000  Ry
     charge density cutoff     =     576.0000  Ry
     scf convergence threshold =      1.0E-06
     mixing beta               =       0.7000
     number of iterations used =            8  plain     mixing
     Exchange-correlation= SLA  PW   PBX  PBC
                           (   1   4   3   4   0   0   0)

     celldm(1)=   8.132748  celldm(2)=   0.000000  celldm(3)=   0.000000
     celldm(4)=   0.000000  celldm(5)=   0.000000  celldm(6)=   0.000000

     crystal axes: (cart. coord. in units of alat)
               a(1) = (   1.000000   0.000000   0.000000 )  
               a(2) = (   0.000000   1.011224   0.000000 )  
               a(3) = (   0.000000   0.000000   0.970987 )  

     reciprocal axes: (cart. coord. in units 2 pi/alat)
               b(1) = (  1.000000  0.000000  0.000000 )  
               b(2) = (  0.000000  0.988901  0.000000 )  
               b(3) = (  0.000000  0.000000  1.029880 )  


     PseudoPot. # 1 for Au read from file:
     ./Au.pbe-n-kjpaw_psl.1.0.0.UPF
     MD5 check sum: 4db85c736373c707a97ce4c36c2a9d23
     Pseudo is Projector augmented-wave + core cor, Zval = 11.0
     Generated using &quot;atomic&quot; code by A. Dal Corso  v.6.3
     Shape of augmentation charge: PSQ
     Using radial grid of 1279 points,  6 beta functions with: 
                l(1) =   0
                l(2) =   0
                l(3) =   1
                l(4) =   1
                l(5) =   2
                l(6) =   2
     Q(r) pseudized with 0 coefficients 


     atomic species   valence    mass     pseudopotential
        Au            11.00   196.96657     Au( 1.00)

     No symmetry found



   Cartesian axes

     site n.     atom                  positions (alat units)
         1           Au  tau(   1) = (   0.0000000   0.0000000   0.0000000  )
         2           Au  tau(   2) = (   0.0000000   0.4837083   0.4837083  )
         3           Au  tau(   3) = (   0.4837083   0.0000000   0.4837083  )
         4           Au  tau(   4) = (   0.4837083   0.4837083   0.0000000  )

     number of k points=   260  Gaussian smearing, width (Ry)=  0.0020

     Number of k-points >= 100: set verbosity='high' to print them.

     Dense  grid:   123357 G-vectors     FFT dimensions: (  64,  64,  64)

     Smooth grid:    25199 G-vectors     FFT dimensions: (  40,  40,  36)

     Estimated max dynamical RAM per process >      86.22 MB

     Estimated total dynamical RAM >     832.11 MB

     Initial potential from superposition of free atoms

     starting charge      43.9996, renormalised to      44.0000
     Starting wfcs are   36 randomized atomic wfcs
     Checking if some PAW data can be deallocated... 

     total cpu time spent up to now is        2.7 secs

     Self-consistent Calculation

     iteration #  1     ecut=    50.00 Ry     beta= 0.70
     Davidson diagonalization with overlap
     ethr =  1.00E-02,  avg # of iterations =  2.9

     Threshold (ethr) on eigenvalues was too large:
     Diagonalizing with lowered threshold

     Davidson diagonalization with overlap
     ethr =  2.98E-04,  avg # of iterations =  3.8

     total cpu time spent up to now is       11.2 secs

     total energy              =   -3100.47236942 Ry
     estimated scf accuracy    <       0.18039749 Ry

     iteration #  2     ecut=    50.00 Ry     beta= 0.70
     Davidson diagonalization with overlap
     ethr =  4.10E-04,  avg # of iterations =  3.2

     total cpu time spent up to now is       15.9 secs

     total energy              =   -3100.53293212 Ry
     estimated scf accuracy    <       0.02296457 Ry

     iteration #  3     ecut=    50.00 Ry     beta= 0.70
     Davidson diagonalization with overlap
     ethr =  5.22E-05,  avg # of iterations =  4.4

     total cpu time spent up to now is       20.6 secs

     total energy              =   -3100.53749478 Ry
     estimated scf accuracy    <       0.00179337 Ry

     iteration #  4     ecut=    50.00 Ry     beta= 0.70
     Davidson diagonalization with overlap
     c_bands:  1 eigenvalues not converged
     c_bands:  1 eigenvalues not converged
     ethr =  4.08E-06,  avg # of iterations =  6.3

     total cpu time spent up to now is       27.0 secs

     total energy              =   -3100.53876651 Ry
     estimated scf accuracy    <       0.00065150 Ry

     iteration #  5     ecut=    50.00 Ry     beta= 0.70
     Davidson diagonalization with overlap
     ethr =  1.48E-06,  avg # of iterations =  3.6

     total cpu time spent up to now is       31.8 secs

     total energy              =   -3100.53878100 Ry
     estimated scf accuracy    <       0.00073506 Ry

     iteration #  6     ecut=    50.00 Ry     beta= 0.70
     Davidson diagonalization with overlap
     ethr =  1.48E-06,  avg # of iterations =  1.5

     total cpu time spent up to now is       35.1 secs

     total energy              =   -3100.53877274 Ry
     estimated scf accuracy    <       0.00011876 Ry

     iteration #  7     ecut=    50.00 Ry     beta= 0.70
     Davidson diagonalization with overlap
     ethr =  2.70E-07,  avg # of iterations =  4.6

     total cpu time spent up to now is       40.5 secs

     total energy              =   -3100.53884073 Ry
     estimated scf accuracy    <       0.00000621 Ry

     iteration #  8     ecut=    50.00 Ry     beta= 0.70
     Davidson diagonalization with overlap
     ethr =  1.41E-08,  avg # of iterations =  6.8

     total cpu time spent up to now is       48.7 secs

     total energy              =   -3100.53884592 Ry
     estimated scf accuracy    <       0.00001264 Ry

     iteration #  9     ecut=    50.00 Ry     beta= 0.70
     Davidson diagonalization with overlap
     ethr =  1.41E-08,  avg # of iterations =  1.4

     total cpu time spent up to now is       52.0 secs

     total energy              =   -3100.53884435 Ry
     estimated scf accuracy    <       0.00000555 Ry

     iteration # 10     ecut=    50.00 Ry     beta= 0.70
     Davidson diagonalization with overlap
     ethr =  1.26E-08,  avg # of iterations =  1.2

     total cpu time spent up to now is       55.2 secs

     total energy              =   -3100.53884395 Ry
     estimated scf accuracy    <       0.00000141 Ry

     iteration # 11     ecut=    50.00 Ry     beta= 0.70
     Davidson diagonalization with overlap
     ethr =  3.21E-09,  avg # of iterations =  3.9

     total cpu time spent up to now is       60.1 secs

     End of self-consistent calculation

     Number of k-points >= 100: set verbosity='high' to print the bands.

     the Fermi energy is    12.8870 ev

!    total energy              =   -3100.53884451 Ry

     total all-electron energy =   -152095.923209 Ry
     estimated scf accuracy    <          8.3E-09 Ry
     smearing contrib. (-TS)   =      -0.00002015 Ry
     internal energy E=F+TS    =   -3100.53882436 Ry

     The total energy is F=E-TS. E is the sum of the following terms:
     one-electron contribution =      35.53422508 Ry
     hartree contribution      =      36.15491456 Ry
     xc contribution           =    -128.08531911 Ry
     ewald contribution        =    -274.12195245 Ry
     one-center paw contrib.   =   -2770.02069245 Ry

     convergence has been achieved in  11 iterations

     Forces acting on atoms (cartesian axes, Ry/au):

     atom    1 type  1   force =    -0.01086793   -0.01391933   -0.00129407
     atom    2 type  1   force =    -0.01086792    0.01391836    0.00129775
     atom    3 type  1   force =     0.01086610   -0.01392165    0.00129203
     atom    4 type  1   force =     0.01086975    0.01392262   -0.00129571

     Total force =     0.035416     Total SCF correction =     0.000038

     Writing all to output data dir ./pwscf.save/
 
     init_run     :      2.15s CPU      2.39s WALL (       1 calls)
     electrons    :     55.98s CPU     57.48s WALL (       1 calls)
     forces       :      0.47s CPU      0.52s WALL (       1 calls)

     Called by init_run:
     wfcinit      :      1.71s CPU      1.86s WALL (       1 calls)
     potinit      :      0.14s CPU      0.20s WALL (       1 calls)
     hinit0       :      0.18s CPU      0.19s WALL (       1 calls)

     Called by electrons:
     c_bands      :     48.79s CPU     49.48s WALL (      12 calls)
     sum_band     :      5.78s CPU      6.01s WALL (      12 calls)
     v_of_rho     :      0.27s CPU      0.58s WALL (      12 calls)
     newd         :      0.30s CPU      0.39s WALL (      12 calls)
     PAW_pot      :      0.84s CPU      0.90s WALL (      12 calls)
     mix_rho      :      0.02s CPU      0.02s WALL (      12 calls)

     Called by c_bands:
     init_us_2    :      0.50s CPU      0.51s WALL (    3380 calls)
     init_us_2:cp :      0.49s CPU      0.50s WALL (    3380 calls)
     cegterg      :     40.63s CPU     41.25s WALL (    1560 calls)

     Called by *egterg:
     cdiaghg      :      5.80s CPU      5.89s WALL (    7081 calls)
     h_psi        :     28.17s CPU     28.76s WALL (    7341 calls)
     s_psi        :      1.58s CPU      1.60s WALL (    7341 calls)
     g_psi        :      0.16s CPU      0.16s WALL (    5651 calls)

     Called by h_psi:
     h_psi:calbec :      1.85s CPU      1.87s WALL (    7341 calls)
     vloc_psi     :     24.48s CPU     25.02s WALL (    7341 calls)
     add_vuspsi   :      1.70s CPU      1.73s WALL (    7341 calls)

     General routines
     calbec       :      2.46s CPU      2.49s WALL (    9421 calls)
     fft          :      0.26s CPU      0.78s WALL (     166 calls)
     ffts         :      0.01s CPU      0.03s WALL (      24 calls)
     fftw         :     26.36s CPU     26.94s WALL (  293392 calls)
     interpolate  :      0.05s CPU      0.22s WALL (      12 calls)
 
     Parallel routines
 
     PWSCF        :     59.55s CPU   1m 3.34s WALL

 
   This run was terminated on:   8:55:57   3Dec2023            

=------------------------------------------------------------------------------=
   JOB DONE.
=------------------------------------------------------------------------------=
