MPI startup(): Warning: I_MPI_PMI_LIBRARY will be ignored since the hydra process manager was found
MPI startup(): Warning: I_MPI_PMI_LIBRARY will be ignored since the hydra process manager was found
MPI startup(): Warning: I_MPI_PMI_LIBRARY will be ignored since the hydra process manager was found
MPI startup(): Warning: I_MPI_PMI_LIBRARY will be ignored since the hydra process manager was found
MPI startup(): Warning: I_MPI_PMI_LIBRARY will be ignored since the hydra process manager was found
MPI startup(): Warning: I_MPI_PMI_LIBRARY will be ignored since the hydra process manager was found
MPI startup(): Warning: I_MPI_PMI_LIBRARY will be ignored since the hydra process manager was found
MPI startup(): Warning: I_MPI_PMI_LIBRARY will be ignored since the hydra process manager was found
MPI startup(): Warning: I_MPI_PMI_LIBRARY will be ignored since the hydra process manager was found
MPI startup(): Warning: I_MPI_PMI_LIBRARY will be ignored since the hydra process manager was found

     Program PWSCF v.7.0 starts on  3Dec2023 at  9: 5:52 

     This program is part of the open-source Quantum ESPRESSO suite
     for quantum simulation of materials; please cite
         "P. Giannozzi et al., J. Phys.:Condens. Matter 21 395502 (2009);
         "P. Giannozzi et al., J. Phys.:Condens. Matter 29 465901 (2017);
         "P. Giannozzi et al., J. Chem. Phys. 152 154105 (2020);
          URL http://www.quantum-espresso.org", 
     in publications or presentations arising from this work. More details at
     http://www.quantum-espresso.org/quote

     Parallel version (MPI), running on    10 processors

     MPI processes distributed on     1 nodes
     K-points division:     npool     =       2
     R & G space division:  proc/nbgrp/npool/nimage =       5
     60199 MiB available memory on the printing compute node when the environment starts
 
     Reading input from elasticFCC16.in
Warning: card &CELL ignored
Warning: card / ignored

     Current dimensions of program PWSCF are:
     Max number of different atomic species (ntypx) = 10
     Max number of k-points (npk) =  40000
     Max angular momentum in pseudopotentials (lmaxx) =  4
     file Au.pbe-n-kjpaw_psl.1.0.0.UPF: wavefunction(s)  6S 5D renormalized

     Subspace diagonalization in iterative solution of the eigenvalue problem:
     one sub-group per band group will be used
     scalapack distributed-memory algorithm (size of sub-group:  2*  2 procs)

 
     Parallelization info
     --------------------
     sticks:   dense  smooth     PW     G-vecs:    dense   smooth      PW
     Min         596     207     61                24258     4964     802
     Max         597     208     62                24260     4965     803
     Sum        2983    1037    307               121295    24823    4013
 
     Using Slab Decomposition
 


     bravais-lattice index     =            0
     lattice parameter (alat)  =       8.1366  a.u.
     unit-cell volume          =     519.2829 (a.u.)^3
     number of atoms/cell      =            4
     number of atomic types    =            1
     number of electrons       =        44.00
     number of Kohn-Sham states=           26
     kinetic-energy cutoff     =      50.0000  Ry
     charge density cutoff     =     576.0000  Ry
     scf convergence threshold =      1.0E-06
     mixing beta               =       0.7000
     number of iterations used =            8  plain     mixing
     Exchange-correlation= SLA  PW   PBX  PBC
                           (   1   4   3   4   0   0   0)

     celldm(1)=   8.136556  celldm(2)=   0.000000  celldm(3)=   0.000000
     celldm(4)=   0.000000  celldm(5)=   0.000000  celldm(6)=   0.000000

     crystal axes: (cart. coord. in units of alat)
               a(1) = (   1.000000   0.000000   0.000000 )  
               a(2) = (   0.000000   0.982967   0.000000 )  
               a(3) = (   0.000000   0.000000   0.980716 )  

     reciprocal axes: (cart. coord. in units 2 pi/alat)
               b(1) = (  1.000000  0.000000  0.000000 )  
               b(2) = (  0.000000  1.017328  0.000000 )  
               b(3) = (  0.000000  0.000000  1.019663 )  


     PseudoPot. # 1 for Au read from file:
     ./Au.pbe-n-kjpaw_psl.1.0.0.UPF
     MD5 check sum: 4db85c736373c707a97ce4c36c2a9d23
     Pseudo is Projector augmented-wave + core cor, Zval = 11.0
     Generated using &quot;atomic&quot; code by A. Dal Corso  v.6.3
     Shape of augmentation charge: PSQ
     Using radial grid of 1279 points,  6 beta functions with: 
                l(1) =   0
                l(2) =   0
                l(3) =   1
                l(4) =   1
                l(5) =   2
                l(6) =   2
     Q(r) pseudized with 0 coefficients 


     atomic species   valence    mass     pseudopotential
        Au            11.00   196.96657     Au( 1.00)

     No symmetry found



   Cartesian axes

     site n.     atom                  positions (alat units)
         1           Au  tau(   1) = (   0.0000000   0.0000000   0.0000000  )
         2           Au  tau(   2) = (   0.0000000   0.4834819   0.4834819  )
         3           Au  tau(   3) = (   0.4834819   0.0000000   0.4834819  )
         4           Au  tau(   4) = (   0.4834819   0.4834819   0.0000000  )

     number of k points=   260  Gaussian smearing, width (Ry)=  0.0020

     Number of k-points >= 100: set verbosity='high' to print them.

     Dense  grid:   121295 G-vectors     FFT dimensions: (  64,  64,  64)

     Smooth grid:    24823 G-vectors     FFT dimensions: (  40,  40,  36)

     Estimated max dynamical RAM per process >      84.90 MB

     Estimated total dynamical RAM >     819.42 MB

     Initial potential from superposition of free atoms

     starting charge      43.9996, renormalised to      44.0000
     Starting wfcs are   36 randomized atomic wfcs
     Checking if some PAW data can be deallocated... 

     total cpu time spent up to now is        2.2 secs

     Self-consistent Calculation

     iteration #  1     ecut=    50.00 Ry     beta= 0.70
     Davidson diagonalization with overlap
     ethr =  1.00E-02,  avg # of iterations =  2.9

     Threshold (ethr) on eigenvalues was too large:
     Diagonalizing with lowered threshold

     Davidson diagonalization with overlap
     ethr =  2.96E-04,  avg # of iterations =  3.9

     total cpu time spent up to now is       10.2 secs

     total energy              =   -3100.47944012 Ry
     estimated scf accuracy    <       0.18059823 Ry

     iteration #  2     ecut=    50.00 Ry     beta= 0.70
     Davidson diagonalization with overlap
     ethr =  4.10E-04,  avg # of iterations =  3.3

     total cpu time spent up to now is       14.6 secs

     total energy              =   -3100.53982213 Ry
     estimated scf accuracy    <       0.02175012 Ry

     iteration #  3     ecut=    50.00 Ry     beta= 0.70
     Davidson diagonalization with overlap
     ethr =  4.94E-05,  avg # of iterations =  4.5

     total cpu time spent up to now is       19.1 secs

     total energy              =   -3100.54411651 Ry
     estimated scf accuracy    <       0.00176121 Ry

     iteration #  4     ecut=    50.00 Ry     beta= 0.70
     Davidson diagonalization with overlap
     c_bands:  1 eigenvalues not converged
     c_bands:  1 eigenvalues not converged
     c_bands:  1 eigenvalues not converged
     c_bands:  1 eigenvalues not converged
     ethr =  4.00E-06,  avg # of iterations =  6.0

     total cpu time spent up to now is       25.1 secs

     total energy              =   -3100.54543692 Ry
     estimated scf accuracy    <       0.00108252 Ry

     iteration #  5     ecut=    50.00 Ry     beta= 0.70
     Davidson diagonalization with overlap
     c_bands:  1 eigenvalues not converged
     c_bands:  1 eigenvalues not converged
     ethr =  2.46E-06,  avg # of iterations =  2.5

     total cpu time spent up to now is       29.1 secs

     total energy              =   -3100.54536328 Ry
     estimated scf accuracy    <       0.00084859 Ry

     iteration #  6     ecut=    50.00 Ry     beta= 0.70
     Davidson diagonalization with overlap
     ethr =  1.93E-06,  avg # of iterations =  1.8

     total cpu time spent up to now is       32.2 secs

     total energy              =   -3100.54539668 Ry
     estimated scf accuracy    <       0.00010582 Ry

     iteration #  7     ecut=    50.00 Ry     beta= 0.70
     Davidson diagonalization with overlap
     ethr =  2.40E-07,  avg # of iterations =  4.9

     total cpu time spent up to now is       37.5 secs

     total energy              =   -3100.54546877 Ry
     estimated scf accuracy    <       0.00000311 Ry

     iteration #  8     ecut=    50.00 Ry     beta= 0.70
     Davidson diagonalization with overlap
     ethr =  7.07E-09,  avg # of iterations =  8.6

     total cpu time spent up to now is       46.9 secs

     total energy              =   -3100.54546985 Ry
     estimated scf accuracy    <       0.00002288 Ry

     iteration #  9     ecut=    50.00 Ry     beta= 0.70
     Davidson diagonalization with overlap
     ethr =  7.07E-09,  avg # of iterations =  3.0

     total cpu time spent up to now is       51.2 secs

     total energy              =   -3100.54546972 Ry
     estimated scf accuracy    <       0.00000411 Ry

     iteration # 10     ecut=    50.00 Ry     beta= 0.70
     Davidson diagonalization with overlap
     ethr =  7.07E-09,  avg # of iterations =  3.7

     total cpu time spent up to now is       55.6 secs

     End of self-consistent calculation

     Number of k-points >= 100: set verbosity='high' to print the bands.

     the Fermi energy is    13.2690 ev

!    total energy              =   -3100.54547051 Ry

     total all-electron energy =   -152095.929835 Ry
     estimated scf accuracy    <       0.00000022 Ry
     smearing contrib. (-TS)   =      -0.00004807 Ry
     internal energy E=F+TS    =   -3100.54542243 Ry

     The total energy is F=E-TS. E is the sum of the following terms:
     one-electron contribution =      38.15439039 Ry
     hartree contribution      =      35.32514866 Ry
     xc contribution           =    -128.12283635 Ry
     ewald contribution        =    -275.87472154 Ry
     one-center paw contrib.   =   -2770.02740359 Ry

     convergence has been achieved in  10 iterations

     Forces acting on atoms (cartesian axes, Ry/au):

     atom    1 type  1   force =    -0.01173320   -0.00599508   -0.00519031
     atom    2 type  1   force =    -0.01168679    0.00599348    0.00517011
     atom    3 type  1   force =     0.01172373   -0.00598158    0.00517924
     atom    4 type  1   force =     0.01169626    0.00598318   -0.00515904

     Total force =     0.028267     Total SCF correction =     0.000240

     Writing all to output data dir ./pwscf.save/
 
     init_run     :      1.72s CPU      1.87s WALL (       1 calls)
     electrons    :     52.45s CPU     53.45s WALL (       1 calls)
     forces       :      0.44s CPU      0.46s WALL (       1 calls)

     Called by init_run:
     wfcinit      :      1.27s CPU      1.31s WALL (       1 calls)
     potinit      :      0.13s CPU      0.20s WALL (       1 calls)
     hinit0       :      0.17s CPU      0.21s WALL (       1 calls)

     Called by electrons:
     c_bands      :     46.34s CPU     47.05s WALL (      11 calls)
     sum_band     :      4.92s CPU      5.03s WALL (      11 calls)
     v_of_rho     :      0.31s CPU      0.43s WALL (      11 calls)
     newd         :      0.29s CPU      0.30s WALL (      11 calls)
     PAW_pot      :      0.61s CPU      0.62s WALL (      11 calls)
     mix_rho      :      0.02s CPU      0.02s WALL (      11 calls)

     Called by c_bands:
     init_us_2    :      0.46s CPU      0.46s WALL (    3120 calls)
     init_us_2:cp :      0.45s CPU      0.46s WALL (    3120 calls)
     cegterg      :     39.00s CPU     39.66s WALL (    1430 calls)

     Called by *egterg:
     cdiaghg      :      5.96s CPU      6.06s WALL (    7131 calls)
     h_psi        :     26.08s CPU     26.56s WALL (    7391 calls)
     s_psi        :      1.52s CPU      1.54s WALL (    7391 calls)
     g_psi        :      0.16s CPU      0.17s WALL (    5831 calls)

     Called by h_psi:
     h_psi:calbec :      1.84s CPU      1.87s WALL (    7391 calls)
     vloc_psi     :     22.45s CPU     22.87s WALL (    7391 calls)
     add_vuspsi   :      1.66s CPU      1.69s WALL (    7391 calls)

     General routines
     calbec       :      2.38s CPU      2.43s WALL (    9341 calls)
     fft          :      0.30s CPU      0.50s WALL (     153 calls)
     ffts         :      0.01s CPU      0.04s WALL (      22 calls)
     fftw         :     23.78s CPU     24.21s WALL (  290992 calls)
     interpolate  :      0.04s CPU      0.11s WALL (      11 calls)
 
     Parallel routines
 
     PWSCF        :     55.69s CPU     59.00s WALL

 
   This run was terminated on:   9: 6:51   3Dec2023            

=------------------------------------------------------------------------------=
   JOB DONE.
=------------------------------------------------------------------------------=
