MPI startup(): Warning: I_MPI_PMI_LIBRARY will be ignored since the hydra process manager was found
MPI startup(): Warning: I_MPI_PMI_LIBRARY will be ignored since the hydra process manager was found
MPI startup(): Warning: I_MPI_PMI_LIBRARY will be ignored since the hydra process manager was found
MPI startup(): Warning: I_MPI_PMI_LIBRARY will be ignored since the hydra process manager was found
MPI startup(): Warning: I_MPI_PMI_LIBRARY will be ignored since the hydra process manager was found
MPI startup(): Warning: I_MPI_PMI_LIBRARY will be ignored since the hydra process manager was found
MPI startup(): Warning: I_MPI_PMI_LIBRARY will be ignored since the hydra process manager was found
MPI startup(): Warning: I_MPI_PMI_LIBRARY will be ignored since the hydra process manager was found
MPI startup(): Warning: I_MPI_PMI_LIBRARY will be ignored since the hydra process manager was found
MPI startup(): Warning: I_MPI_PMI_LIBRARY will be ignored since the hydra process manager was found

     Program PWSCF v.7.0 starts on  3Dec2023 at  9: 1:58 

     This program is part of the open-source Quantum ESPRESSO suite
     for quantum simulation of materials; please cite
         "P. Giannozzi et al., J. Phys.:Condens. Matter 21 395502 (2009);
         "P. Giannozzi et al., J. Phys.:Condens. Matter 29 465901 (2017);
         "P. Giannozzi et al., J. Chem. Phys. 152 154105 (2020);
          URL http://www.quantum-espresso.org", 
     in publications or presentations arising from this work. More details at
     http://www.quantum-espresso.org/quote

     Parallel version (MPI), running on    10 processors

     MPI processes distributed on     1 nodes
     K-points division:     npool     =       2
     R & G space division:  proc/nbgrp/npool/nimage =       5
     87328 MiB available memory on the printing compute node when the environment starts
 
     Reading input from elasticFCC12.in
Warning: card &CELL ignored
Warning: card / ignored

     Current dimensions of program PWSCF are:
     Max number of different atomic species (ntypx) = 10
     Max number of k-points (npk) =  40000
     Max angular momentum in pseudopotentials (lmaxx) =  4
     file Au.pbe-n-kjpaw_psl.1.0.0.UPF: wavefunction(s)  6S 5D renormalized

     Subspace diagonalization in iterative solution of the eigenvalue problem:
     one sub-group per band group will be used
     scalapack distributed-memory algorithm (size of sub-group:  2*  2 procs)

 
     Parallelization info
     --------------------
     sticks:   dense  smooth     PW     G-vecs:    dense   smooth      PW
     Min         565     195     58                23355     4787     786
     Max         566     196     59                23357     4790     789
     Sum        2827     977    293               116781    23945    3941
 
     Using Slab Decomposition
 


     bravais-lattice index     =            0
     lattice parameter (alat)  =       7.9110  a.u.
     unit-cell volume          =     500.3959 (a.u.)^3
     number of atoms/cell      =            4
     number of atomic types    =            1
     number of electrons       =        44.00
     number of Kohn-Sham states=           26
     kinetic-energy cutoff     =      50.0000  Ry
     charge density cutoff     =     576.0000  Ry
     scf convergence threshold =      1.0E-06
     mixing beta               =       0.7000
     number of iterations used =            8  plain     mixing
     Exchange-correlation= SLA  PW   PBX  PBC
                           (   1   4   3   4   0   0   0)

     celldm(1)=   7.910991  celldm(2)=   0.000000  celldm(3)=   0.000000
     celldm(4)=   0.000000  celldm(5)=   0.000000  celldm(6)=   0.000000

     crystal axes: (cart. coord. in units of alat)
               a(1) = (   1.000000   0.000000   0.000000 )  
               a(2) = (   0.000000   0.981539   0.000000 )  
               a(3) = (   0.000000   0.000000   1.029707 )  

     reciprocal axes: (cart. coord. in units 2 pi/alat)
               b(1) = (  1.000000  0.000000  0.000000 )  
               b(2) = (  0.000000  1.018809  0.000000 )  
               b(3) = (  0.000000  0.000000  0.971150 )  


     PseudoPot. # 1 for Au read from file:
     ./Au.pbe-n-kjpaw_psl.1.0.0.UPF
     MD5 check sum: 4db85c736373c707a97ce4c36c2a9d23
     Pseudo is Projector augmented-wave + core cor, Zval = 11.0
     Generated using &quot;atomic&quot; code by A. Dal Corso  v.6.3
     Shape of augmentation charge: PSQ
     Using radial grid of 1279 points,  6 beta functions with: 
                l(1) =   0
                l(2) =   0
                l(3) =   1
                l(4) =   1
                l(5) =   2
                l(6) =   2
     Q(r) pseudized with 0 coefficients 


     atomic species   valence    mass     pseudopotential
        Au            11.00   196.96657     Au( 1.00)

     No symmetry found



   Cartesian axes

     site n.     atom                  positions (alat units)
         1           Au  tau(   1) = (   0.0000000   0.0000000   0.0000000  )
         2           Au  tau(   2) = (   0.0000000   0.4972674   0.4972674  )
         3           Au  tau(   3) = (   0.4972674   0.0000000   0.4972674  )
         4           Au  tau(   4) = (   0.4972674   0.4972674   0.0000000  )

     number of k points=   260  Gaussian smearing, width (Ry)=  0.0020

     Number of k-points >= 100: set verbosity='high' to print them.

     Dense  grid:   116781 G-vectors     FFT dimensions: (  64,  60,  64)

     Smooth grid:    23945 G-vectors     FFT dimensions: (  36,  36,  40)

     Estimated max dynamical RAM per process >      81.73 MB

     Estimated total dynamical RAM >     788.75 MB

     Initial potential from superposition of free atoms

     starting charge      43.9996, renormalised to      44.0000
     Starting wfcs are   36 randomized atomic wfcs
     Checking if some PAW data can be deallocated... 

     total cpu time spent up to now is        2.0 secs

     Self-consistent Calculation

     iteration #  1     ecut=    50.00 Ry     beta= 0.70
     Davidson diagonalization with overlap
     ethr =  1.00E-02,  avg # of iterations =  3.0

     Threshold (ethr) on eigenvalues was too large:
     Diagonalizing with lowered threshold

     Davidson diagonalization with overlap
     ethr =  2.89E-04,  avg # of iterations =  4.3

     total cpu time spent up to now is        9.6 secs

     total energy              =   -3100.48640664 Ry
     estimated scf accuracy    <       0.18203992 Ry

     iteration #  2     ecut=    50.00 Ry     beta= 0.70
     Davidson diagonalization with overlap
     ethr =  4.14E-04,  avg # of iterations =  3.1

     total cpu time spent up to now is       13.6 secs

     total energy              =   -3100.54625401 Ry
     estimated scf accuracy    <       0.02008070 Ry

     iteration #  3     ecut=    50.00 Ry     beta= 0.70
     Davidson diagonalization with overlap
     ethr =  4.56E-05,  avg # of iterations =  4.6

     total cpu time spent up to now is       17.9 secs

     total energy              =   -3100.55057073 Ry
     estimated scf accuracy    <       0.00170573 Ry

     iteration #  4     ecut=    50.00 Ry     beta= 0.70
     Davidson diagonalization with overlap
     c_bands:  1 eigenvalues not converged
     c_bands:  1 eigenvalues not converged
     c_bands:  1 eigenvalues not converged
     c_bands:  1 eigenvalues not converged
     c_bands:  1 eigenvalues not converged
     ethr =  3.88E-06,  avg # of iterations =  6.1

     total cpu time spent up to now is       23.3 secs

     total energy              =   -3100.55180601 Ry
     estimated scf accuracy    <       0.00098070 Ry

     iteration #  5     ecut=    50.00 Ry     beta= 0.70
     Davidson diagonalization with overlap
     ethr =  2.23E-06,  avg # of iterations =  2.7

     total cpu time spent up to now is       27.0 secs

     total energy              =   -3100.55172479 Ry
     estimated scf accuracy    <       0.00070230 Ry

     iteration #  6     ecut=    50.00 Ry     beta= 0.70
     Davidson diagonalization with overlap
     ethr =  1.60E-06,  avg # of iterations =  2.0

     total cpu time spent up to now is       30.0 secs

     total energy              =   -3100.55177212 Ry
     estimated scf accuracy    <       0.00009885 Ry

     iteration #  7     ecut=    50.00 Ry     beta= 0.70
     Davidson diagonalization with overlap
     ethr =  2.25E-07,  avg # of iterations =  4.7

     total cpu time spent up to now is       34.5 secs

     total energy              =   -3100.55181146 Ry
     estimated scf accuracy    <       0.00000703 Ry

     iteration #  8     ecut=    50.00 Ry     beta= 0.70
     Davidson diagonalization with overlap
     ethr =  1.60E-08,  avg # of iterations =  7.4

     total cpu time spent up to now is       42.0 secs

     total energy              =   -3100.55182379 Ry
     estimated scf accuracy    <       0.00001702 Ry

     iteration #  9     ecut=    50.00 Ry     beta= 0.70
     Davidson diagonalization with overlap
     ethr =  1.60E-08,  avg # of iterations =  2.0

     total cpu time spent up to now is       45.0 secs

     total energy              =   -3100.55182213 Ry
     estimated scf accuracy    <       0.00000513 Ry

     iteration # 10     ecut=    50.00 Ry     beta= 0.70
     Davidson diagonalization with overlap
     ethr =  1.17E-08,  avg # of iterations =  2.0

     total cpu time spent up to now is       48.4 secs

     End of self-consistent calculation

     Number of k-points >= 100: set verbosity='high' to print the bands.

     the Fermi energy is    14.0191 ev

!    total energy              =   -3100.55182267 Ry

     total all-electron energy =   -152095.936187 Ry
     estimated scf accuracy    <       0.00000041 Ry
     smearing contrib. (-TS)   =      -0.00005271 Ry
     internal energy E=F+TS    =   -3100.55176997 Ry

     The total energy is F=E-TS. E is the sum of the following terms:
     one-electron contribution =      43.10968205 Ry
     hartree contribution      =      33.91579079 Ry
     xc contribution           =    -128.22024620 Ry
     ewald contribution        =    -279.31117010 Ry
     one-center paw contrib.   =   -2770.04582651 Ry

     convergence has been achieved in  10 iterations

     Forces acting on atoms (cartesian axes, Ry/au):

     atom    1 type  1   force =    -0.00262037    0.00637968   -0.01537664
     atom    2 type  1   force =    -0.00261833   -0.00637789    0.01536889
     atom    3 type  1   force =     0.00261724    0.00637887    0.01537746
     atom    4 type  1   force =     0.00262146   -0.00638066   -0.01536971

     Total force =     0.033698     Total SCF correction =     0.000187

     Writing all to output data dir ./pwscf.save/
 
     init_run     :      1.58s CPU      1.73s WALL (       1 calls)
     electrons    :     45.52s CPU     46.37s WALL (       1 calls)
     forces       :      0.42s CPU      0.44s WALL (       1 calls)

     Called by init_run:
     wfcinit      :      1.13s CPU      1.16s WALL (       1 calls)
     potinit      :      0.13s CPU      0.19s WALL (       1 calls)
     hinit0       :      0.17s CPU      0.20s WALL (       1 calls)

     Called by electrons:
     c_bands      :     40.05s CPU     40.64s WALL (      11 calls)
     sum_band     :      4.39s CPU      4.50s WALL (      11 calls)
     v_of_rho     :      0.23s CPU      0.35s WALL (      11 calls)
     newd         :      0.25s CPU      0.26s WALL (      11 calls)
     PAW_pot      :      0.61s CPU      0.62s WALL (      11 calls)
     mix_rho      :      0.02s CPU      0.02s WALL (      11 calls)

     Called by c_bands:
     init_us_2    :      0.44s CPU      0.44s WALL (    3120 calls)
     init_us_2:cp :      0.43s CPU      0.44s WALL (    3120 calls)
     cegterg      :     33.50s CPU     34.04s WALL (    1430 calls)

     Called by *egterg:
     cdiaghg      :      5.40s CPU      5.47s WALL (    6697 calls)
     h_psi        :     21.75s CPU     22.16s WALL (    6957 calls)
     s_psi        :      1.41s CPU      1.42s WALL (    6957 calls)
     g_psi        :      0.14s CPU      0.15s WALL (    5397 calls)

     Called by h_psi:
     h_psi:calbec :      1.68s CPU      1.71s WALL (    6957 calls)
     vloc_psi     :     18.45s CPU     18.81s WALL (    6957 calls)
     add_vuspsi   :      1.49s CPU      1.51s WALL (    6957 calls)

     General routines
     calbec       :      2.23s CPU      2.27s WALL (    8907 calls)
     fft          :      0.19s CPU      0.38s WALL (     153 calls)
     ffts         :      0.02s CPU      0.04s WALL (      22 calls)
     fftw         :     19.76s CPU     20.15s WALL (  274888 calls)
     interpolate  :      0.04s CPU      0.10s WALL (      11 calls)
 
     Parallel routines
 
     PWSCF        :     48.55s CPU     51.03s WALL

 
   This run was terminated on:   9: 2:49   3Dec2023            

=------------------------------------------------------------------------------=
   JOB DONE.
=------------------------------------------------------------------------------=
