MPI startup(): Warning: I_MPI_PMI_LIBRARY will be ignored since the hydra process manager was found
MPI startup(): Warning: I_MPI_PMI_LIBRARY will be ignored since the hydra process manager was found
MPI startup(): Warning: I_MPI_PMI_LIBRARY will be ignored since the hydra process manager was found
MPI startup(): Warning: I_MPI_PMI_LIBRARY will be ignored since the hydra process manager was found
MPI startup(): Warning: I_MPI_PMI_LIBRARY will be ignored since the hydra process manager was found
MPI startup(): Warning: I_MPI_PMI_LIBRARY will be ignored since the hydra process manager was found
MPI startup(): Warning: I_MPI_PMI_LIBRARY will be ignored since the hydra process manager was found
MPI startup(): Warning: I_MPI_PMI_LIBRARY will be ignored since the hydra process manager was found
MPI startup(): Warning: I_MPI_PMI_LIBRARY will be ignored since the hydra process manager was found
MPI startup(): Warning: I_MPI_PMI_LIBRARY will be ignored since the hydra process manager was found

     Program PWSCF v.7.0 starts on  3Dec2023 at  8:56: 0 

     This program is part of the open-source Quantum ESPRESSO suite
     for quantum simulation of materials; please cite
         "P. Giannozzi et al., J. Phys.:Condens. Matter 21 395502 (2009);
         "P. Giannozzi et al., J. Phys.:Condens. Matter 29 465901 (2017);
         "P. Giannozzi et al., J. Chem. Phys. 152 154105 (2020);
          URL http://www.quantum-espresso.org", 
     in publications or presentations arising from this work. More details at
     http://www.quantum-espresso.org/quote

     Parallel version (MPI), running on    10 processors

     MPI processes distributed on     1 nodes
     K-points division:     npool     =       2
     R & G space division:  proc/nbgrp/npool/nimage =       5
     77703 MiB available memory on the printing compute node when the environment starts
 
     Reading input from elasticFCC6.in
Warning: card &CELL ignored
Warning: card / ignored

     Current dimensions of program PWSCF are:
     Max number of different atomic species (ntypx) = 10
     Max number of k-points (npk) =  40000
     Max angular momentum in pseudopotentials (lmaxx) =  4
     file Au.pbe-n-kjpaw_psl.1.0.0.UPF: wavefunction(s)  6S 5D renormalized

     Subspace diagonalization in iterative solution of the eigenvalue problem:
     one sub-group per band group will be used
     scalapack distributed-memory algorithm (size of sub-group:  2*  2 procs)

 
     Parallelization info
     --------------------
     sticks:   dense  smooth     PW     G-vecs:    dense   smooth      PW
     Min         547     190     57                23071     4721     777
     Max         548     192     58                23073     4722     778
     Sum        2737     957    289               115359    23609    3889
 
     Using Slab Decomposition
 


     bravais-lattice index     =            0
     lattice parameter (alat)  =       7.9032  a.u.
     unit-cell volume          =     494.3877 (a.u.)^3
     number of atoms/cell      =            4
     number of atomic types    =            1
     number of electrons       =        44.00
     number of Kohn-Sham states=           26
     kinetic-energy cutoff     =      50.0000  Ry
     charge density cutoff     =     576.0000  Ry
     scf convergence threshold =      1.0E-06
     mixing beta               =       0.7000
     number of iterations used =            8  plain     mixing
     Exchange-correlation= SLA  PW   PBX  PBC
                           (   1   4   3   4   0   0   0)

     celldm(1)=   7.903184  celldm(2)=   0.000000  celldm(3)=   0.000000
     celldm(4)=   0.000000  celldm(5)=   0.000000  celldm(6)=   0.000000

     crystal axes: (cart. coord. in units of alat)
               a(1) = (   1.000000   0.000000   0.000000 )  
               a(2) = (   0.000000   0.958411   0.000000 )  
               a(3) = (   0.000000   0.000000   1.044983 )  

     reciprocal axes: (cart. coord. in units 2 pi/alat)
               b(1) = (  1.000000  0.000000  0.000000 )  
               b(2) = (  0.000000  1.043393  0.000000 )  
               b(3) = (  0.000000  0.000000  0.956953 )  


     PseudoPot. # 1 for Au read from file:
     ./Au.pbe-n-kjpaw_psl.1.0.0.UPF
     MD5 check sum: 4db85c736373c707a97ce4c36c2a9d23
     Pseudo is Projector augmented-wave + core cor, Zval = 11.0
     Generated using &quot;atomic&quot; code by A. Dal Corso  v.6.3
     Shape of augmentation charge: PSQ
     Using radial grid of 1279 points,  6 beta functions with: 
                l(1) =   0
                l(2) =   0
                l(3) =   1
                l(4) =   1
                l(5) =   2
                l(6) =   2
     Q(r) pseudized with 0 coefficients 


     atomic species   valence    mass     pseudopotential
        Au            11.00   196.96657     Au( 1.00)

     No symmetry found



   Cartesian axes

     site n.     atom                  positions (alat units)
         1           Au  tau(   1) = (   0.0000000   0.0000000   0.0000000  )
         2           Au  tau(   2) = (   0.0000000   0.4977586   0.4977586  )
         3           Au  tau(   3) = (   0.4977586   0.0000000   0.4977586  )
         4           Au  tau(   4) = (   0.4977586   0.4977586   0.0000000  )

     number of k points=   260  Gaussian smearing, width (Ry)=  0.0020

     Number of k-points >= 100: set verbosity='high' to print them.

     Dense  grid:   115359 G-vectors     FFT dimensions: (  64,  60,  64)

     Smooth grid:    23609 G-vectors     FFT dimensions: (  36,  36,  40)

     Estimated max dynamical RAM per process >      80.81 MB

     Estimated total dynamical RAM >     779.95 MB

     Initial potential from superposition of free atoms

     starting charge      43.9996, renormalised to      44.0000
     Starting wfcs are   36 randomized atomic wfcs
     Checking if some PAW data can be deallocated... 

     total cpu time spent up to now is        2.1 secs

     Self-consistent Calculation

     iteration #  1     ecut=    50.00 Ry     beta= 0.70
     Davidson diagonalization with overlap
     ethr =  1.00E-02,  avg # of iterations =  2.9

     Threshold (ethr) on eigenvalues was too large:
     Diagonalizing with lowered threshold

     Davidson diagonalization with overlap
     ethr =  2.87E-04,  avg # of iterations =  4.4

     total cpu time spent up to now is        9.7 secs

     total energy              =   -3100.48202606 Ry
     estimated scf accuracy    <       0.18235067 Ry

     iteration #  2     ecut=    50.00 Ry     beta= 0.70
     Davidson diagonalization with overlap
     ethr =  4.14E-04,  avg # of iterations =  3.0

     total cpu time spent up to now is       13.6 secs

     total energy              =   -3100.54152079 Ry
     estimated scf accuracy    <       0.01948081 Ry

     iteration #  3     ecut=    50.00 Ry     beta= 0.70
     Davidson diagonalization with overlap
     ethr =  4.43E-05,  avg # of iterations =  4.9

     total cpu time spent up to now is       18.1 secs

     total energy              =   -3100.54600791 Ry
     estimated scf accuracy    <       0.00178239 Ry

     iteration #  4     ecut=    50.00 Ry     beta= 0.70
     Davidson diagonalization with overlap
     c_bands:  1 eigenvalues not converged
     c_bands:  1 eigenvalues not converged
     ethr =  4.05E-06,  avg # of iterations =  5.9

     total cpu time spent up to now is       23.2 secs

     total energy              =   -3100.54704873 Ry
     estimated scf accuracy    <       0.00046412 Ry

     iteration #  5     ecut=    50.00 Ry     beta= 0.70
     Davidson diagonalization with overlap
     ethr =  1.05E-06,  avg # of iterations =  3.5

     total cpu time spent up to now is       27.4 secs

     total energy              =   -3100.54707251 Ry
     estimated scf accuracy    <       0.00055710 Ry

     iteration #  6     ecut=    50.00 Ry     beta= 0.70
     Davidson diagonalization with overlap
     c_bands:  1 eigenvalues not converged
     ethr =  1.05E-06,  avg # of iterations =  2.1

     total cpu time spent up to now is       30.4 secs

     total energy              =   -3100.54707373 Ry
     estimated scf accuracy    <       0.00009594 Ry

     iteration #  7     ecut=    50.00 Ry     beta= 0.70
     Davidson diagonalization with overlap
     ethr =  2.18E-07,  avg # of iterations =  4.8

     total cpu time spent up to now is       34.9 secs

     total energy              =   -3100.54712474 Ry
     estimated scf accuracy    <       0.00000118 Ry

     iteration #  8     ecut=    50.00 Ry     beta= 0.70
     Davidson diagonalization with overlap
     c_bands:  1 eigenvalues not converged
     ethr =  2.68E-09,  avg # of iterations = 11.2

     total cpu time spent up to now is       46.0 secs

     total energy              =   -3100.54712931 Ry
     estimated scf accuracy    <       0.00001469 Ry

     iteration #  9     ecut=    50.00 Ry     beta= 0.70
     Davidson diagonalization with overlap
     ethr =  2.68E-09,  avg # of iterations =  3.2

     total cpu time spent up to now is       50.0 secs

     total energy              =   -3100.54712832 Ry
     estimated scf accuracy    <       0.00000431 Ry

     iteration # 10     ecut=    50.00 Ry     beta= 0.70
     Davidson diagonalization with overlap
     ethr =  2.68E-09,  avg # of iterations =  3.1

     total cpu time spent up to now is       54.2 secs

     End of self-consistent calculation

     Number of k-points >= 100: set verbosity='high' to print the bands.

     the Fermi energy is    14.3488 ev

!    total energy              =   -3100.54712829 Ry

     total all-electron energy =   -152095.931492 Ry
     estimated scf accuracy    <       0.00000069 Ry
     smearing contrib. (-TS)   =      -0.00002482 Ry
     internal energy E=F+TS    =   -3100.54710347 Ry

     The total energy is F=E-TS. E is the sum of the following terms:
     one-electron contribution =      44.10088057 Ry
     hartree contribution      =      33.77492259 Ry
     xc contribution           =    -128.26625105 Ry
     ewald contribution        =    -280.10095919 Ry
     one-center paw contrib.   =   -2770.05569640 Ry

     convergence has been achieved in  10 iterations

     Forces acting on atoms (cartesian axes, Ry/au):

     atom    1 type  1   force =    -0.00239874    0.02065448   -0.02302707
     atom    2 type  1   force =    -0.00240186   -0.02065872    0.02302941
     atom    3 type  1   force =     0.00239997    0.02066224    0.02303017
     atom    4 type  1   force =     0.00240062   -0.02065801   -0.02303251

     Total force =     0.062061     Total SCF correction =     0.000176

     Writing all to output data dir ./pwscf.save/
 
     init_run     :      1.66s CPU      1.78s WALL (       1 calls)
     electrons    :     51.18s CPU     52.12s WALL (       1 calls)
     forces       :      0.42s CPU      0.44s WALL (       1 calls)

     Called by init_run:
     wfcinit      :      1.15s CPU      1.18s WALL (       1 calls)
     potinit      :      0.19s CPU      0.24s WALL (       1 calls)
     hinit0       :      0.18s CPU      0.20s WALL (       1 calls)

     Called by electrons:
     c_bands      :     45.73s CPU     46.39s WALL (      11 calls)
     sum_band     :      4.39s CPU      4.49s WALL (      11 calls)
     v_of_rho     :      0.23s CPU      0.35s WALL (      11 calls)
     newd         :      0.24s CPU      0.26s WALL (      11 calls)
     PAW_pot      :      0.62s CPU      0.63s WALL (      11 calls)
     mix_rho      :      0.02s CPU      0.02s WALL (      11 calls)

     Called by c_bands:
     init_us_2    :      0.42s CPU      0.43s WALL (    3120 calls)
     init_us_2:cp :      0.42s CPU      0.42s WALL (    3120 calls)
     cegterg      :     38.72s CPU     39.34s WALL (    1430 calls)

     Called by *egterg:
     cdiaghg      :      6.27s CPU      6.36s WALL (    7650 calls)
     h_psi        :     24.79s CPU     25.25s WALL (    7910 calls)
     s_psi        :      1.50s CPU      1.51s WALL (    7910 calls)
     g_psi        :      0.17s CPU      0.17s WALL (    6350 calls)

     Called by h_psi:
     h_psi:calbec :      1.93s CPU      1.97s WALL (    7910 calls)
     vloc_psi     :     21.10s CPU     21.51s WALL (    7910 calls)
     add_vuspsi   :      1.62s CPU      1.65s WALL (    7910 calls)

     General routines
     calbec       :      2.48s CPU      2.52s WALL (    9860 calls)
     fft          :      0.18s CPU      0.39s WALL (     153 calls)
     ffts         :      0.01s CPU      0.04s WALL (      22 calls)
     fftw         :     22.24s CPU     22.67s WALL (  309192 calls)
     interpolate  :      0.02s CPU      0.10s WALL (      11 calls)
 
     Parallel routines
 
     PWSCF        :     54.23s CPU     57.25s WALL

 
   This run was terminated on:   8:56:58   3Dec2023            

=------------------------------------------------------------------------------=
   JOB DONE.
=------------------------------------------------------------------------------=
