MPI startup(): Warning: I_MPI_PMI_LIBRARY will be ignored since the hydra process manager was found
MPI startup(): Warning: I_MPI_PMI_LIBRARY will be ignored since the hydra process manager was found
MPI startup(): Warning: I_MPI_PMI_LIBRARY will be ignored since the hydra process manager was found
MPI startup(): Warning: I_MPI_PMI_LIBRARY will be ignored since the hydra process manager was found
MPI startup(): Warning: I_MPI_PMI_LIBRARY will be ignored since the hydra process manager was found
MPI startup(): Warning: I_MPI_PMI_LIBRARY will be ignored since the hydra process manager was found
MPI startup(): Warning: I_MPI_PMI_LIBRARY will be ignored since the hydra process manager was found
MPI startup(): Warning: I_MPI_PMI_LIBRARY will be ignored since the hydra process manager was found
MPI startup(): Warning: I_MPI_PMI_LIBRARY will be ignored since the hydra process manager was found
MPI startup(): Warning: I_MPI_PMI_LIBRARY will be ignored since the hydra process manager was found

     Program PWSCF v.7.0 starts on  3Dec2023 at  8:53:59 

     This program is part of the open-source Quantum ESPRESSO suite
     for quantum simulation of materials; please cite
         "P. Giannozzi et al., J. Phys.:Condens. Matter 21 395502 (2009);
         "P. Giannozzi et al., J. Phys.:Condens. Matter 29 465901 (2017);
         "P. Giannozzi et al., J. Chem. Phys. 152 154105 (2020);
          URL http://www.quantum-espresso.org", 
     in publications or presentations arising from this work. More details at
     http://www.quantum-espresso.org/quote

     Parallel version (MPI), running on    10 processors

     MPI processes distributed on     1 nodes
     K-points division:     npool     =       2
     R & G space division:  proc/nbgrp/npool/nimage =       5
     77883 MiB available memory on the printing compute node when the environment starts
 
     Reading input from elasticFCC4.in
Warning: card &CELL ignored
Warning: card / ignored

     Current dimensions of program PWSCF are:
     Max number of different atomic species (ntypx) = 10
     Max number of k-points (npk) =  40000
     Max angular momentum in pseudopotentials (lmaxx) =  4
     file Au.pbe-n-kjpaw_psl.1.0.0.UPF: wavefunction(s)  6S 5D renormalized

     Subspace diagonalization in iterative solution of the eigenvalue problem:
     one sub-group per band group will be used
     scalapack distributed-memory algorithm (size of sub-group:  2*  2 procs)

 
     Parallelization info
     --------------------
     sticks:   dense  smooth     PW     G-vecs:    dense   smooth      PW
     Min         548     189     58                21041     4305     726
     Max         550     190     59                21043     4308     729
     Sum        2745     949    293               105209    21533    3639
 
     Using Slab Decomposition
 


     bravais-lattice index     =            0
     lattice parameter (alat)  =       7.7200  a.u.
     unit-cell volume          =     450.7206 (a.u.)^3
     number of atoms/cell      =            4
     number of atomic types    =            1
     number of electrons       =        44.00
     number of Kohn-Sham states=           26
     kinetic-energy cutoff     =      50.0000  Ry
     charge density cutoff     =     576.0000  Ry
     scf convergence threshold =      1.0E-06
     mixing beta               =       0.7000
     number of iterations used =            8  plain     mixing
     Exchange-correlation= SLA  PW   PBX  PBC
                           (   1   4   3   4   0   0   0)

     celldm(1)=   7.720015  celldm(2)=   0.000000  celldm(3)=   0.000000
     celldm(4)=   0.000000  celldm(5)=   0.000000  celldm(6)=   0.000000

     crystal axes: (cart. coord. in units of alat)
               a(1) = (   1.000000   0.000000   0.000000 )  
               a(2) = (   0.000000   1.004775   0.000000 )  
               a(3) = (   0.000000   0.000000   0.974954 )  

     reciprocal axes: (cart. coord. in units 2 pi/alat)
               b(1) = (  1.000000  0.000000  0.000000 )  
               b(2) = (  0.000000  0.995247  0.000000 )  
               b(3) = (  0.000000  0.000000  1.025690 )  


     PseudoPot. # 1 for Au read from file:
     ./Au.pbe-n-kjpaw_psl.1.0.0.UPF
     MD5 check sum: 4db85c736373c707a97ce4c36c2a9d23
     Pseudo is Projector augmented-wave + core cor, Zval = 11.0
     Generated using &quot;atomic&quot; code by A. Dal Corso  v.6.3
     Shape of augmentation charge: PSQ
     Using radial grid of 1279 points,  6 beta functions with: 
                l(1) =   0
                l(2) =   0
                l(3) =   1
                l(4) =   1
                l(5) =   2
                l(6) =   2
     Q(r) pseudized with 0 coefficients 


     atomic species   valence    mass     pseudopotential
        Au            11.00   196.96657     Au( 1.00)

     No symmetry found



   Cartesian axes

     site n.     atom                  positions (alat units)
         1           Au  tau(   1) = (   0.0000000   0.0000000   0.0000000  )
         2           Au  tau(   2) = (   0.0000000   0.5095687   0.5095687  )
         3           Au  tau(   3) = (   0.5095687   0.0000000   0.5095687  )
         4           Au  tau(   4) = (   0.5095687   0.5095687   0.0000000  )

     number of k points=   260  Gaussian smearing, width (Ry)=  0.0020

     Number of k-points >= 100: set verbosity='high' to print them.

     Dense  grid:   105209 G-vectors     FFT dimensions: (  60,  60,  60)

     Smooth grid:    21533 G-vectors     FFT dimensions: (  36,  36,  36)

     Estimated max dynamical RAM per process >      73.71 MB

     Estimated total dynamical RAM >     711.38 MB

     Initial potential from superposition of free atoms

     starting charge      43.9996, renormalised to      44.0000
     Starting wfcs are   36 randomized atomic wfcs
     Checking if some PAW data can be deallocated... 

     total cpu time spent up to now is        2.0 secs

     Self-consistent Calculation

     iteration #  1     ecut=    50.00 Ry     beta= 0.70
     Davidson diagonalization with overlap
     ethr =  1.00E-02,  avg # of iterations =  2.7

     Threshold (ethr) on eigenvalues was too large:
     Diagonalizing with lowered threshold

     Davidson diagonalization with overlap
     ethr =  2.54E-04,  avg # of iterations =  5.0

     total cpu time spent up to now is       10.0 secs

     total energy              =   -3100.46967690 Ry
     estimated scf accuracy    <       0.18025448 Ry

     iteration #  2     ecut=    50.00 Ry     beta= 0.70
     Davidson diagonalization with overlap
     ethr =  4.10E-04,  avg # of iterations =  2.5

     total cpu time spent up to now is       13.7 secs

     total energy              =   -3100.52642142 Ry
     estimated scf accuracy    <       0.01624680 Ry

     iteration #  3     ecut=    50.00 Ry     beta= 0.70
     Davidson diagonalization with overlap
     ethr =  3.69E-05,  avg # of iterations =  4.6

     total cpu time spent up to now is       18.0 secs

     total energy              =   -3100.53067343 Ry
     estimated scf accuracy    <       0.00181703 Ry

     iteration #  4     ecut=    50.00 Ry     beta= 0.70
     Davidson diagonalization with overlap
     c_bands:  1 eigenvalues not converged
     c_bands:  1 eigenvalues not converged
     c_bands:  1 eigenvalues not converged
     c_bands:  1 eigenvalues not converged
     ethr =  4.13E-06,  avg # of iterations =  6.0

     total cpu time spent up to now is       23.1 secs

     total energy              =   -3100.53152872 Ry
     estimated scf accuracy    <       0.00083783 Ry

     iteration #  5     ecut=    50.00 Ry     beta= 0.70
     Davidson diagonalization with overlap
     c_bands:  2 eigenvalues not converged
     ethr =  1.90E-06,  avg # of iterations =  3.0

     total cpu time spent up to now is       27.1 secs

     total energy              =   -3100.53163327 Ry
     estimated scf accuracy    <       0.00063936 Ry

     iteration #  6     ecut=    50.00 Ry     beta= 0.70
     Davidson diagonalization with overlap
     c_bands:  2 eigenvalues not converged
     ethr =  1.45E-06,  avg # of iterations =  2.0

     total cpu time spent up to now is       30.0 secs

     total energy              =   -3100.53166062 Ry
     estimated scf accuracy    <       0.00007755 Ry

     iteration #  7     ecut=    50.00 Ry     beta= 0.70
     Davidson diagonalization with overlap
     ethr =  1.76E-07,  avg # of iterations =  5.0

     total cpu time spent up to now is       34.8 secs

     total energy              =   -3100.53171514 Ry
     estimated scf accuracy    <       0.00000178 Ry

     iteration #  8     ecut=    50.00 Ry     beta= 0.70
     Davidson diagonalization with overlap
     ethr =  4.05E-09,  avg # of iterations =  8.5

     total cpu time spent up to now is       43.4 secs

     total energy              =   -3100.53171637 Ry
     estimated scf accuracy    <       0.00001197 Ry

     iteration #  9     ecut=    50.00 Ry     beta= 0.70
     Davidson diagonalization with overlap
     ethr =  4.05E-09,  avg # of iterations =  3.2

     total cpu time spent up to now is       47.4 secs

     total energy              =   -3100.53171676 Ry
     estimated scf accuracy    <       0.00000164 Ry

     iteration # 10     ecut=    50.00 Ry     beta= 0.70
     Davidson diagonalization with overlap
     ethr =  3.73E-09,  avg # of iterations =  2.4

     total cpu time spent up to now is       51.0 secs

     End of self-consistent calculation

     Number of k-points >= 100: set verbosity='high' to print the bands.

     the Fermi energy is    16.3716 ev

!    total energy              =   -3100.53171704 Ry

     total all-electron energy =   -152095.916081 Ry
     estimated scf accuracy    <       0.00000014 Ry
     smearing contrib. (-TS)   =      -0.00003600 Ry
     internal energy E=F+TS    =   -3100.53168104 Ry

     The total energy is F=E-TS. E is the sum of the following terms:
     one-electron contribution =      56.97197077 Ry
     hartree contribution      =      30.26112286 Ry
     xc contribution           =    -128.56312387 Ry
     ewald contribution        =    -289.08639268 Ry
     one-center paw contrib.   =   -2770.11525813 Ry

     convergence has been achieved in  10 iterations

     Forces acting on atoms (cartesian axes, Ry/au):

     atom    1 type  1   force =     0.01593912    0.01186571    0.03741627
     atom    2 type  1   force =     0.01593730   -0.01186729   -0.03742525
     atom    3 type  1   force =    -0.01593824    0.01186202   -0.03739910
     atom    4 type  1   force =    -0.01593818   -0.01186045    0.03740808

     Total force =     0.084722     Total SCF correction =     0.000185

     Writing all to output data dir ./pwscf.save/
 
     init_run     :      1.57s CPU      1.69s WALL (       1 calls)
     electrons    :     48.12s CPU     49.01s WALL (       1 calls)
     forces       :      0.39s CPU      0.40s WALL (       1 calls)

     Called by init_run:
     wfcinit      :      1.13s CPU      1.15s WALL (       1 calls)
     potinit      :      0.12s CPU      0.18s WALL (       1 calls)
     hinit0       :      0.17s CPU      0.19s WALL (       1 calls)

     Called by electrons:
     c_bands      :     42.75s CPU     43.38s WALL (      11 calls)
     sum_band     :      4.34s CPU      4.43s WALL (      11 calls)
     v_of_rho     :      0.21s CPU      0.32s WALL (      11 calls)
     newd         :      0.22s CPU      0.24s WALL (      11 calls)
     PAW_pot      :      0.62s CPU      0.63s WALL (      11 calls)
     mix_rho      :      0.02s CPU      0.02s WALL (      11 calls)

     Called by c_bands:
     init_us_2    :      0.39s CPU      0.40s WALL (    3120 calls)
     init_us_2:cp :      0.39s CPU      0.40s WALL (    3120 calls)
     cegterg      :     35.64s CPU     36.22s WALL (    1430 calls)

     Called by *egterg:
     cdiaghg      :      5.90s CPU      5.97s WALL (    7169 calls)
     h_psi        :     23.24s CPU     23.69s WALL (    7429 calls)
     s_psi        :      1.28s CPU      1.30s WALL (    7429 calls)
     g_psi        :      0.15s CPU      0.15s WALL (    5869 calls)

     Called by h_psi:
     h_psi:calbec :      1.68s CPU      1.71s WALL (    7429 calls)
     vloc_psi     :     20.07s CPU     20.46s WALL (    7429 calls)
     add_vuspsi   :      1.37s CPU      1.40s WALL (    7429 calls)

     General routines
     calbec       :      2.17s CPU      2.22s WALL (    9379 calls)
     fft          :      0.18s CPU      0.37s WALL (     153 calls)
     ffts         :      0.03s CPU      0.04s WALL (      22 calls)
     fftw         :     21.30s CPU     21.71s WALL (  297820 calls)
     interpolate  :      0.04s CPU      0.09s WALL (      11 calls)
 
     Parallel routines
 
     PWSCF        :     51.09s CPU     53.91s WALL

 
   This run was terminated on:   8:54:53   3Dec2023            

=------------------------------------------------------------------------------=
   JOB DONE.
=------------------------------------------------------------------------------=
