MPI startup(): Warning: I_MPI_PMI_LIBRARY will be ignored since the hydra process manager was found
MPI startup(): Warning: I_MPI_PMI_LIBRARY will be ignored since the hydra process manager was found
MPI startup(): Warning: I_MPI_PMI_LIBRARY will be ignored since the hydra process manager was found
MPI startup(): Warning: I_MPI_PMI_LIBRARY will be ignored since the hydra process manager was found
MPI startup(): Warning: I_MPI_PMI_LIBRARY will be ignored since the hydra process manager was found
MPI startup(): Warning: I_MPI_PMI_LIBRARY will be ignored since the hydra process manager was found
MPI startup(): Warning: I_MPI_PMI_LIBRARY will be ignored since the hydra process manager was found
MPI startup(): Warning: I_MPI_PMI_LIBRARY will be ignored since the hydra process manager was found
MPI startup(): Warning: I_MPI_PMI_LIBRARY will be ignored since the hydra process manager was found
MPI startup(): Warning: I_MPI_PMI_LIBRARY will be ignored since the hydra process manager was found

     Program PWSCF v.7.0 starts on  3Dec2023 at  9: 7:55 

     This program is part of the open-source Quantum ESPRESSO suite
     for quantum simulation of materials; please cite
         "P. Giannozzi et al., J. Phys.:Condens. Matter 21 395502 (2009);
         "P. Giannozzi et al., J. Phys.:Condens. Matter 29 465901 (2017);
         "P. Giannozzi et al., J. Chem. Phys. 152 154105 (2020);
          URL http://www.quantum-espresso.org", 
     in publications or presentations arising from this work. More details at
     http://www.quantum-espresso.org/quote

     Parallel version (MPI), running on    10 processors

     MPI processes distributed on     1 nodes
     K-points division:     npool     =       2
     R & G space division:  proc/nbgrp/npool/nimage =       5
     83340 MiB available memory on the printing compute node when the environment starts
 
     Reading input from elasticFCC18.in
Warning: card &CELL ignored
Warning: card / ignored

     Current dimensions of program PWSCF are:
     Max number of different atomic species (ntypx) = 10
     Max number of k-points (npk) =  40000
     Max angular momentum in pseudopotentials (lmaxx) =  4
     file Au.pbe-n-kjpaw_psl.1.0.0.UPF: wavefunction(s)  6S 5D renormalized

     Subspace diagonalization in iterative solution of the eigenvalue problem:
     one sub-group per band group will be used
     scalapack distributed-memory algorithm (size of sub-group:  2*  2 procs)

 
     Parallelization info
     --------------------
     sticks:   dense  smooth     PW     G-vecs:    dense   smooth      PW
     Min         607     210     63                23223     4740     785
     Max         609     211     65                23223     4743     785
     Sum        3043    1053    319               116115    23705    3925
 
     Using Slab Decomposition
 


     bravais-lattice index     =            0
     lattice parameter (alat)  =       8.2557  a.u.
     unit-cell volume          =     497.2156 (a.u.)^3
     number of atoms/cell      =            4
     number of atomic types    =            1
     number of electrons       =        44.00
     number of Kohn-Sham states=           26
     kinetic-energy cutoff     =      50.0000  Ry
     charge density cutoff     =     576.0000  Ry
     scf convergence threshold =      1.0E-06
     mixing beta               =       0.7000
     number of iterations used =            8  plain     mixing
     Exchange-correlation= SLA  PW   PBX  PBC
                           (   1   4   3   4   0   0   0)

     celldm(1)=   8.255664  celldm(2)=   0.000000  celldm(3)=   0.000000
     celldm(4)=   0.000000  celldm(5)=   0.000000  celldm(6)=   0.000000

     crystal axes: (cart. coord. in units of alat)
               a(1) = (   1.000000   0.000000   0.000000 )  
               a(2) = (   0.000000   0.974045   0.000000 )  
               a(3) = (   0.000000   0.000000   0.907214 )  

     reciprocal axes: (cart. coord. in units 2 pi/alat)
               b(1) = (  1.000000  0.000000  0.000000 )  
               b(2) = (  0.000000  1.026647  0.000000 )  
               b(3) = (  0.000000  0.000000  1.102275 )  


     PseudoPot. # 1 for Au read from file:
     ./Au.pbe-n-kjpaw_psl.1.0.0.UPF
     MD5 check sum: 4db85c736373c707a97ce4c36c2a9d23
     Pseudo is Projector augmented-wave + core cor, Zval = 11.0
     Generated using &quot;atomic&quot; code by A. Dal Corso  v.6.3
     Shape of augmentation charge: PSQ
     Using radial grid of 1279 points,  6 beta functions with: 
                l(1) =   0
                l(2) =   0
                l(3) =   1
                l(4) =   1
                l(5) =   2
                l(6) =   2
     Q(r) pseudized with 0 coefficients 


     atomic species   valence    mass     pseudopotential
        Au            11.00   196.96657     Au( 1.00)

     No symmetry found



   Cartesian axes

     site n.     atom                  positions (alat units)
         1           Au  tau(   1) = (   0.0000000   0.0000000   0.0000000  )
         2           Au  tau(   2) = (   0.0000000   0.4765066   0.4765066  )
         3           Au  tau(   3) = (   0.4765066   0.0000000   0.4765066  )
         4           Au  tau(   4) = (   0.4765066   0.4765066   0.0000000  )

     number of k points=   260  Gaussian smearing, width (Ry)=  0.0020

     Number of k-points >= 100: set verbosity='high' to print them.

     Dense  grid:   116115 G-vectors     FFT dimensions: (  64,  64,  60)

     Smooth grid:    23705 G-vectors     FFT dimensions: (  40,  40,  36)

     Estimated max dynamical RAM per process >      81.20 MB

     Estimated total dynamical RAM >     783.70 MB

     Initial potential from superposition of free atoms

     starting charge      43.9996, renormalised to      44.0000
     Starting wfcs are   36 randomized atomic wfcs
     Checking if some PAW data can be deallocated... 

     total cpu time spent up to now is        2.6 secs

     Self-consistent Calculation

     iteration #  1     ecut=    50.00 Ry     beta= 0.70
     Davidson diagonalization with overlap
     ethr =  1.00E-02,  avg # of iterations =  2.9

     Threshold (ethr) on eigenvalues was too large:
     Diagonalizing with lowered threshold

     Davidson diagonalization with overlap
     ethr =  2.87E-04,  avg # of iterations =  4.3

     total cpu time spent up to now is       11.2 secs

     total energy              =   -3100.47805601 Ry
     estimated scf accuracy    <       0.18258503 Ry

     iteration #  2     ecut=    50.00 Ry     beta= 0.70
     Davidson diagonalization with overlap
     ethr =  4.15E-04,  avg # of iterations =  3.1

     total cpu time spent up to now is       15.6 secs

     total energy              =   -3100.53759235 Ry
     estimated scf accuracy    <       0.02024570 Ry

     iteration #  3     ecut=    50.00 Ry     beta= 0.70
     Davidson diagonalization with overlap
     ethr =  4.60E-05,  avg # of iterations =  5.1

     total cpu time spent up to now is       20.6 secs

     total energy              =   -3100.54229812 Ry
     estimated scf accuracy    <       0.00173769 Ry

     iteration #  4     ecut=    50.00 Ry     beta= 0.70
     Davidson diagonalization with overlap
     c_bands:  1 eigenvalues not converged
     c_bands:  1 eigenvalues not converged
     c_bands:  1 eigenvalues not converged
     ethr =  3.95E-06,  avg # of iterations =  6.4

     total cpu time spent up to now is       26.4 secs

     total energy              =   -3100.54323639 Ry
     estimated scf accuracy    <       0.00051835 Ry

     iteration #  5     ecut=    50.00 Ry     beta= 0.70
     Davidson diagonalization with overlap
     ethr =  1.18E-06,  avg # of iterations =  3.9

     total cpu time spent up to now is       31.3 secs

     total energy              =   -3100.54334010 Ry
     estimated scf accuracy    <       0.00059346 Ry

     iteration #  6     ecut=    50.00 Ry     beta= 0.70
     Davidson diagonalization with overlap
     c_bands:  1 eigenvalues not converged
     ethr =  1.18E-06,  avg # of iterations =  1.6

     total cpu time spent up to now is       34.4 secs

     total energy              =   -3100.54335585 Ry
     estimated scf accuracy    <       0.00010476 Ry

     iteration #  7     ecut=    50.00 Ry     beta= 0.70
     Davidson diagonalization with overlap
     ethr =  2.38E-07,  avg # of iterations =  4.1

     total cpu time spent up to now is       39.1 secs

     total energy              =   -3100.54338531 Ry
     estimated scf accuracy    <       0.00000738 Ry

     iteration #  8     ecut=    50.00 Ry     beta= 0.70
     Davidson diagonalization with overlap
     ethr =  1.68E-08,  avg # of iterations =  6.8

     total cpu time spent up to now is       46.8 secs

     total energy              =   -3100.54339663 Ry
     estimated scf accuracy    <       0.00000761 Ry

     iteration #  9     ecut=    50.00 Ry     beta= 0.70
     Davidson diagonalization with overlap
     ethr =  1.68E-08,  avg # of iterations =  1.1

     total cpu time spent up to now is       49.9 secs

     total energy              =   -3100.54339562 Ry
     estimated scf accuracy    <       0.00000261 Ry

     iteration # 10     ecut=    50.00 Ry     beta= 0.70
     Davidson diagonalization with overlap
     ethr =  5.93E-09,  avg # of iterations =  2.2

     total cpu time spent up to now is       53.8 secs

     End of self-consistent calculation

     Number of k-points >= 100: set verbosity='high' to print the bands.

     the Fermi energy is    14.1985 ev

!    total energy              =   -3100.54339611 Ry

     total all-electron energy =   -152095.927760 Ry
     estimated scf accuracy    <       0.00000011 Ry
     smearing contrib. (-TS)   =      -0.00004288 Ry
     internal energy E=F+TS    =   -3100.54335322 Ry

     The total energy is F=E-TS. E is the sum of the following terms:
     one-electron contribution =      43.06231780 Ry
     hartree contribution      =      34.11868747 Ry
     xc contribution           =    -128.25317349 Ry
     ewald contribution        =    -279.41772803 Ry
     one-center paw contrib.   =   -2770.05345697 Ry

     convergence has been achieved in  10 iterations

     Forces acting on atoms (cartesian axes, Ry/au):

     atom    1 type  1   force =    -0.02295946   -0.01126515    0.02602540
     atom    2 type  1   force =    -0.02296015    0.01127152   -0.02602196
     atom    3 type  1   force =     0.02296682   -0.01126678   -0.02602385
     atom    4 type  1   force =     0.02295280    0.01126042    0.02602041

     Total force =     0.072973     Total SCF correction =     0.000189

     Writing all to output data dir ./pwscf.save/
 
     init_run     :      2.15s CPU      2.31s WALL (       1 calls)
     electrons    :     50.35s CPU     51.22s WALL (       1 calls)
     forces       :      0.43s CPU      0.45s WALL (       1 calls)

     Called by init_run:
     wfcinit      :      1.75s CPU      1.82s WALL (       1 calls)
     potinit      :      0.13s CPU      0.19s WALL (       1 calls)
     hinit0       :      0.17s CPU      0.19s WALL (       1 calls)

     Called by electrons:
     c_bands      :     44.01s CPU     44.62s WALL (      11 calls)
     sum_band     :      5.21s CPU      5.32s WALL (      11 calls)
     v_of_rho     :      0.28s CPU      0.39s WALL (      11 calls)
     newd         :      0.25s CPU      0.26s WALL (      11 calls)
     PAW_pot      :      0.61s CPU      0.62s WALL (      11 calls)
     mix_rho      :      0.02s CPU      0.02s WALL (      11 calls)

     Called by c_bands:
     init_us_2    :      0.42s CPU      0.43s WALL (    3120 calls)
     init_us_2:cp :      0.42s CPU      0.42s WALL (    3120 calls)
     cegterg      :     36.69s CPU     37.25s WALL (    1430 calls)

     Called by *egterg:
     cdiaghg      :      5.35s CPU      5.43s WALL (    6665 calls)
     h_psi        :     25.89s CPU     26.35s WALL (    6925 calls)
     s_psi        :      1.25s CPU      1.27s WALL (    6925 calls)
     g_psi        :      0.14s CPU      0.14s WALL (    5365 calls)

     Called by h_psi:
     h_psi:calbec :      1.55s CPU      1.57s WALL (    6925 calls)
     vloc_psi     :     22.92s CPU     23.34s WALL (    6925 calls)
     add_vuspsi   :      1.32s CPU      1.34s WALL (    6925 calls)

     General routines
     calbec       :      2.06s CPU      2.10s WALL (    8875 calls)
     fft          :      0.26s CPU      0.46s WALL (     153 calls)
     ffts         :      0.02s CPU      0.04s WALL (      22 calls)
     fftw         :     24.74s CPU     25.18s WALL (  272508 calls)
     interpolate  :      0.04s CPU      0.10s WALL (      11 calls)
 
     Parallel routines
 
     PWSCF        :     53.93s CPU     57.35s WALL

 
   This run was terminated on:   9: 8:52   3Dec2023            

=------------------------------------------------------------------------------=
   JOB DONE.
=------------------------------------------------------------------------------=
