MPI startup(): Warning: I_MPI_PMI_LIBRARY will be ignored since the hydra process manager was found
MPI startup(): Warning: I_MPI_PMI_LIBRARY will be ignored since the hydra process manager was found
MPI startup(): Warning: I_MPI_PMI_LIBRARY will be ignored since the hydra process manager was found
MPI startup(): Warning: I_MPI_PMI_LIBRARY will be ignored since the hydra process manager was found
MPI startup(): Warning: I_MPI_PMI_LIBRARY will be ignored since the hydra process manager was found
MPI startup(): Warning: I_MPI_PMI_LIBRARY will be ignored since the hydra process manager was found
MPI startup(): Warning: I_MPI_PMI_LIBRARY will be ignored since the hydra process manager was found
MPI startup(): Warning: I_MPI_PMI_LIBRARY will be ignored since the hydra process manager was found
MPI startup(): Warning: I_MPI_PMI_LIBRARY will be ignored since the hydra process manager was found
MPI startup(): Warning: I_MPI_PMI_LIBRARY will be ignored since the hydra process manager was found

     Program PWSCF v.7.0 starts on  2Mar2024 at  8:26:52 

     This program is part of the open-source Quantum ESPRESSO suite
     for quantum simulation of materials; please cite
         "P. Giannozzi et al., J. Phys.:Condens. Matter 21 395502 (2009);
         "P. Giannozzi et al., J. Phys.:Condens. Matter 29 465901 (2017);
         "P. Giannozzi et al., J. Chem. Phys. 152 154105 (2020);
          URL http://www.quantum-espresso.org", 
     in publications or presentations arising from this work. More details at
     http://www.quantum-espresso.org/quote

     Parallel version (MPI), running on    10 processors

     MPI processes distributed on     1 nodes
     R & G space division:  proc/nbgrp/npool/nimage =      10
     115235 MiB available memory on the printing compute node when the environment starts
 
     Reading input from GSF110_0.1.in
Warning: card &CELL ignored
Warning: card / ignored

     Current dimensions of program PWSCF are:
     Max number of different atomic species (ntypx) = 10
     Max number of k-points (npk) =  40000
     Max angular momentum in pseudopotentials (lmaxx) =  4

     File ./pwscf.bfgs deleted, as requested
     file Au.pbe-n-kjpaw_psl.1.0.0.UPF: wavefunction(s)  6S 5D renormalized
     Found identity + (  0.0000 -0.5000  0.0000) symmetry
     This is a supercell, fractional translations are disabled
     Message from routine setup:
     using ibrav=0 with symmetry is DISCOURAGED, use correct ibrav instead

     Subspace diagonalization in iterative solution of the eigenvalue problem:
     one sub-group per band group will be used
     scalapack distributed-memory algorithm (size of sub-group:  3*  3 procs)

 
     Parallelization info
     --------------------
     sticks:   dense  smooth     PW     G-vecs:    dense   smooth      PW
     Min         133     133     38                14227    14227    2178
     Max         134     134     39                14242    14242    2183
     Sum        1339    1339    389               142317   142317   21821
 
     Using Slab Decomposition
 


     bravais-lattice index     =            0
     lattice parameter (alat)  =       7.7101  a.u.
     unit-cell volume          =    2979.1368 (a.u.)^3
     number of atoms/cell      =           28
     number of atomic types    =            1
     number of electrons       =       308.00
     number of Kohn-Sham states=          185
     kinetic-energy cutoff     =      50.0000  Ry
     charge density cutoff     =     200.0000  Ry
     scf convergence threshold =      1.0E-06
     mixing beta               =       0.1000
     number of iterations used =            8  plain     mixing
     Exchange-correlation= SLA  PW   PBX  PBC
                           (   1   4   3   4   0   0   0)

     celldm(1)=   7.710083  celldm(2)=   0.000000  celldm(3)=   0.000000
     celldm(4)=   0.000000  celldm(5)=   0.000000  celldm(6)=   0.000000

     crystal axes: (cart. coord. in units of alat)
               a(1) = (   1.000000   0.000000   0.000000 )  
               a(2) = (   0.000000   1.414214   0.000000 )  
               a(3) = (   0.000000   0.000000   4.596194 )  

     reciprocal axes: (cart. coord. in units 2 pi/alat)
               b(1) = (  1.000000  0.000000  0.000000 )  
               b(2) = (  0.000000  0.707107  0.000000 )  
               b(3) = (  0.000000  0.000000  0.217571 )  


     PseudoPot. # 1 for Au read from file:
     ./Au.pbe-n-kjpaw_psl.1.0.0.UPF
     MD5 check sum: 4db85c736373c707a97ce4c36c2a9d23
     Pseudo is Projector augmented-wave + core cor, Zval = 11.0
     Generated using &quot;atomic&quot; code by A. Dal Corso  v.6.3
     Shape of augmentation charge: PSQ
     Using radial grid of 1279 points,  6 beta functions with: 
                l(1) =   0
                l(2) =   0
                l(3) =   1
                l(4) =   1
                l(5) =   2
                l(6) =   2
     Q(r) pseudized with 0 coefficients 


     atomic species   valence    mass     pseudopotential
        Au            11.00   196.96657     Au( 1.00)

      2 Sym. Ops. (no inversion) found



   Cartesian axes

     site n.     atom                  positions (alat units)
         1           Au  tau(   1) = (   0.5000000   0.3535534   0.0000000  )
         2           Au  tau(   2) = (   0.5000000   1.0606602   0.0000000  )
         3           Au  tau(   3) = (   0.0000000   0.0000000   0.3535534  )
         4           Au  tau(   4) = (   0.0000000   0.7071068   0.3535534  )
         5           Au  tau(   5) = (   0.5000000   0.3535534   0.7071068  )
         6           Au  tau(   6) = (   0.5000000   1.0606602   0.7071068  )
         7           Au  tau(   7) = (   0.0000000   0.0000000   1.0606602  )
         8           Au  tau(   8) = (   0.0000000   0.7071068   1.0606602  )
         9           Au  tau(   9) = (   0.5000000   0.3535534   1.4142136  )
        10           Au  tau(  10) = (   0.5000000   1.0606602   1.4142136  )
        11           Au  tau(  11) = (   0.0000000   0.0000000   1.7677670  )
        12           Au  tau(  12) = (   0.0000000   0.7071068   1.7677670  )
        13           Au  tau(  13) = (   0.5000000   0.3535534   2.1213203  )
        14           Au  tau(  14) = (   0.5000000   1.0606602   2.1213203  )
        15           Au  tau(  15) = (   0.0000000   0.0000000   2.4748737  )
        16           Au  tau(  16) = (   0.0000000   0.7071068   2.4748737  )
        17           Au  tau(  17) = (   0.6000000   0.3535534   2.8284271  )
        18           Au  tau(  18) = (   0.6000000   1.0606602   2.8284271  )
        19           Au  tau(  19) = (   0.1000000   0.0000000   3.1819805  )
        20           Au  tau(  20) = (   0.1000000   0.7071068   3.1819805  )
        21           Au  tau(  21) = (   0.6000000   0.3535534   3.5355339  )
        22           Au  tau(  22) = (   0.6000000   1.0606602   3.5355339  )
        23           Au  tau(  23) = (   0.1000000   0.0000000   3.8890873  )
        24           Au  tau(  24) = (   0.1000000   0.7071068   3.8890873  )
        25           Au  tau(  25) = (   0.6000000   0.3535534   4.2426407  )
        26           Au  tau(  26) = (   0.6000000   1.0606602   4.2426407  )
        27           Au  tau(  27) = (   0.1000000   0.0000000   4.5961941  )
        28           Au  tau(  28) = (   0.1000000   0.7071068   4.5961941  )

     number of k points=    35  Gaussian smearing, width (Ry)=  0.0200
                       cart. coord. in units 2pi/alat
        k(    1) = (   0.0000000   0.0000000   0.0000000), wk =   0.0208333
        k(    2) = (   0.0000000   0.0589256   0.0000000), wk =   0.0416667
        k(    3) = (   0.0000000   0.1178511   0.0000000), wk =   0.0416667
        k(    4) = (   0.0000000   0.1767767   0.0000000), wk =   0.0416667
        k(    5) = (   0.0000000   0.2357023   0.0000000), wk =   0.0416667
        k(    6) = (   0.0000000   0.2946278   0.0000000), wk =   0.0416667
        k(    7) = (   0.0000000  -0.3535534   0.0000000), wk =   0.0208333
        k(    8) = (   0.1250000   0.0000000   0.0000000), wk =   0.0416667
        k(    9) = (   0.1250000   0.0589256   0.0000000), wk =   0.0833333
        k(   10) = (   0.1250000   0.1178511   0.0000000), wk =   0.0833333
        k(   11) = (   0.1250000   0.1767767   0.0000000), wk =   0.0833333
        k(   12) = (   0.1250000   0.2357023   0.0000000), wk =   0.0833333
        k(   13) = (   0.1250000   0.2946278   0.0000000), wk =   0.0833333
        k(   14) = (   0.1250000  -0.3535534   0.0000000), wk =   0.0416667
        k(   15) = (   0.2500000   0.0000000   0.0000000), wk =   0.0416667
        k(   16) = (   0.2500000   0.0589256   0.0000000), wk =   0.0833333
        k(   17) = (   0.2500000   0.1178511   0.0000000), wk =   0.0833333
        k(   18) = (   0.2500000   0.1767767   0.0000000), wk =   0.0833333
        k(   19) = (   0.2500000   0.2357023   0.0000000), wk =   0.0833333
        k(   20) = (   0.2500000   0.2946278   0.0000000), wk =   0.0833333
        k(   21) = (   0.2500000  -0.3535534   0.0000000), wk =   0.0416667
        k(   22) = (   0.3750000   0.0000000   0.0000000), wk =   0.0416667
        k(   23) = (   0.3750000   0.0589256   0.0000000), wk =   0.0833333
        k(   24) = (   0.3750000   0.1178511   0.0000000), wk =   0.0833333
        k(   25) = (   0.3750000   0.1767767   0.0000000), wk =   0.0833333
        k(   26) = (   0.3750000   0.2357023   0.0000000), wk =   0.0833333
        k(   27) = (   0.3750000   0.2946278   0.0000000), wk =   0.0833333
        k(   28) = (   0.3750000  -0.3535534   0.0000000), wk =   0.0416667
        k(   29) = (  -0.5000000   0.0000000   0.0000000), wk =   0.0208333
        k(   30) = (  -0.5000000   0.0589256   0.0000000), wk =   0.0416667
        k(   31) = (  -0.5000000   0.1178511   0.0000000), wk =   0.0416667
        k(   32) = (  -0.5000000   0.1767767   0.0000000), wk =   0.0416667
        k(   33) = (  -0.5000000   0.2357023   0.0000000), wk =   0.0416667
        k(   34) = (  -0.5000000   0.2946278   0.0000000), wk =   0.0416667
        k(   35) = (  -0.5000000  -0.3535534   0.0000000), wk =   0.0208333

     Dense  grid:   142317 G-vectors     FFT dimensions: (  36,  50, 160)

     Estimated max dynamical RAM per process >     261.85 MB

     Estimated total dynamical RAM >       2.56 GB

     Initial potential from superposition of free atoms

     starting charge     307.9969, renormalised to     308.0000
     Starting wfcs are  252 randomized atomic wfcs
     Checking if some PAW data can be deallocated... 

     total cpu time spent up to now is       15.5 secs

     Self-consistent Calculation

     iteration #  1     ecut=    50.00 Ry     beta= 0.10
     Davidson diagonalization with overlap
     ethr =  1.00E-02,  avg # of iterations =  4.2

     total cpu time spent up to now is       57.8 secs

     total energy              =  -21684.58739975 Ry
     estimated scf accuracy    <      29.53293623 Ry

     iteration #  2     ecut=    50.00 Ry     beta= 0.10
     Davidson diagonalization with overlap
     ethr =  9.59E-03,  avg # of iterations =  2.9

     total cpu time spent up to now is       93.0 secs

     total energy              =  -21681.66959362 Ry
     estimated scf accuracy    <     394.75659205 Ry

     iteration #  3     ecut=    50.00 Ry     beta= 0.10
     Davidson diagonalization with overlap
     ethr =  9.59E-03,  avg # of iterations =  1.2

     total cpu time spent up to now is      122.1 secs

     total energy              =  -21689.45303536 Ry
     estimated scf accuracy    <       3.57669655 Ry

     iteration #  4     ecut=    50.00 Ry     beta= 0.10
     Davidson diagonalization with overlap
     ethr =  1.16E-03,  avg # of iterations =  4.7

     total cpu time spent up to now is      158.3 secs

     total energy              =  -21689.33539848 Ry
     estimated scf accuracy    <       1.08229920 Ry

     iteration #  5     ecut=    50.00 Ry     beta= 0.10
     Davidson diagonalization with overlap
     ethr =  3.51E-04,  avg # of iterations =  6.8

     total cpu time spent up to now is      202.8 secs

     total energy              =  -21689.47012632 Ry
     estimated scf accuracy    <       0.60512999 Ry

     iteration #  6     ecut=    50.00 Ry     beta= 0.10
     Davidson diagonalization with overlap
     ethr =  1.96E-04,  avg # of iterations =  2.1

     total cpu time spent up to now is      235.8 secs

     total energy              =  -21689.44580066 Ry
     estimated scf accuracy    <       0.45978263 Ry

     iteration #  7     ecut=    50.00 Ry     beta= 0.10
     Davidson diagonalization with overlap
     ethr =  1.49E-04,  avg # of iterations =  3.1

     total cpu time spent up to now is      270.1 secs

     total energy              =  -21689.49772598 Ry
     estimated scf accuracy    <       0.04771368 Ry

     iteration #  8     ecut=    50.00 Ry     beta= 0.10
     Davidson diagonalization with overlap
     c_bands:  2 eigenvalues not converged
     c_bands:  2 eigenvalues not converged
     c_bands:  1 eigenvalues not converged
     c_bands:  2 eigenvalues not converged
     c_bands:  1 eigenvalues not converged
     c_bands:  4 eigenvalues not converged
     c_bands:  1 eigenvalues not converged
     c_bands:  2 eigenvalues not converged
     c_bands:  1 eigenvalues not converged
     c_bands:  3 eigenvalues not converged
     c_bands:  2 eigenvalues not converged
     c_bands:  1 eigenvalues not converged
     c_bands:  1 eigenvalues not converged
     c_bands:  1 eigenvalues not converged
     c_bands:  3 eigenvalues not converged
     ethr =  1.55E-05,  avg # of iterations = 16.4

     total cpu time spent up to now is      356.3 secs

     total energy              =  -21689.52343634 Ry
     estimated scf accuracy    <       0.05443938 Ry

     iteration #  9     ecut=    50.00 Ry     beta= 0.10
     Davidson diagonalization with overlap
     c_bands:  1 eigenvalues not converged
     ethr =  1.55E-05,  avg # of iterations =  2.9

     total cpu time spent up to now is      388.5 secs

     total energy              =  -21689.51990095 Ry
     estimated scf accuracy    <       0.04050998 Ry

     iteration # 10     ecut=    50.00 Ry     beta= 0.10
     Davidson diagonalization with overlap
     ethr =  1.32E-05,  avg # of iterations =  2.0

     total cpu time spent up to now is      422.0 secs

     total energy              =  -21689.52398400 Ry
     estimated scf accuracy    <       0.00265417 Ry

     iteration # 11     ecut=    50.00 Ry     beta= 0.10
     Davidson diagonalization with overlap
     c_bands:  1 eigenvalues not converged
     c_bands:  1 eigenvalues not converged
     c_bands:  1 eigenvalues not converged
     c_bands:  1 eigenvalues not converged
     ethr =  8.62E-07,  avg # of iterations =  9.8

     total cpu time spent up to now is      483.0 secs

     total energy              =  -21689.52504570 Ry
     estimated scf accuracy    <       0.00056839 Ry

     iteration # 12     ecut=    50.00 Ry     beta= 0.10
     Davidson diagonalization with overlap
     ethr =  1.85E-07,  avg # of iterations =  4.5

     total cpu time spent up to now is      527.7 secs

     total energy              =  -21689.52514320 Ry
     estimated scf accuracy    <       0.00041634 Ry

     iteration # 13     ecut=    50.00 Ry     beta= 0.10
     Davidson diagonalization with overlap
     ethr =  1.35E-07,  avg # of iterations =  2.0

     total cpu time spent up to now is      563.3 secs

     total energy              =  -21689.52517430 Ry
     estimated scf accuracy    <       0.00009684 Ry

     iteration # 14     ecut=    50.00 Ry     beta= 0.10
     Davidson diagonalization with overlap
     ethr =  3.14E-08,  avg # of iterations =  4.0

     total cpu time spent up to now is      611.3 secs

     total energy              =  -21689.52521562 Ry
     estimated scf accuracy    <       0.00007611 Ry

     iteration # 15     ecut=    50.00 Ry     beta= 0.10
     Davidson diagonalization with overlap
     ethr =  2.47E-08,  avg # of iterations =  2.0

     total cpu time spent up to now is      649.6 secs

     total energy              =  -21689.52519910 Ry
     estimated scf accuracy    <       0.00003695 Ry

     iteration # 16     ecut=    50.00 Ry     beta= 0.10
     Davidson diagonalization with overlap
     ethr =  1.20E-08,  avg # of iterations =  2.2

     total cpu time spent up to now is      690.7 secs

     total energy              =  -21689.52521104 Ry
     estimated scf accuracy    <       0.00001174 Ry

     iteration # 17     ecut=    50.00 Ry     beta= 0.10
     Davidson diagonalization with overlap
     ethr =  3.81E-09,  avg # of iterations =  4.9

     total cpu time spent up to now is      737.9 secs

     total energy              =  -21689.52521319 Ry
     estimated scf accuracy    <       0.00001205 Ry

     iteration # 18     ecut=    50.00 Ry     beta= 0.10
     Davidson diagonalization with overlap
     ethr =  3.81E-09,  avg # of iterations =  1.0

     total cpu time spent up to now is      767.2 secs

     total energy              =  -21689.52521261 Ry
     estimated scf accuracy    <       0.00000876 Ry

     iteration # 19     ecut=    50.00 Ry     beta= 0.10
     Davidson diagonalization with overlap
     ethr =  2.84E-09,  avg # of iterations =  2.0

     total cpu time spent up to now is      801.2 secs

     total energy              =  -21689.52521301 Ry
     estimated scf accuracy    <       0.00000342 Ry

     iteration # 20     ecut=    50.00 Ry     beta= 0.10
     Davidson diagonalization with overlap
     ethr =  1.11E-09,  avg # of iterations =  1.5

     total cpu time spent up to now is      832.3 secs

     End of self-consistent calculation

          k = 0.0000 0.0000 0.0000 ( 17807 PWs)   bands (ev):

     0.7892   0.8547   0.9259   0.9265   1.9819   2.2089   2.2106   2.4193
     2.9086   3.0095   3.4471   3.4493   3.8774   5.0889   5.8465   5.8476
     5.9177   7.0186   7.0199   7.7174   8.3783   8.3926   9.6627   9.6850
    10.0741  10.3394  10.3404  10.4197  10.9045  10.9807  10.9818  11.0660
    11.2230  11.2313  11.2517  11.2959  11.3078  11.3343  11.4537  11.4613
    11.4686  11.5462  11.5671  11.6028  11.6755  11.6991  11.7231  11.8082
    11.8480  11.8582  11.8858  12.0035  12.0666  12.0946  12.0973  12.0998
    12.1113  12.3184  12.3682  12.3907  12.4329  12.5952  12.6138  12.6780
    12.6998  12.7648  12.8008  12.8209  12.9130  12.9813  13.0810  13.0818
    13.1213  13.1466  13.1688  13.1947  13.2094  13.2290  13.2470  13.4234
    13.4689  13.5433  13.5900  13.6988  13.7032  13.8185  13.8647  13.9521
    13.9892  14.0285  14.1367  14.2212  14.2533  14.2585  14.3218  14.4237
    14.4747  14.4870  14.5025  14.5433  14.6780  14.7490  14.7676  14.7707
    14.8065  14.8126  14.8734  14.8915  14.9007  14.9790  15.0235  15.0464
    15.1199  15.2026  15.2601  15.2811  15.3249  15.3266  15.4318  15.5154
    15.5199  15.5842  15.6173  15.6293  15.6961  15.7336  15.8214  15.8468
    15.8618  15.9086  15.9783  15.9846  16.0429  16.0955  16.2064  16.2075
    16.2194  16.3758  16.3796  16.4878  16.4902  16.6972  16.6987  16.9572
    16.9660  17.1147  17.3485  17.3497  17.4137  17.7285  17.7294  17.8813
    17.8883  18.0349  18.0475  18.1157  18.3750  18.3753  18.8264  18.8334
    19.4346  19.6836  20.3097  20.5430  21.3127  21.3128  21.5856  22.3622
    22.4766  23.0874  23.3461  23.4126  23.4140  23.5811  24.0597  24.7360
    24.7376  24.7967  24.8008  25.0005  25.3622  25.8684  25.9988  26.0554
    26.0708

          k = 0.0000 0.0589 0.0000 ( 17795 PWs)   bands (ev):

     0.8134   0.8592   0.9096   0.9588   1.9653   2.1967   2.2027   2.4013
     2.9169   3.0462   3.3903   3.5009   3.8946   5.0860   5.6217   5.9383
     6.1102   6.7828   7.1641   7.7376   8.4172   8.4316   9.6973   9.7193
     9.9898  10.3233  10.3673  10.4517  10.9406  10.9844  10.9946  11.0986
    11.1682  11.2188  11.2475  11.2808  11.3113  11.3547  11.4227  11.4478
    11.4951  11.5601  11.5691  11.5912  11.6320  11.6781  11.7040  11.7276
    11.7479  11.8472  11.9047  11.9097  11.9491  12.1741  12.1777  12.2183
    12.2384  12.3154  12.4142  12.4401  12.4507  12.5782  12.6469  12.6602
    12.6870  12.7183  12.7461  12.8721  12.9371  12.9715  12.9912  13.0204
    13.0215  13.1220  13.1932  13.2119  13.2966  13.3042  13.3543  13.3919
    13.4259  13.5582  13.5925  13.6755  13.7259  13.8218  13.8819  13.9312
    13.9796  13.9970  14.1800  14.2164  14.2640  14.3103  14.3279  14.4346
    14.4712  14.4910  14.5220  14.5643  14.6592  14.6758  14.7674  14.7776
    14.7918  14.8267  14.8326  14.8475  14.9249  14.9698  15.0032  15.0165
    15.1416  15.2008  15.2475  15.2503  15.3252  15.3264  15.4423  15.5082
    15.5697  15.5843  15.6145  15.6333  15.6860  15.7032  15.7622  15.8240
    15.8551  15.8902  15.9631  15.9707  16.0419  16.1023  16.1748  16.2012
    16.2337  16.3410  16.3988  16.4068  16.4799  16.5698  16.7326  16.9496
    16.9699  17.0767  17.1440  17.1579  17.2801  17.3802  17.4147  17.4374
    17.6778  18.0978  18.2735  18.3180  18.6003  18.7404  19.2729  19.3349
    19.4780  19.7252  20.4012  20.6027  21.3450  21.5726  21.6013  22.4042
    22.5004  23.1136  23.1625  23.3469  23.5886  23.6355  24.0605  24.1967
    24.3005  25.0178  25.1465  25.3626  25.5068  25.7317  25.8558  25.8701
    25.9380

          k = 0.0000 0.1179 0.0000 ( 17803 PWs)   bands (ev):

     0.8713   0.8835   0.9061   1.0080   1.9187   2.1561   2.1847   2.3568
     2.9405   3.1428   3.3312   3.5440   3.9500   5.0786   5.4339   6.0003
     6.4094   6.4683   7.2121   7.7953   8.5319   8.5485   9.7520   9.8050
     9.8281  10.2846  10.3384  10.5440  10.8518  10.9721  11.0345  11.0491
    11.1146  11.1903  11.2427  11.2773  11.3442  11.3557  11.4226  11.4596
    11.4822  11.5429  11.5460  11.6289  11.6355  11.6444  11.7036  11.7630
    11.7880  11.8164  11.8344  11.9455  12.0559  12.2141  12.2343  12.2708
    12.3123  12.3903  12.4006  12.5089  12.5238  12.5601  12.5947  12.6343
    12.6452  12.7046  12.7480  12.7689  12.8241  12.8495  12.9317  12.9891
    13.0494  13.1020  13.1708  13.1871  13.2954  13.3478  13.3874  13.4733
    13.5478  13.5539  13.6173  13.6909  13.7242  13.8009  13.8874  13.8946
    13.9727  13.9791  14.2085  14.2623  14.2683  14.3412  14.3766  14.4331
    14.5037  14.5074  14.5779  14.5858  14.6220  14.6389  14.6955  14.7138
    14.7501  14.7641  14.8059  14.8690  14.8838  14.9599  14.9757  14.9907
    15.1159  15.1336  15.2157  15.2979  15.3211  15.3237  15.3983  15.4107
    15.4622  15.5645  15.5724  15.6569  15.6693  15.6943  15.7945  15.8184
    15.8464  15.8782  15.9035  15.9304  15.9671  16.0252  16.0696  16.1408
    16.2412  16.3278  16.3584  16.3889  16.4534  16.4720  16.5656  16.6417
    16.7076  16.7459  16.7996  16.9328  16.9405  17.0560  17.1521  17.4862
    17.6145  17.9061  18.3009  18.6469  19.2640  19.4223  19.5953  19.8433
    20.0912  20.1314  20.6605  20.7643  21.4658  21.6557  21.9319  22.5183
    22.5736  23.1792  23.1807  23.3331  23.4954  23.6125  23.9302  23.9459
    24.0761  25.0609  25.1376  25.2295  25.3112  25.3407  25.4700  25.6299
    25.8833

          k = 0.0000 0.1768 0.0000 ( 17795 PWs)   bands (ev):

     0.8882   0.9114   0.9899   1.0722   1.8516   2.0834   2.1650   2.3016
     2.9760   3.2696   3.2741   3.5736   4.0561   5.0710   5.2811   6.0981
     6.1038   6.7395   7.1672   7.8802   8.7171   8.7417   9.4551   9.9052
     9.9620   9.9837  10.3876  10.6837  10.7332  10.8162  10.9743  11.0800
    11.1586  11.1623  11.1892  11.2641  11.3142  11.4473  11.4839  11.4850
    11.5088  11.5423  11.5942  11.6952  11.7095  11.7166  11.7321  11.7794
    11.8816  11.9059  11.9515  12.0457  12.2128  12.2153  12.2558  12.2626
    12.3206  12.3660  12.3798  12.4518  12.4967  12.5259  12.5682  12.6005
    12.6404  12.6512  12.6808  12.7438  12.7745  12.8265  12.8592  12.9496
    12.9708  13.1091  13.1377  13.2582  13.2591  13.3384  13.4044  13.4936
    13.5918  13.6355  13.6536  13.6942  13.7517  13.7899  13.8257  13.9112
    13.9276  14.0511  14.1800  14.2742  14.2833  14.3354  14.3386  14.4128
    14.4592  14.4859  14.5063  14.5877  14.5891  14.6192  14.6763  14.7067
    14.7250  14.7524  14.7966  14.8291  14.8993  14.9533  14.9678  14.9809
    15.0039  15.0251  15.1712  15.1848  15.2470  15.2575  15.3294  15.3346
    15.3545  15.4366  15.5471  15.5640  15.6227  15.6412  15.6837  15.7026
    15.7463  15.7898  15.8225  15.9536  15.9658  16.0048  16.0356  16.0784
    16.1380  16.1652  16.1694  16.2270  16.2701  16.3572  16.3591  16.4083
    16.4335  16.6703  16.7765  16.8537  16.9509  17.0310  17.0872  17.5459
    17.5545  17.7353  18.2912  19.1268  19.7604  20.0111  20.0241  20.1465
    20.8129  20.8416  20.9112  21.1374  21.5650  21.8020  22.0412  22.6659
    22.6919  23.0895  23.2327  23.2896  23.2988  23.6515  23.9644  24.0553
    24.1529  24.6992  24.8426  24.9106  25.1571  25.1902  25.3282  25.3814
    25.5710

          k = 0.0000 0.2357 0.0000 ( 17822 PWs)   bands (ev):

     0.9058   0.9201   1.1144   1.1462   1.7804   1.9814   2.1519   2.2470
     3.0193   3.2199   3.3930   3.5865   4.2313   5.0703   5.1558   5.7039
     6.2482   7.0166   7.1175   7.9653   8.9663   9.0036   9.1369   9.4741
    10.1653  10.1921  10.3627  10.4919  10.5551  10.8304  10.9215  10.9925
    11.1083  11.2547  11.2729  11.3195  11.3196  11.4408  11.5656  11.6060
    11.6306  11.6671  11.6901  11.7337  11.7765  11.8127  11.8484  11.8512
    11.9682  12.0192  12.0792  12.0811  12.1128  12.1658  12.2241  12.2494
    12.2847  12.2986  12.3980  12.4413  12.4605  12.4903  12.4983  12.4991
    12.5654  12.6490  12.7042  12.7590  12.8075  12.8258  12.8845  12.8993
    12.9460  13.0928  13.2491  13.2513  13.2923  13.3340  13.3996  13.5479
    13.5800  13.6444  13.6494  13.7471  13.7743  13.8256  13.8600  13.8663
    13.9491  14.0912  14.0952  14.2176  14.2345  14.2819  14.2939  14.3117
    14.3370  14.3677  14.4350  14.4717  14.5685  14.5925  14.6264  14.7076
    14.7210  14.7283  14.8183  14.8230  14.8340  14.8599  14.9295  14.9559
    14.9944  15.0056  15.0569  15.0608  15.1047  15.1657  15.1662  15.1883
    15.2790  15.2799  15.3500  15.3728  15.5102  15.5701  15.6000  15.6088
    15.6228  15.7012  15.7361  15.7473  15.7751  15.8221  15.8901  16.0210
    16.0666  16.0771  16.1567  16.2585  16.3326  16.3517  16.4075  16.4128
    16.4315  16.6475  16.7735  16.9416  16.9886  17.0776  17.1438  17.5719
    17.5907  17.6097  18.4225  19.6766  19.9444  20.2551  20.7451  20.7515
    20.8420  20.9639  21.3218  21.7039  22.1119  22.1242  22.1329  22.5588
    22.7567  22.8293  23.1162  23.1759  23.2658  23.7640  24.0935  24.3302
    24.4503  24.4962  24.6256  24.6681  24.7821  24.8792  25.2004  25.2172
    25.3131

          k = 0.0000 0.2946 0.0000 ( 17818 PWs)   bands (ev):

     0.9199   0.9268   1.2176   1.2211   1.7362   1.8639   2.1516   2.2006
     3.0672   3.1679   3.4878   3.5794   4.4839   5.0264   5.0870   5.3431
     6.4293   6.8467   7.4635   7.9717   8.9042   9.1274   9.2708   9.3365
     9.9924  10.1292  10.3880  10.4292  10.5920  10.8296  10.8603  10.8635
    11.1636  11.3216  11.3362  11.3706  11.4529  11.5123  11.6261  11.6778
    11.6922  11.7882  11.8017  11.8092  11.8627  11.8796  11.9030  11.9268
    11.9771  12.0021  12.0554  12.0693  12.0725  12.1070  12.1335  12.1949
    12.2715  12.3116  12.3168  12.3354  12.4134  12.4707  12.5270  12.5560
    12.5802  12.6362  12.6613  12.6701  12.8060  12.9209  12.9350  13.0086
    13.0369  13.1295  13.1565  13.3117  13.4190  13.4722  13.4861  13.5050
    13.5475  13.6528  13.7044  13.7540  13.8047  13.8282  13.8918  13.9240
    13.9319  14.0010  14.0195  14.1190  14.1597  14.1885  14.1969  14.2305
    14.2840  14.3003  14.3204  14.3923  14.4534  14.4763  14.5289  14.5756
    14.5858  14.6038  14.7066  14.7510  14.7670  14.8235  14.8813  14.8921
    14.9350  14.9568  14.9690  15.0403  15.0503  15.1262  15.1485  15.2216
    15.2329  15.2494  15.2677  15.3911  15.4042  15.4302  15.4539  15.5309
    15.5323  15.5744  15.6382  15.6430  15.6499  15.7976  15.8662  16.0529
    16.0663  16.1123  16.1677  16.2724  16.3138  16.3187  16.4049  16.4199
    16.6098  16.6445  16.7166  16.8616  17.0425  17.1486  17.2265  17.4578
    17.6688  17.6877  18.8797  20.0220  20.2797  20.4710  20.5268  20.7382
    21.0791  21.3915  21.5538  21.9108  22.3611  22.5158  22.6293  22.7745
    22.8037  22.8331  23.0214  23.0623  23.2682  23.6071  23.9059  24.0445
    24.1190  24.5042  24.5392  24.5883  24.8508  25.0382  25.0958  25.1310
    25.2311

          k = 0.0000-0.3536 0.0000 ( 17844 PWs)   bands (ev):

     0.9273   0.9273   1.2574   1.2574   1.7648   1.7648   2.1678   2.1678
     3.1171   3.1171   3.5483   3.5483   4.7863   4.7863   5.1462   5.1462
     6.6360   6.6360   7.7870   7.7870   8.9112   8.9112   9.6183   9.6183
     9.7151   9.7151  10.5959  10.5959  10.6665  10.6665  10.7608  10.7608
    11.2740  11.2740  11.4803  11.4803  11.5085  11.5085  11.6274  11.6275
    11.7039  11.7039  11.8962  11.8962  11.9260  11.9260  11.9421  11.9421
    11.9612  11.9612  11.9970  11.9970  12.1319  12.1319  12.1719  12.1719
    12.2501  12.2501  12.2626  12.2626  12.4204  12.4204  12.5134  12.5134
    12.6547  12.6547  12.7111  12.7111  12.8581  12.8581  12.9087  12.9087
    13.1445  13.1445  13.3567  13.3567  13.4689  13.4689  13.5334  13.5334
    13.6141  13.6141  13.6911  13.6911  13.8722  13.8722  13.9188  13.9188
    13.9697  13.9697  13.9985  13.9985  14.0824  14.0824  14.2070  14.2070
    14.2299  14.2299  14.2935  14.2935  14.3270  14.3270  14.5043  14.5043
    14.5543  14.5543  14.6654  14.6654  14.7924  14.7924  14.8620  14.8620
    14.9112  14.9112  15.0651  15.0651  15.0828  15.0828  15.2161  15.2161
    15.2638  15.2639  15.2977  15.2977  15.3782  15.3782  15.4493  15.4493
    15.4820  15.4821  15.5885  15.5885  15.7164  15.7164  15.9894  15.9894
    16.0753  16.0753  16.2418  16.2418  16.3117  16.3117  16.4100  16.4100
    16.6537  16.6537  16.7703  16.7703  17.1020  17.1020  17.3341  17.3341
    17.7077  17.7077  19.5484  19.5484  20.5341  20.5341  20.8018  20.8018
    20.9308  20.9308  22.2171  22.2171  22.2440  22.2440  22.9278  22.9278
    23.0565  23.0565  23.1740  23.1740  23.2449  23.2449  23.5146  23.5146
    24.3466  24.3466  24.7406  24.7406  24.8473  24.8473  24.9740  24.9741
    25.4589

          k = 0.1250 0.0000 0.0000 ( 17777 PWs)   bands (ev):

     0.8718   0.9126   0.9134   0.9139   1.9848   2.1419   2.1436   2.4517
     2.8363   3.0679   3.4651   3.4673   3.9451   5.1739   5.6747   5.6754
     6.0022   7.3357   7.3367   7.6470   8.5371   8.5867   9.6871   9.8329
     9.9041  10.3454  10.3977  10.3987  10.8177  11.0800  11.0805  11.1125
    11.2144  11.2735  11.2837  11.2841  11.3502  11.3593  11.4077  11.4539
    11.4637  11.4784  11.5549  11.5558  11.6379  11.6391  11.6807  11.6917
    11.7400  11.7551  11.7902  11.8380  11.8421  11.9545  12.1318  12.2516
    12.2612  12.2754  12.5730  12.6705  12.6805  12.7342  12.8240  12.8356
    12.8358  12.9055  13.0053  13.0075  13.0487  13.1129  13.1485  13.1530
    13.1770  13.1825  13.2973  13.3143  13.3547  13.3804  13.3967  13.4715
    13.4942  13.5012  13.6050  13.6168  13.7061  13.8025  13.8447  13.8627
    13.8965  13.9156  13.9915  13.9957  14.0094  14.0674  14.2980  14.3205
    14.3449  14.3642  14.4765  14.4870  14.4982  14.5204  14.6655  14.7067
    14.7816  14.7890  14.8302  14.8399  14.8599  14.9715  15.0403  15.0407
    15.0497  15.0796  15.2360  15.2420  15.2447  15.2864  15.3499  15.4197
    15.4451  15.5021  15.5807  15.6085  15.6379  15.6530  15.7095  15.7525
    15.8073  15.8553  15.8928  15.9676  16.0502  16.0688  16.1583  16.1890
    16.2022  16.3009  16.3048  16.4507  16.5495  16.7239  16.7269  16.8748
    16.9623  17.1131  17.1380  17.3278  17.3299  17.4933  17.8322  17.8325
    18.0164  18.0188  18.2722  18.2725  18.7351  18.7464  18.8861  19.4347
    19.4448  19.4617  19.6917  19.9652  21.1548  21.1999  21.2008  21.5185
    22.3132  22.6334  22.6338  23.3233  23.6539  23.9228  24.1188  24.4540
    24.4680  24.5811  24.5977  25.0227  25.0391  25.0458  25.2259  25.2649
    25.4079

          k = 0.1250 0.0589 0.0000 ( 17791 PWs)   bands (ev):

     0.8773   0.8969   0.9318   0.9472   1.9673   2.0920   2.1772   2.4306
     2.8571   3.0948   3.4183   3.5097   3.9646   5.1675   5.5099   5.8517
     6.0267   7.1270   7.4790   7.6694   8.5753   8.6245   9.7157   9.8152
     9.8694  10.3560  10.3831  10.4479  10.8546  11.0759  11.0956  11.1468
    11.1779  11.2392  11.2559  11.2755  11.3142  11.3527  11.4080  11.4271
    11.4541  11.4980  11.5123  11.5362  11.6119  11.6631  11.6971  11.7236
    11.7710  11.7965  11.8138  11.8572  11.8975  11.9389  12.0255  12.1534
    12.3134  12.4061  12.5725  12.6011  12.6817  12.7237  12.7830  12.8254
    12.8751  12.8806  12.9838  13.0130  13.0565  13.1032  13.1140  13.1546
    13.2211  13.2647  13.2759  13.2937  13.3195  13.3660  13.4283  13.4700
    13.5006  13.5100  13.6058  13.6236  13.6981  13.8185  13.8258  13.8593
    13.8857  13.9196  13.9515  13.9737  14.0494  14.1039  14.2566  14.3136
    14.3629  14.3786  14.4121  14.4816  14.5485  14.5650  14.6577  14.6852
    14.7669  14.7973  14.8328  14.8515  14.8602  14.9420  15.0042  15.0411
    15.0447  15.1183  15.2165  15.2224  15.2840  15.2961  15.3549  15.3950
    15.4396  15.4905  15.5443  15.5705  15.6274  15.6870  15.7001  15.7633
    15.8041  15.8707  15.8845  15.9285  16.0023  16.0892  16.1177  16.1426
    16.1899  16.2564  16.2939  16.3648  16.5614  16.5746  16.8382  16.9035
    16.9349  17.0556  17.1647  17.1862  17.2746  17.2778  17.5198  17.5746
    17.6615  17.8954  18.5546  18.5922  18.9695  18.9724  19.0155  19.5242
    19.6262  19.7331  19.7337  20.0099  21.1251  21.1845  21.5135  21.5365
    22.3449  22.3461  23.1514  23.3678  23.6538  23.8239  23.9402  23.9517
    24.1250  24.2565  24.4890  24.7014  24.9248  25.0141  25.2958  25.4220
    25.4914

          k = 0.1250 0.1179 0.0000 ( 17815 PWs)   bands (ev):

     0.8898   0.8945   0.9895   0.9983   1.9180   2.0274   2.1949   2.3812
     2.9039   3.1721   3.3677   3.5457   4.0266   5.1506   5.3695   5.9896
     6.1000   6.9147   7.5354   7.7335   8.6880   8.7366   9.5577   9.8380
     9.9706  10.2611  10.4511  10.4837  10.8104  10.9507  11.0327  11.1056
    11.1580  11.2254  11.2431  11.2988  11.3238  11.3703  11.3961  11.4588
    11.4790  11.5262  11.5534  11.5959  11.6048  11.6722  11.7414  11.7629
    11.8391  11.8414  11.9034  11.9055  11.9372  12.0051  12.0713  12.1907
    12.3731  12.4072  12.5203  12.5638  12.6197  12.6734  12.7199  12.7730
    12.8178  12.8192  12.8692  13.0150  13.0184  13.0597  13.0877  13.1318
    13.1838  13.2266  13.2335  13.2773  13.3290  13.3830  13.4267  13.4978
    13.5226  13.6064  13.6372  13.6387  13.7029  13.7749  13.7974  13.8328
    13.8649  13.9090  13.9448  14.0355  14.0883  14.1756  14.1807  14.3027
    14.3193  14.3510  14.3904  14.4694  14.5610  14.6457  14.6502  14.6787
    14.7246  14.7761  14.8187  14.8498  14.8974  14.9229  14.9277  14.9593
    15.0940  15.1569  15.2042  15.2492  15.2547  15.3191  15.3523  15.3621
    15.3948  15.4588  15.4609  15.5574  15.5819  15.6415  15.7241  15.7303
    15.7968  15.8216  15.8670  15.9039  15.9196  15.9943  16.0710  16.1264
    16.1642  16.2043  16.2136  16.2765  16.3924  16.5888  16.6260  16.6850
    16.8470  16.8903  16.9548  17.0178  17.0313  17.0982  17.2843  17.4046
    17.6424  17.8208  18.5261  18.7256  19.2176  19.4060  19.6013  19.6973
    19.8570  20.1440  20.3760  20.4383  20.9532  21.2683  21.5873  21.8993
    22.3940  22.4165  23.3338  23.4307  23.4931  23.5794  23.6495  23.8117
    23.9935  24.0527  24.1389  24.1864  24.5460  24.9663  25.4481  25.8412
    25.9013

          k = 0.1250 0.1768 0.0000 ( 17796 PWs)   bands (ev):

     0.9022   0.9052   1.0653   1.0773   1.8463   1.9514   2.1987   2.3240
     2.9588   3.2817   3.3151   3.5708   4.1420   5.1289   5.2567   5.9470
     6.2214   6.8556   7.5049   7.8292   8.8696   8.9183   9.2428   9.8538
    10.0033  10.1315  10.4539  10.6320  10.6653  10.8766  10.9569  11.0706
    11.1562  11.2473  11.2726  11.3301  11.3385  11.3742  11.4844  11.5212
    11.5659  11.5868  11.6225  11.6558  11.6576  11.7247  11.8326  11.8503
    11.8678  11.9710  11.9926  12.0427  12.0440  12.1057  12.1633  12.2322
    12.3821  12.3978  12.4095  12.5245  12.5487  12.5717  12.6392  12.6981
    12.7165  12.7500  12.7954  12.9173  12.9494  12.9789  13.0379  13.0554
    13.0855  13.1648  13.2997  13.3016  13.3209  13.3589  13.4554  13.5006
    13.5438  13.5794  13.6363  13.6436  13.6869  13.7264  13.7767  13.7857
    13.8721  13.9479  13.9742  14.0219  14.1315  14.1778  14.1824  14.2434
    14.2873  14.2940  14.3439  14.4480  14.5572  14.5691  14.6408  14.6751
    14.6994  14.7687  14.7764  14.8044  14.8772  14.8965  14.9273  14.9668
    15.0071  15.0934  15.1486  15.1763  15.2264  15.2396  15.2529  15.3067
    15.3463  15.4297  15.5183  15.5391  15.5608  15.5665  15.6536  15.6889
    15.7122  15.7922  15.8573  15.8697  15.9067  15.9364  15.9979  16.0175
    16.0982  16.1473  16.1512  16.1819  16.2677  16.2763  16.3053  16.4373
    16.5509  16.8404  16.8899  16.9386  17.0080  17.0879  17.3436  17.5048
    17.5225  18.1468  18.2750  18.6026  19.5813  19.9454  20.0554  20.1460
    20.2716  20.3660  20.6979  21.1809  21.2527  21.3924  21.6587  21.9004
    22.2241  22.4229  22.9352  23.2164  23.4677  23.6131  23.7050  23.7243
    23.8847  24.0744  24.1624  24.2744  24.7405  24.8241  25.3240  25.4378
    25.7516

          k = 0.1250 0.2357 0.0000 ( 17785 PWs)   bands (ev):

     0.9145   0.9197   1.1432   1.1772   1.7681   1.8669   2.1953   2.2712
     3.0174   3.2598   3.3933   3.5812   4.3261   5.1105   5.1704   5.6752
     6.3889   6.9903   7.4226   7.9281   8.8986   9.1183   9.1791   9.3823
    10.2191  10.3370  10.4046  10.5177  10.5731  10.7998  10.9814  11.0968
    11.1239  11.2083  11.3153  11.3204  11.3801  11.4620  11.6016  11.6090
    11.6502  11.6957  11.7229  11.7504  11.7553  11.8357  11.8962  11.9459
    12.0063  12.0680  12.0930  12.1214  12.1466  12.1681  12.2401  12.2873
    12.3164  12.3545  12.3850  12.4105  12.4524  12.5465  12.5765  12.5859
    12.6273  12.6657  12.7738  12.7845  12.8657  12.9463  12.9736  13.0491
    13.0678  13.1330  13.2831  13.2860  13.3464  13.3565  13.4213  13.4958
    13.5374  13.5698  13.5726  13.6297  13.6596  13.7280  13.7809  13.7982
    13.8834  13.9070  13.9614  13.9741  14.1048  14.1115  14.1587  14.1834
    14.1944  14.2855  14.4238  14.4578  14.4608  14.5389  14.5680  14.6184
    14.6329  14.6996  14.7381  14.7766  14.7863  14.7978  14.8534  14.8735
    14.9629  15.0244  15.0310  15.0805  15.1265  15.1337  15.1969  15.2966
    15.3269  15.3401  15.3642  15.4438  15.4688  15.5368  15.5810  15.6022
    15.6689  15.7034  15.7326  15.7965  15.7974  15.8731  15.9448  15.9589
    16.0263  16.1359  16.1434  16.1670  16.2301  16.2578  16.2940  16.3265
    16.4786  16.7334  16.7899  16.8202  17.0721  17.2150  17.3690  17.6056
    17.7485  18.0328  18.5002  18.6683  20.0000  20.1439  20.2381  20.3214
    20.6674  21.0210  21.0877  21.5145  21.5258  21.5754  21.7023  21.9344
    22.0936  22.1841  22.4741  22.8311  23.5659  23.6961  23.8914  23.9532
    24.1076  24.1506  24.2618  24.4801  24.5213  25.0122  25.0925  25.1898
    25.7559

          k = 0.1250 0.2946 0.0000 ( 17801 PWs)   bands (ev):

     0.9259   0.9295   1.2208   1.2569   1.7114   1.7810   2.1942   2.2299
     3.0786   3.2015   3.4826   3.5729   4.5852   5.0981   5.1044   5.3266
     6.5960   7.0145   7.4874   7.9385   8.6916   9.0021   9.4091   9.4831
    10.0761  10.2056  10.4615  10.5648  10.6190  10.8640  10.9144  10.9786
    11.1495  11.2308  11.3593  11.3667  11.4521  11.5063  11.6706  11.6728
    11.7115  11.8229  11.8292  11.8832  11.8851  11.9156  11.9592  12.0403
    12.0600  12.0760  12.1029  12.1225  12.1562  12.2031  12.2568  12.2859
    12.2977  12.3282  12.3554  12.4068  12.4147  12.4897  12.5048  12.5789
    12.5991  12.6570  12.7133  12.7610  12.8361  12.9164  12.9184  13.0650
    13.1008  13.1299  13.1538  13.3093  13.3522  13.4072  13.4411  13.4856
    13.5024  13.5760  13.6134  13.6300  13.6677  13.7008  13.7620  13.8019
    13.8253  13.8724  13.8963  13.9410  13.9884  14.0101  14.0611  14.1190
    14.2012  14.2780  14.3136  14.3487  14.4122  14.4781  14.5470  14.5752
    14.6072  14.6404  14.6638  14.7566  14.7710  14.7974  14.8274  14.8681
    14.9152  14.9642  14.9955  14.9991  15.0267  15.0852  15.1218  15.1296
    15.1643  15.1881  15.2393  15.2718  15.4004  15.4307  15.4798  15.5770
    15.6186  15.6593  15.7044  15.8051  15.8133  15.9106  15.9278  16.0554
    16.0605  16.1291  16.1694  16.1732  16.2412  16.2453  16.3231  16.3415
    16.4112  16.5849  16.7557  16.7641  17.1444  17.2886  17.3796  17.7152
    17.7683  17.9071  18.8587  19.0872  19.9743  20.3972  20.5553  20.6443
    21.0174  21.1341  21.1963  21.2628  21.4299  21.5881  21.7573  22.0106
    22.0323  22.1774  22.4742  22.9159  23.8469  23.8731  23.9282  24.0583
    24.1380  24.1695  24.2680  24.4698  24.7931  24.9390  25.0393  25.1515
    25.6153

          k = 0.1250-0.3536 0.0000 ( 17808 PWs)   bands (ev):

     0.9317   0.9317   1.2720   1.2720   1.7160   1.7160   2.2042   2.2042
     3.1406   3.1406   3.5417   3.5417   4.8975   4.8975   5.1286   5.1286
     6.8236   6.8236   7.7462   7.7462   8.7475   8.7475   9.7353   9.7353
     9.8332   9.8332  10.6823  10.6823  10.7569  10.7569  10.8114  10.8114
    11.2721  11.2721  11.3530  11.3530  11.4946  11.4946  11.7116  11.7116
    11.7733  11.7733  11.9134  11.9134  11.9769  11.9769  12.0036  12.0036
    12.0649  12.0649  12.1169  12.1169  12.1935  12.1935  12.2606  12.2606
    12.2953  12.2953  12.3285  12.3285  12.4316  12.4316  12.5595  12.5595
    12.6762  12.6762  12.7530  12.7530  12.8366  12.8366  12.9365  12.9365
    13.0926  13.0926  13.3198  13.3198  13.3607  13.3607  13.5046  13.5046
    13.5268  13.5268  13.6283  13.6283  13.7218  13.7218  13.7633  13.7633
    13.8147  13.8147  13.8918  13.8918  13.9477  13.9477  14.0314  14.0314
    14.1092  14.1092  14.2730  14.2730  14.4937  14.4937  14.5617  14.5617
    14.6778  14.6778  14.7342  14.7342  14.7661  14.7661  14.8763  14.8763
    14.8952  14.8952  14.9334  14.9334  14.9524  14.9524  15.0325  15.0325
    15.1473  15.1473  15.2816  15.2816  15.3088  15.3088  15.5749  15.5749
    15.6140  15.6140  15.7316  15.7316  15.8808  15.8808  16.0271  16.0271
    16.0911  16.0911  16.1834  16.1834  16.2567  16.2567  16.3394  16.3394
    16.4542  16.4542  16.7457  16.7457  17.2163  17.2163  17.5686  17.5686
    17.8268  17.8268  19.1613  19.1613  20.3622  20.3622  20.7711  20.7711
    20.9040  20.9040  21.1621  21.1621  21.3847  21.3847  21.9112  21.9112
    22.1075  22.1075  23.1100  23.1100  23.5208  23.5208  24.1128  24.1128
    24.1510  24.1510  24.4281  24.4282  25.1373  25.1379  25.3450  25.3473
    25.4615

          k = 0.2500 0.0000 0.0000 ( 17793 PWs)   bands (ev):

     0.8841   0.8847   0.9253   1.2319   1.9825   1.9842   1.9930   2.5241
     2.7182   3.1223   3.5142   3.5161   4.1330   5.4248   5.4251   5.4272
     6.2101   7.5355   7.9492   7.9502   9.0178   9.1047   9.4173   9.8110
    10.1161  10.2236  10.5251  10.5260  10.6235  10.9373  11.0198  11.1156
    11.1178  11.2240  11.2908  11.3104  11.3624  11.3694  11.3752  11.4266
    11.4580  11.4793  11.5158  11.5667  11.5751  11.6259  11.6513  11.6537
    11.7420  11.8133  11.9069  11.9126  11.9519  12.1246  12.1307  12.3722
    12.6177  12.6378  12.7071  12.8306  12.8481  12.8551  12.9003  12.9608
    12.9710  12.9970  13.1325  13.1583  13.1773  13.1936  13.2215  13.2862
    13.3320  13.4188  13.4290  13.4644  13.4876  13.5462  13.5509  13.5604
    13.5827  13.6064  13.6105  13.6443  13.6689  13.6815  13.7368  13.7481
    13.8090  13.8691  13.9385  13.9913  14.0043  14.0237  14.0470  14.0552
    14.1382  14.1557  14.1679  14.2349  14.3454  14.4217  14.4739  14.4841
    14.5279  14.5922  14.6150  14.6253  14.7130  14.8165  14.8971  14.9192
    14.9414  14.9770  15.0250  15.0643  15.0989  15.1291  15.1314  15.2313
    15.3362  15.3807  15.4211  15.4685  15.5810  15.6326  15.6964  15.7105
    15.9023  15.9381  15.9510  15.9706  15.9992  16.0383  16.0766  16.0916
    16.2023  16.2188  16.2652  16.2805  16.3575  16.4195  16.7603  16.8349
    16.8359  17.0205  17.0879  17.1547  17.3225  17.3227  17.5422  17.9157
    17.9199  18.2213  18.2931  18.2933  18.9677  18.9846  19.2268  19.3601
    19.3839  19.6009  19.7445  20.2022  20.4837  20.4965  20.7908  20.7968
    21.9517  21.9550  21.9958  22.2551  23.1364  23.1367  23.2375  23.2552
    23.2925  23.4905  23.5104  23.9057  23.9128  24.3098  24.5495  24.5570
    24.9378

          k = 0.2500 0.0589 0.0000 ( 17783 PWs)   bands (ev):

     0.8692   0.9187   0.9286   1.2429   1.9157   1.9743   2.0456   2.4830
     2.7642   3.1421   3.4845   3.5402   4.1577   5.3261   5.4126   5.5430
     6.2421   7.5646   7.6792   8.1488   9.0533   9.1393   9.2984   9.8643
    10.1540  10.2654  10.4533  10.5957  10.6637  10.9664  10.9974  11.0578
    11.1003  11.2189  11.2612  11.2975  11.3838  11.3916  11.4251  11.4559
    11.4638  11.4840  11.5374  11.5511  11.6121  11.6322  11.6459  11.7038
    11.7107  11.8233  11.8397  11.9729  11.9779  12.1220  12.1524  12.3377
    12.3932  12.7090  12.7168  12.7838  12.8296  12.9004  12.9076  12.9726
    12.9861  13.0299  13.0623  13.1778  13.1920  13.2079  13.2704  13.3171
    13.3390  13.4031  13.4178  13.4328  13.4464  13.5071  13.5078  13.5801
    13.5933  13.6139  13.6423  13.6470  13.6763  13.7155  13.7167  13.7707
    13.8216  13.8813  13.8859  13.9589  13.9656  14.0238  14.0345  14.0795
    14.0824  14.1013  14.2081  14.2416  14.3204  14.4001  14.4157  14.4834
    14.5463  14.5541  14.5885  14.5979  14.6614  14.7984  14.8789  14.8879
    14.9799  14.9837  15.0347  15.0584  15.0738  15.1560  15.1901  15.2804
    15.3324  15.4058  15.4385  15.4824  15.5945  15.6322  15.6425  15.7431
    15.8371  15.8957  15.9070  15.9487  15.9980  16.0280  16.0519  16.1434
    16.1496  16.2030  16.2323  16.2519  16.3874  16.4612  16.5897  16.8006
    16.9979  17.0761  17.0764  17.1740  17.1931  17.2351  17.2799  17.6031
    17.7737  18.2737  18.3516  18.5036  18.7582  18.9764  19.2708  19.6306
    19.7536  19.8077  19.9290  20.0113  20.2487  20.4749  20.7185  21.2841
    22.0058  22.1025  22.1833  22.2586  22.3621  22.5741  22.7846  23.2665
    23.3369  23.8403  24.0724  24.1599  24.2699  24.3516  24.4541  24.7401
    25.3019

          k = 0.2500 0.1179 0.0000 ( 17763 PWs)   bands (ev):

     0.8708   0.9372   0.9725   1.2728   1.8473   1.9212   2.0983   2.4099
     2.8512   3.1990   3.4478   3.5585   4.2341   5.2496   5.3737   5.6667
     6.3367   7.3659   7.6480   8.2653   9.0158   9.1597   9.2478   9.9910
    10.2619  10.2782  10.3767  10.6181  10.6947  10.7688  10.9548  11.0463
    11.1540  11.1607  11.2769  11.3664  11.4030  11.4566  11.4755  11.5112
    11.5372  11.5616  11.5673  11.6179  11.6335  11.6536  11.7071  11.7373
    11.7930  11.8342  11.8997  12.0067  12.0301  12.1699  12.1882  12.2563
    12.4414  12.6292  12.6967  12.7452  12.8168  12.8715  12.9166  12.9187
    12.9316  12.9729  13.0558  13.1094  13.1608  13.1794  13.2129  13.2613
    13.2754  13.3104  13.4094  13.4185  13.4312  13.4901  13.5303  13.5669
    13.6004  13.6055  13.6448  13.6650  13.6970  13.7138  13.7446  13.7454
    13.8028  13.8130  13.8635  13.9235  13.9311  13.9900  14.0011  14.0356
    14.0549  14.0609  14.0855  14.2690  14.3465  14.3766  14.4072  14.4191
    14.4929  14.5185  14.5369  14.5496  14.5930  14.8045  14.8171  14.8501
    14.9673  14.9780  15.0355  15.0380  15.1343  15.1957  15.2234  15.3222
    15.3673  15.3959  15.4796  15.5748  15.5851  15.6348  15.7111  15.7228
    15.7932  15.8290  15.8622  15.8738  15.9162  15.9488  15.9664  16.0369
    16.0783  16.1419  16.1657  16.1768  16.3302  16.4443  16.5939  16.6260
    16.8779  16.9127  16.9455  16.9816  17.1082  17.3968  17.4527  17.4690
    17.7724  17.8085  18.1291  18.4216  19.0435  19.3919  19.5012  19.7098
    19.7514  19.9735  19.9893  20.1796  20.3936  20.7076  21.1239  21.6004
    21.6785  22.0358  22.0373  22.1583  22.2690  22.4509  22.8595  23.2209
    23.4013  23.4605  23.9139  24.4740  25.0478  25.0810  25.3805  25.4507
    25.4639

          k = 0.2500 0.1768 0.0000 ( 17751 PWs)   bands (ev):

     0.8851   0.9476   1.0445   1.3123   1.7829   1.8434   2.1394   2.3405
     2.9434   3.2823   3.4035   3.5680   4.3682   5.1956   5.3219   5.7542
     6.4899   7.0736   7.7757   8.2966   8.6762   9.3257   9.4148   9.7300
    10.1754  10.4298  10.5178  10.5386  10.6687  10.8205  10.9000  11.1103
    11.1549  11.2932  11.3286  11.4080  11.4601  11.5013  11.5196  11.5649
    11.5788  11.6227  11.6517  11.7193  11.7333  11.8015  11.8125  11.8715
    11.8934  11.9187  11.9894  12.0405  12.1166  12.2106  12.2554  12.2854
    12.4929  12.5273  12.6361  12.7012  12.7645  12.7938  12.8083  12.8492
    12.8973  12.9269  12.9600  13.0463  13.0694  13.1273  13.1426  13.1618
    13.2121  13.3140  13.3436  13.3609  13.4142  13.4290  13.4741  13.4828
    13.5310  13.5314  13.5926  13.6041  13.6609  13.6713  13.6956  13.7580
    13.7700  13.7986  13.8572  13.8816  13.8991  13.9253  13.9611  13.9640
    14.0472  14.0638  14.1190  14.1620  14.2046  14.2478  14.3780  14.3898
    14.4682  14.4784  14.5206  14.5612  14.6361  14.6791  14.7464  14.8203
    14.9456  14.9827  15.0313  15.0475  15.1648  15.2567  15.2579  15.3157
    15.3412  15.4107  15.4735  15.4952  15.5924  15.6211  15.6469  15.7214
    15.7366  15.7570  15.7837  15.8245  15.8778  15.8857  15.9206  15.9325
    15.9718  15.9770  16.0662  16.1051  16.1251  16.2474  16.5313  16.5759
    16.6671  16.7136  17.0358  17.1121  17.1567  17.2170  17.4554  17.6103
    17.7365  18.0389  18.1189  18.6431  18.8248  19.3065  19.3939  19.5675
    19.8203  20.2658  20.4694  20.5927  20.6439  20.9718  21.1983  21.3608
    21.4479  22.0123  22.0956  22.2868  22.3521  22.8518  23.0572  23.3243
    23.4637  23.6011  24.0312  24.6504  25.0376  25.4325  25.5698  25.8161
    25.9384

          k = 0.2500 0.2357 0.0000 ( 17768 PWs)   bands (ev):

     0.9067   0.9553   1.1309   1.3461   1.7268   1.7572   2.1697   2.2841
     3.0344   3.3493   3.3730   3.5656   4.5662   5.1623   5.2699   5.7124
     6.6910   6.9156   7.9319   8.2400   8.3363   9.1329   9.5414   9.6352
    10.4100  10.4436  10.6123  10.6410  10.6826  10.7348  10.9698  11.1375
    11.2650  11.3459  11.3864  11.4046  11.4485  11.5345  11.5752  11.6507
    11.6557  11.7007  11.7920  11.8109  11.8996  11.9350  11.9733  12.0007
    12.0330  12.0363  12.1268  12.1282  12.2106  12.2435  12.3148  12.3748
    12.4919  12.5223  12.5492  12.6128  12.6514  12.6930  12.7222  12.7712
    12.7974  12.8774  12.8971  12.9417  12.9573  13.0425  13.0470  13.1409
    13.1437  13.2176  13.2739  13.2767  13.3505  13.3516  13.4162  13.4298
    13.4412  13.4593  13.5024  13.5432  13.5480  13.5954  13.6648  13.6700
    13.6968  13.7036  13.8033  13.8665  13.8722  13.9235  13.9555  13.9935
    14.0079  14.0437  14.0991  14.1507  14.1874  14.2228  14.2401  14.3331
    14.3793  14.4540  14.5319  14.5689  14.6400  14.7154  14.7786  14.8249
    14.8983  14.9704  14.9825  15.0486  15.0505  15.1689  15.1826  15.2206
    15.2290  15.3180  15.3254  15.3942  15.4671  15.5083  15.5416  15.6069
    15.6305  15.6760  15.7362  15.7797  15.8274  15.8594  15.9255  15.9417
    15.9940  16.0148  16.0468  16.0838  16.1353  16.1532  16.3069  16.5596
    16.5959  16.7295  16.8735  17.1524  17.2539  17.3102  17.4591  17.5684
    17.8488  18.3919  18.5405  18.6273  18.9156  18.9590  19.2396  19.7754
    19.9559  20.2651  20.3158  20.6064  20.8080  20.9897  21.0679  21.7584
    21.9017  22.1907  22.2622  22.3095  22.5012  22.8647  23.0744  23.3641
    23.7797  24.0493  24.5079  24.6970  24.9797  25.6806  25.8088  25.8756
    26.0381

          k = 0.2500 0.2946 0.0000 ( 17790 PWs)   bands (ev):

     0.9294   0.9560   1.2234   1.3509   1.6844   1.6890   2.1925   2.2429
     3.1232   3.2837   3.4524   3.5479   4.8238   5.1442   5.2316   5.4960
     6.9008   6.9432   8.0106   8.0960   8.1667   8.6638   9.7878   9.8919
    10.2726  10.4153  10.6755  10.7055  10.8509  10.9247  10.9547  11.1297
    11.2623  11.2890  11.3756  11.4347  11.4737  11.5735  11.6589  11.7205
    11.7591  11.7601  11.8845  11.9049  12.0111  12.0358  12.0822  12.0973
    12.1653  12.1661  12.2261  12.2742  12.3249  12.3540  12.3911  12.4538
    12.4629  12.4909  12.5330  12.5359  12.5881  12.6437  12.6471  12.6748
    12.7292  12.8182  12.8289  12.8595  12.8671  12.9213  12.9542  13.0500
    13.0908  13.1396  13.1508  13.2236  13.2400  13.3156  13.3257  13.3781
    13.4007  13.4157  13.4458  13.4920  13.4957  13.5412  13.5794  13.5809
    13.6076  13.6578  13.7206  13.7704  13.7942  13.8874  13.8963  13.9463
    13.9639  14.0168  14.1377  14.1814  14.2117  14.2797  14.3679  14.3808
    14.4331  14.5354  14.5652  14.5938  14.6791  14.7312  14.7572  14.8117
    14.8252  14.8671  14.8919  14.9086  14.9512  14.9825  14.9916  15.1005
    15.1185  15.1633  15.2318  15.2362  15.3172  15.3674  15.3986  15.5162
    15.6639  15.7426  15.7521  15.8072  15.8289  15.9168  15.9401  15.9742
    15.9918  16.0526  16.0650  16.1257  16.1660  16.1828  16.2023  16.4701
    16.5327  16.6420  16.8611  17.1107  17.2487  17.4280  17.5601  17.7963
    18.0889  18.2314  18.5049  18.5767  18.8014  19.2241  19.6119  19.9225
    19.9881  20.1375  20.1485  20.6021  20.7074  20.9796  21.4007  21.6932
    22.1969  22.2013  22.3416  22.5998  22.6748  22.8025  22.8618  23.2189
    24.6789  24.7181  24.9299  24.9392  25.0857  25.5171  25.5885  25.7643
    25.8641

          k = 0.2500-0.3536 0.0000 ( 17788 PWs)   bands (ev):

     0.9471   0.9471   1.3059   1.3059   1.6657   1.6657   2.2144   2.2144
     3.2074   3.2074   3.5111   3.5111   5.0808   5.0808   5.2563   5.2563
     7.0028   7.0028   7.9549   7.9549   8.3597   8.3597  10.0411  10.0411
    10.1613  10.1613  10.7870  10.7870  10.9575  10.9575  11.1003  11.1003
    11.1300  11.1300  11.4341  11.4341  11.5431  11.5431  11.7306  11.7306
    11.7974  11.7974  11.9302  11.9302  12.0543  12.0543  12.1068  12.1068
    12.2307  12.2307  12.3225  12.3225  12.4093  12.4093  12.4555  12.4555
    12.4667  12.4668  12.5236  12.5236  12.5761  12.5761  12.6496  12.6496
    12.7537  12.7537  12.8148  12.8148  12.8558  12.8558  12.9568  12.9568
    13.0159  13.0159  13.1661  13.1661  13.2703  13.2703  13.3082  13.3082
    13.3687  13.3687  13.4452  13.4452  13.5268  13.5268  13.5521  13.5521
    13.6438  13.6438  13.6900  13.6900  13.7456  13.7456  13.8917  13.8917
    13.9803  13.9803  14.1720  14.1720  14.3694  14.3694  14.4988  14.4988
    14.5404  14.5404  14.5734  14.5734  14.6624  14.6624  14.7214  14.7214
    14.7666  14.7667  14.8326  14.8326  14.8888  14.8888  15.0051  15.0051
    15.0556  15.0556  15.2321  15.2321  15.2860  15.2860  15.4388  15.4388
    15.6994  15.6994  15.7990  15.7990  15.8903  15.8903  15.9790  15.9791
    16.0213  16.0213  16.0818  16.0818  16.1806  16.1806  16.3639  16.3639
    16.5151  16.5151  16.9860  16.9860  17.3288  17.3288  17.8841  17.8841
    18.1602  18.1602  18.3227  18.3227  19.2360  19.2360  19.5617  19.5617
    20.1795  20.1795  20.3913  20.3913  21.2900  21.2900  21.3541  21.3541
    21.8337  21.8337  22.5255  22.5255  22.5719  22.5719  23.8766  23.8766
    24.2013  24.2013  25.1288  25.1288  25.6269  25.6270  25.8726  25.8740
    26.0028

          k = 0.3750 0.0000 0.0000 ( 17794 PWs)   bands (ev):

     0.8567   0.8573   0.9807   1.6269   1.8278   1.8295   2.0029   2.5882
     2.5980   3.1034   3.5688   3.5706   4.3791   5.2616   5.2616   5.7897
     6.2944   7.7723   8.5082   8.5092   8.7964   9.4828   9.8103   9.8779
    10.2850  10.3930  10.5110  10.6156  10.6167  10.6715  10.7601  10.8865
    10.8930  10.9339  11.1645  11.2030  11.2407  11.2630  11.3178  11.3914
    11.4410  11.5014  11.5905  11.7115  11.7256  11.8013  11.8124  11.9650
    12.0060  12.0275  12.0720  12.2295  12.2563  12.4074  12.4090  12.4671
    12.6620  12.6861  12.7225  12.7691  12.8659  12.8916  12.9088  12.9101
    13.0229  13.0292  13.0938  13.1169  13.1433  13.1879  13.2419  13.3033
    13.3258  13.3676  13.4095  13.4550  13.4683  13.4893  13.4904  13.5269
    13.5633  13.5908  13.5969  13.6034  13.6035  13.7098  13.7128  13.7362
    13.7637  13.7659  13.7664  13.8605  13.8709  13.8773  13.9391  14.0170
    14.0389  14.0741  14.0801  14.1573  14.2636  14.2932  14.2981  14.4442
    14.5259  14.5908  14.6069  14.6383  14.7099  14.7659  14.8414  14.8797
    14.9912  14.9924  14.9959  15.0817  15.1336  15.2298  15.3459  15.3587
    15.4037  15.4043  15.4093  15.5044  15.5328  15.6914  15.6982  15.7156
    15.7538  15.7570  15.9278  15.9283  15.9536  15.9674  15.9963  16.0123
    16.0563  16.1582  16.1588  16.2467  16.2574  16.2703  16.4005  16.5605
    16.7990  16.8103  16.8155  17.0855  17.1614  17.2885  17.2910  17.3135
    17.7140  18.0881  18.0969  18.1481  18.5074  18.5130  18.9991  19.3605
    19.3812  19.9357  19.9400  20.4496  20.4763  20.5080  21.0756  21.5703
    21.5737  21.6707  21.6726  21.9139  21.9457  22.0391  22.0857  22.1135
    22.3387  22.4038  22.8101  22.8640  23.5602  24.1172  24.1957  24.2002
    24.6092

          k = 0.3750 0.0589 0.0000 ( 17796 PWs)   bands (ev):

     0.8454   0.8897   0.9827   1.6251   1.7688   1.8937   1.9883   2.4722
     2.7183   3.1194   3.5461   3.5843   4.4074   5.1986   5.3523   5.7698
     6.3283   7.7978   8.2025   8.6719   8.7216   9.5761   9.8505   9.9211
    10.3283  10.4285  10.5476  10.5476  10.6801  10.7080  10.7936  10.8220
    10.9411  10.9677  11.1051  11.1992  11.2914  11.3038  11.3562  11.3921
    11.4315  11.5252  11.5590  11.6167  11.7755  11.8052  11.8479  11.9744
    11.9874  12.0630  12.0866  12.1626  12.3272  12.4088  12.4356  12.4819
    12.6518  12.6703  12.7003  12.7739  12.8119  12.8870  12.9006  12.9152
    13.0130  13.0448  13.0479  13.1203  13.1533  13.1993  13.2347  13.2976
    13.3164  13.3325  13.3802  13.4363  13.4521  13.4624  13.4896  13.5290
    13.5453  13.5711  13.5865  13.6100  13.6403  13.6750  13.7076  13.7178
    13.7355  13.7765  13.8098  13.8378  13.8816  13.9068  13.9348  14.0030
    14.0480  14.0481  14.1155  14.1423  14.2312  14.3015  14.3151  14.3914
    14.4774  14.5699  14.6472  14.6564  14.7098  14.7345  14.7723  14.8777
    14.9356  14.9863  15.0129  15.0202  15.1640  15.2140  15.2550  15.2572
    15.3107  15.3641  15.3960  15.5197  15.5985  15.6166  15.6807  15.7146
    15.7650  15.8835  15.8921  15.9226  15.9447  15.9590  15.9999  16.0098
    16.0351  16.0906  16.1259  16.2058  16.2103  16.2399  16.4385  16.4694
    16.7312  16.8903  17.0079  17.0803  17.1516  17.1790  17.3800  17.3956
    17.5509  17.7913  18.1495  18.1899  18.4397  18.7619  19.0769  19.2059
    19.3362  19.8261  19.8741  20.4742  20.7426  20.9918  21.0938  21.1082
    21.2411  21.2814  21.3537  21.6693  22.0470  22.0850  22.4847  22.5581
    22.6571  22.7040  23.2011  23.3984  23.5867  23.9292  24.1335  24.2819
    24.6419

          k = 0.3750 0.1179 0.0000 ( 17793 PWs)   bands (ev):

     0.8527   0.9439   0.9876   1.6150   1.7193   1.9478   1.9584   2.3620
     2.8435   3.1652   3.5145   3.5880   4.4921   5.1594   5.4724   5.7184
     6.4292   7.8209   7.8342   8.4564   8.8319   9.7467   9.9596  10.0509
    10.4400  10.4524  10.5312  10.5927  10.6526  10.7242  10.8121  10.8913
    10.8995  11.0587  11.0637  11.2959  11.2993  11.4126  11.4188  11.4647
    11.4720  11.5513  11.5674  11.6056  11.7852  11.8269  11.8989  11.9792
    12.0065  12.1222  12.1343  12.1640  12.3721  12.4405  12.4920  12.5231
    12.5992  12.6504  12.6894  12.7751  12.7840  12.8577  12.8712  12.8910
    12.9764  12.9896  13.0711  13.1137  13.1328  13.1905  13.1965  13.2487
    13.2908  13.3087  13.3237  13.3653  13.3680  13.4007  13.4570  13.4772
    13.5043  13.5442  13.5793  13.6057  13.6469  13.6578  13.6743  13.7019
    13.7253  13.7493  13.7840  13.8380  13.8642  13.9309  13.9367  13.9988
    14.0053  14.0792  14.0819  14.1417  14.1765  14.2975  14.3220  14.3373
    14.4408  14.4913  14.5193  14.6491  14.6550  14.6979  14.7589  14.7789
    14.8398  14.9713  14.9757  14.9935  15.0310  15.0749  15.0964  15.1872
    15.2679  15.3094  15.3791  15.4612  15.5518  15.6071  15.6722  15.7162
    15.7576  15.7735  15.8016  15.8486  15.9074  15.9180  15.9493  15.9963
    16.0219  16.0426  16.0615  16.1500  16.1730  16.2309  16.3100  16.5909
    16.6674  16.9209  17.0462  17.0563  17.1830  17.2039  17.3234  17.5748
    17.6045  17.8252  17.9813  18.3023  18.4029  18.7148  18.7843  19.1170
    19.3051  19.8046  20.1071  20.5154  20.5435  20.7765  20.8517  21.1560
    21.1761  21.2807  21.3450  21.9740  22.0731  22.3401  22.5935  22.8346
    23.4301  23.4816  23.6653  23.9797  24.1325  24.1824  24.3745  24.5265
    24.7346

          k = 0.3750 0.1768 0.0000 ( 17788 PWs)   bands (ev):

     0.8750   0.9925   1.0187   1.5846   1.6849   1.8890   2.0176   2.2719
     2.9653   3.2341   3.4744   3.5789   4.6304   5.1394   5.6180   5.6561
     6.5922   7.3995   7.7415   8.3923   8.8190   9.9282   9.9593  10.1163
    10.2461  10.5047  10.6391  10.6898  10.7334  10.8138  10.8710  10.9631
    11.0443  11.1414  11.1952  11.3183  11.3718  11.4759  11.4935  11.5791
    11.5832  11.6443  11.6488  11.7433  11.7480  11.8486  11.9335  12.0042
    12.0794  12.1771  12.2007  12.2348  12.3686  12.4813  12.5456  12.5789
    12.6055  12.6425  12.7113  12.7276  12.7342  12.8012  12.8521  12.8977
    12.9098  12.9372  13.0285  13.0656  13.1164  13.1227  13.1437  13.1796
    13.2204  13.2261  13.2564  13.2869  13.3040  13.3555  13.3953  13.4153
    13.4633  13.5161  13.5575  13.6002  13.6034  13.6410  13.6807  13.6885
    13.7016  13.7160  13.7424  13.7949  13.8567  13.8702  13.9216  13.9283
    13.9465  13.9821  14.1061  14.1154  14.1617  14.2215  14.2581  14.3106
    14.3341  14.4180  14.4217  14.4581  14.5270  14.6289  14.6557  14.7560
    14.7560  14.7853  14.8705  14.9069  14.9822  14.9937  15.0453  15.1069
    15.1407  15.2938  15.3087  15.3696  15.4231  15.5145  15.5585  15.5913
    15.6453  15.6874  15.7261  15.7956  15.8195  15.8916  15.9137  15.9449
    15.9546  15.9990  16.0108  16.1343  16.1363  16.3600  16.3845  16.5521
    16.7813  16.7875  16.9337  17.0003  17.1870  17.5007  17.5210  17.6491
    17.7235  17.8031  18.1845  18.2190  18.3648  18.4678  18.6011  19.1349
    19.5103  19.6590  19.9149  20.0927  20.2867  20.5109  20.6435  21.2847
    21.5187  21.8718  22.0583  22.1257  22.1996  22.3169  23.1176  23.5060
    23.7941  23.8705  24.1487  24.2647  24.4874  24.6128  24.8552  25.1074
    25.2073

          k = 0.3750 0.2357 0.0000 ( 17756 PWs)   bands (ev):

     0.9064   0.9932   1.1113   1.5240   1.6695   1.8219   2.0677   2.2087
     3.0806   3.3146   3.4237   3.5554   4.8100   5.1325   5.6117   5.7661
     6.7865   6.9990   7.5342   8.5242   8.6257   9.4821  10.1159  10.2993
    10.4724  10.4929  10.7226  10.8507  10.8543  10.8858  11.0106  11.0892
    11.2339  11.2351  11.2985  11.3511  11.4591  11.5250  11.5955  11.6383
    11.6484  11.6874  11.7132  11.8635  11.8791  11.9326  11.9505  12.0451
    12.1808  12.2257  12.2922  12.3016  12.4221  12.4942  12.5851  12.6024
    12.6417  12.6580  12.6808  12.7255  12.7386  12.7934  12.8012  12.8502
    12.8932  12.9024  12.9298  12.9799  13.0113  13.0548  13.0844  13.1160
    13.1320  13.1577  13.2165  13.2461  13.2973  13.3015  13.3359  13.3509
    13.3572  13.4457  13.4944  13.5075  13.5620  13.5719  13.6128  13.6488
    13.6616  13.7228  13.7279  13.7490  13.7619  13.8336  13.8879  13.8976
    13.9171  13.9591  13.9733  14.0475  14.1112  14.1132  14.1381  14.2412
    14.2738  14.3021  14.3503  14.3682  14.4295  14.4399  14.6418  14.6529
    14.7090  14.7104  14.7696  14.7727  14.8397  14.9199  14.9794  14.9818
    15.1247  15.1574  15.2277  15.2877  15.2992  15.3630  15.4191  15.4507
    15.5142  15.5621  15.7268  15.7410  15.7946  15.8152  15.8628  15.8999
    15.9319  16.0120  16.0707  16.1505  16.2436  16.2806  16.5801  16.5898
    16.7437  16.8473  16.8833  17.1079  17.2995  17.3225  17.5274  17.8372
    17.8386  18.0679  18.0888  18.0891  18.3401  18.4718  18.6814  18.9538
    19.3888  19.5659  19.8333  20.0503  20.0934  20.3889  20.7580  21.5069
    21.5186  21.7824  22.2203  22.8084  22.8695  23.2147  23.3297  23.4723
    23.9695  24.2696  24.3801  24.6297  24.7164  25.1855  25.2945  25.5770
    25.6087

          k = 0.3750 0.2946 0.0000 ( 17761 PWs)   bands (ev):

     0.9396   0.9857   1.2167   1.4347   1.6763   1.7576   2.1073   2.1684
     3.1868   3.3598   3.3938   3.5167   4.9891   5.1274   5.6290   5.8383
     6.7363   6.8568   7.5078   8.2394   8.7261   9.1732  10.2890  10.4765
    10.4773  10.6923  10.7007  10.8359  10.9702  11.0755  11.1853  11.2426
    11.2773  11.3421  11.3692  11.4135  11.4861  11.5371  11.6268  11.6350
    11.7468  11.7633  11.8313  11.8359  11.9077  11.9826  12.0254  12.0944
    12.1630  12.3299  12.4218  12.4450  12.5396  12.5530  12.5803  12.6164
    12.6647  12.6770  12.7228  12.7554  12.7689  12.7980  12.8036  12.8131
    12.8438  12.8619  12.9057  12.9153  12.9550  12.9852  13.0006  13.0604
    13.0929  13.1375  13.1464  13.1946  13.2063  13.2278  13.2474  13.2812
    13.3185  13.3442  13.3680  13.4293  13.4552  13.4814  13.5054  13.5325
    13.5616  13.6101  13.6435  13.7223  13.7475  13.7501  13.7998  13.8147
    13.9174  13.9215  13.9668  13.9950  14.0566  14.0986  14.1350  14.1997
    14.2513  14.3323  14.3459  14.4229  14.4549  14.4863  14.4970  14.5353
    14.5746  14.6279  14.6938  14.7131  14.7640  14.7697  14.8752  14.8892
    14.9976  15.0077  15.0693  15.1872  15.2224  15.3111  15.3199  15.4529
    15.4847  15.5710  15.6753  15.6938  15.7753  15.8225  15.8360  15.8577
    15.9204  15.9885  16.0807  16.2093  16.3362  16.3759  16.4438  16.7135
    16.7813  16.9154  17.0319  17.1252  17.2946  17.3715  17.4838  17.5333
    17.8610  18.0064  18.1212  18.4059  18.4978  18.6594  18.7551  18.9386
    19.0692  19.2176  19.4454  19.6390  20.5573  20.8881  21.2071  21.3303
    21.4986  21.8284  22.3800  22.7891  23.0356  23.7494  23.8633  23.9039
    24.1978  24.3037  24.5314  24.8717  25.0518  25.3192  25.6583  25.6908
    26.1099

          k = 0.3750-0.3536 0.0000 ( 17776 PWs)   bands (ev):

     0.9676   0.9676   1.3279   1.3279   1.7065   1.7065   2.1385   2.1385
     3.2807   3.2807   3.4625   3.4625   5.0962   5.0962   5.7442   5.7442
     6.7387   6.7387   7.8110   7.8110   8.9436   8.9436  10.4147  10.4147
    10.6154  10.6154  10.8243  10.8243  11.0736  11.0736  11.2428  11.2428
    11.3379  11.3379  11.4196  11.4196  11.5541  11.5541  11.6863  11.6863
    11.7461  11.7462  11.8469  11.8469  11.9303  11.9303  12.0319  12.0319
    12.3108  12.3108  12.4420  12.4420  12.6002  12.6002  12.6915  12.6915
    12.7212  12.7212  12.7581  12.7581  12.8124  12.8124  12.8289  12.8289
    12.8673  12.8673  12.8858  12.8858  12.9314  12.9314  12.9657  12.9657
    13.0528  13.0528  13.1012  13.1012  13.1567  13.1567  13.2427  13.2427
    13.2964  13.2964  13.3575  13.3575  13.4124  13.4124  13.4740  13.4740
    13.5204  13.5204  13.6391  13.6391  13.6889  13.6889  13.7838  13.7838
    13.8810  13.8810  14.0191  14.0191  14.1509  14.1509  14.2387  14.2387
    14.3051  14.3051  14.3614  14.3614  14.4240  14.4240  14.5099  14.5099
    14.5802  14.5802  14.6391  14.6392  14.7037  14.7037  14.8052  14.8053
    14.9644  14.9644  15.0775  15.0775  15.2324  15.2324  15.3740  15.3740
    15.5802  15.5802  15.6365  15.6365  15.8050  15.8050  15.8433  15.8433
    15.9356  15.9356  16.1644  16.1644  16.3633  16.3633  16.5619  16.5619
    16.9594  16.9594  17.0902  17.0902  17.2622  17.2622  17.6432  17.6432
    17.6947  17.6947  18.3863  18.3863  18.7426  18.7426  18.8690  18.8690
    19.0912  19.0912  19.2517  19.2517  20.9852  20.9852  21.0692  21.0692
    22.1665  22.1665  22.5529  22.5529  22.7510  22.7510  24.4030  24.4030
    24.6883  24.6883  25.0247  25.0248  25.2011  25.2011  25.5887  25.5888
    25.8284

          k =-0.5000 0.0000 0.0000 ( 17814 PWs)   bands (ev):

     0.8458   0.8464   1.0049   1.7651   1.7669   1.8374   2.0074   2.5284
     2.6124   3.0679   3.5927   3.5945   4.5111   5.2063   5.2064   6.0007
     6.2314   8.4750   8.5829   8.6044   8.7424   8.7435  10.1289  10.3587
    10.4203  10.6384  10.6402  10.6525  10.7193  10.7480  10.7893  10.7987
    10.8050  10.8266  10.8617  10.9267  10.9729  11.0618  11.2157  11.2550
    11.4942  11.5402  11.5602  11.7679  11.7697  12.0312  12.0813  12.1671
    12.2466  12.2622  12.2779  12.3519  12.3550  12.4649  12.4743  12.4784
    12.6175  12.6418  12.6423  12.7450  12.7792  12.7816  12.8960  12.9834
    12.9903  13.0616  13.0774  13.1059  13.1131  13.1554  13.1571  13.1750
    13.2561  13.3248  13.3308  13.3604  13.3698  13.4152  13.4218  13.4560
    13.4839  13.5057  13.5282  13.5726  13.6105  13.6120  13.6172  13.7162
    13.7174  13.7283  13.7914  13.8201  13.8983  13.9035  13.9808  14.0181
    14.0391  14.0676  14.1636  14.1913  14.2387  14.3751  14.3766  14.3894
    14.4582  14.5229  14.5393  14.6019  14.7346  14.7526  14.8082  14.8268
    14.8400  14.8460  14.9787  15.2485  15.2743  15.4799  15.4806  15.4929
    15.5125  15.5449  15.6131  15.6855  15.7641  15.7846  15.7916  15.8548
    15.8748  15.8824  15.8931  15.9315  15.9399  15.9716  16.0361  16.0492
    16.0523  16.0776  16.1168  16.1328  16.1836  16.2778  16.3639  16.3896
    16.4352  16.5748  16.5874  16.6512  16.9567  17.1012  17.1743  17.1945
    17.1953  17.5386  18.2119  18.2129  18.2656  18.4735  18.4986  19.4794
    19.5261  20.0748  20.3636  20.3644  20.8127  20.9306  21.1807  21.1914
    21.2029  21.2319  21.2690  21.3688  21.8717  21.9283  22.0090  22.2514
    22.3635  22.4401  22.5863  22.8229  22.8553  23.2698  23.6936  23.6951
    24.7507

          k =-0.5000 0.0589 0.0000 ( 17814 PWs)   bands (ev):

     0.8367   0.8775   1.0063   1.7154   1.8193   1.8260   2.0120   2.4180
     2.7200   3.0827   3.5695   3.6070   4.5399   5.1547   5.2884   5.9832
     6.2660   8.1641   8.4550   8.6604   8.8735   8.9050  10.1632  10.3927
    10.4555  10.5808  10.6758  10.6799  10.7496  10.7796  10.7964  10.8180
    10.8239  10.8621  10.8978  10.9638  11.0104  11.1044  11.1870  11.2912
    11.4711  11.5135  11.5766  11.6282  11.8778  12.0371  12.1022  12.1756
    12.2483  12.2801  12.2971  12.3625  12.3636  12.4606  12.4782  12.4842
    12.5555  12.6073  12.7100  12.7530  12.7715  12.7877  12.9047  12.9578
    13.0010  13.0564  13.0710  13.1005  13.1109  13.1340  13.1599  13.1699
    13.2786  13.2947  13.3184  13.3568  13.3644  13.3941  13.3988  13.4414
    13.4651  13.4986  13.5308  13.5631  13.5838  13.5991  13.6178  13.6326
    13.7329  13.7441  13.7737  13.8309  13.8313  13.8886  13.9624  13.9972
    14.0716  14.0798  14.1699  14.2324  14.2469  14.2946  14.3184  14.4164
    14.5095  14.5279  14.6099  14.6486  14.7094  14.7586  14.7690  14.7980
    14.8076  14.8227  14.8879  15.1885  15.3196  15.3437  15.4476  15.4548
    15.4744  15.4940  15.5393  15.5879  15.6876  15.7096  15.7302  15.7958
    15.8239  15.8265  15.8555  15.8798  15.8864  15.9619  15.9975  16.0047
    16.0353  16.1030  16.1216  16.1499  16.1817  16.2379  16.2744  16.4449
    16.5393  16.5601  16.6778  16.8449  17.1240  17.1604  17.1943  17.2043
    17.2879  17.5881  18.0120  18.1484  18.3054  18.4420  18.6307  19.2644
    19.3713  20.0136  20.0769  20.3411  20.3638  20.4665  21.2588  21.3560
    21.4254  21.5202  21.8054  21.9240  21.9827  22.0358  22.2177  22.2790
    22.3690  22.4979  22.5992  22.6004  22.8691  23.2837  23.9955  24.2624
    24.8298

          k =-0.5000 0.1179 0.0000 ( 17794 PWs)   bands (ev):

     0.8470   0.9314   1.0096   1.6795   1.7653   1.8892   2.0257   2.2728
     2.8572   3.1252   3.5367   3.6070   4.6238   5.1274   5.4070   5.9410
     6.3701   7.7925   8.0623   8.8207   8.9219   9.1883  10.2626  10.4903
    10.5334  10.5576  10.6398  10.7559  10.7975  10.8288  10.8408  10.8692
    10.9237  10.9652  11.0023  11.0710  11.1181  11.1478  11.2292  11.3269
    11.4015  11.4603  11.4822  11.7025  11.9247  12.0611  12.1477  12.1989
    12.2360  12.3284  12.3298  12.3709  12.3866  12.3928  12.5044  12.5044
    12.5423  12.6136  12.7518  12.7761  12.7766  12.7877  12.8784  12.9233
    12.9958  13.0403  13.0538  13.0800  13.1078  13.1165  13.1398  13.2001
    13.2244  13.2812  13.3034  13.3205  13.3386  13.3633  13.3713  13.4020
    13.4196  13.4600  13.4798  13.5362  13.5395  13.5794  13.6135  13.6482
    13.6692  13.7112  13.7268  13.7523  13.7955  13.8477  13.9553  13.9864
    14.0817  14.0948  14.1294  14.1458  14.2446  14.3289  14.3721  14.3935
    14.5284  14.5850  14.6051  14.6136  14.6591  14.6835  14.6972  14.7283
    14.7556  14.7747  14.8416  15.0780  15.1100  15.1909  15.2759  15.3034
    15.3379  15.3447  15.3950  15.3990  15.4846  15.5684  15.5685  15.6767
    15.6817  15.7445  15.7948  15.8116  15.8133  15.8299  15.8750  15.9324
    16.0504  16.0939  16.1110  16.1208  16.1723  16.3172  16.3716  16.5477
    16.5670  16.7932  16.8084  17.0636  17.0710  17.2268  17.2269  17.4103
    17.6924  17.7468  17.7916  17.8200  18.4330  18.4805  18.5191  19.1435
    19.2790  19.5081  19.8090  19.8605  20.0840  20.3129  21.2754  21.5205
    21.8835  21.9182  22.0742  22.1166  22.2009  22.2396  22.3637  22.3991
    22.6454  22.9703  22.9838  23.3269  23.4108  23.5815  24.6028  25.1107
    25.2305

          k =-0.5000 0.1768 0.0000 ( 17756 PWs)   bands (ev):

     0.8730   1.0067   1.0120   1.6633   1.6804   1.9494   2.0447   2.1279
     2.9908   3.1902   3.4961   3.5910   4.7543   5.1182   5.5671   5.9009
     6.5416   7.4210   7.6012   8.7655   9.0663   9.4781  10.4168  10.5008
    10.5160  10.6373  10.7145  10.7736  10.8638  10.8861  10.9065  10.9988
    11.0770  11.1126  11.1253  11.1623  11.2338  11.2538  11.2771  11.4252
    11.4473  11.4627  11.5006  11.7711  11.8563  12.0935  12.1299  12.1978
    12.2472  12.3153  12.3856  12.3977  12.4363  12.4380  12.5506  12.5584
    12.5786  12.6550  12.6992  12.7346  12.7762  12.8186  12.8595  12.9426
    12.9788  12.9820  13.0003  13.0701  13.0879  13.0994  13.1723  13.1826
    13.1860  13.2266  13.2394  13.2855  13.3059  13.3092  13.3377  13.3693
    13.3865  13.4178  13.4647  13.4883  13.5115  13.5778  13.5896  13.6059
    13.6277  13.6678  13.6753  13.7059  13.8079  13.8329  13.9296  13.9333
    14.0018  14.0457  14.0500  14.1500  14.2449  14.2698  14.3283  14.3606
    14.4093  14.4844  14.5229  14.5436  14.5471  14.6201  14.6329  14.6758
    14.6944  14.7335  14.8216  14.8224  14.8931  14.9001  15.0177  15.0590
    15.0726  15.2229  15.2242  15.2774  15.3326  15.3664  15.4663  15.5048
    15.5775  15.6492  15.6949  15.7570  15.7986  15.8540  15.8793  15.8820
    15.9329  15.9421  15.9752  16.2392  16.3031  16.3329  16.4262  16.5704
    16.8087  16.8512  16.9491  17.1179  17.1597  17.1928  17.3992  17.4351
    17.5124  17.8082  17.9553  18.1774  18.3318  18.3789  18.6614  18.8581
    18.9626  19.0997  19.3355  20.0981  20.2541  20.6806  21.0263  21.0529
    21.4006  21.6026  22.2520  22.5110  22.7284  22.9726  23.0693  23.1110
    23.3129  23.4039  23.9600  23.9823  24.3078  24.4676  24.6123  24.7001
    25.0539

          k =-0.5000 0.2357 0.0000 ( 17778 PWs)   bands (ev):

     0.9083   1.0096   1.1010   1.5734   1.6714   1.9912   2.0010   2.0614
     3.1145   3.2698   3.4471   3.5570   4.9080   5.1199   5.7715   5.9060
     6.7418   7.1030   7.1175   8.4396   9.3748   9.7352  10.3519  10.5170
    10.6095  10.6814  10.8036  10.8889  10.9136  10.9470  10.9877  11.0984
    11.1336  11.2260  11.2653  11.3226  11.3569  11.4262  11.4583  11.5151
    11.5379  11.6009  11.6297  11.6848  11.7750  12.0490  12.1250  12.1915
    12.2616  12.3473  12.4460  12.4833  12.4915  12.5252  12.5435  12.6228
    12.6454  12.6465  12.7006  12.7019  12.8147  12.8405  12.8704  12.8984
    12.9038  12.9900  13.0181  13.0425  13.0454  13.0690  13.1022  13.1160
    13.1779  13.1846  13.2175  13.2301  13.2586  13.2813  13.3157  13.3431
    13.3534  13.3587  13.4293  13.4536  13.5495  13.5569  13.5764  13.5769
    13.5997  13.6259  13.6500  13.7350  13.7804  13.7862  13.8640  13.8974
    13.9320  13.9706  14.0284  14.0582  14.0611  14.1367  14.1862  14.2353
    14.2701  14.2837  14.3143  14.3673  14.4052  14.4849  14.5149  14.5783
    14.5953  14.6125  14.7077  14.7527  14.7690  14.8091  14.8222  14.8889
    14.9703  15.0709  15.0845  15.1709  15.2631  15.2648  15.2772  15.4607
    15.4967  15.5278  15.6488  15.7350  15.7860  15.7943  15.8287  15.8309
    15.8959  15.9333  16.0125  16.1735  16.2773  16.4823  16.5132  16.6429
    16.6495  17.0328  17.0523  17.1530  17.1649  17.2763  17.3776  17.4494
    17.6260  17.8852  17.9388  18.1238  18.5124  18.5294  18.6107  18.6768
    18.8901  18.9319  18.9948  20.1239  20.5299  20.5614  20.8142  21.0488
    21.2790  21.9068  22.4431  22.7278  22.8615  23.5209  23.9099  24.0063
    24.0632  24.1035  24.1913  24.3790  24.4534  24.6931  25.0428  25.0901
    25.5864

          k =-0.5000 0.2946 0.0000 ( 17762 PWs)   bands (ev):

     0.9455   0.9988   1.2106   1.4538   1.7077   1.8709   2.0395   2.0689
     3.2230   3.3548   3.3874   3.5046   5.0383   5.1222   6.0165   6.0199
     6.6137   6.6590   7.2067   8.0165   9.7213   9.9482  10.2337  10.3811
    10.6412  10.7696  10.8799  10.9569  11.0031  11.0273  11.0996  11.1305
    11.2178  11.2583  11.3438  11.4575  11.5160  11.5410  11.5576  11.5830
    11.6411  11.6586  11.6844  11.8224  11.9236  11.9701  12.0470  12.0755
    12.2432  12.3027  12.4771  12.5330  12.5966  12.6079  12.6213  12.6990
    12.7211  12.7380  12.7731  12.7855  12.8065  12.8626  12.8834  12.9030
    12.9118  12.9233  12.9263  12.9987  13.0126  13.0328  13.0578  13.1207
    13.1261  13.1408  13.1521  13.2167  13.2576  13.2629  13.3052  13.3128
    13.3225  13.3721  13.3755  13.4118  13.4783  13.4914  13.5289  13.5332
    13.5768  13.5960  13.5965  13.6875  13.7283  13.7544  13.7861  13.7867
    13.8071  13.8463  13.9083  13.9441  13.9694  14.0582  14.1015  14.1323
    14.1496  14.1780  14.1845  14.2648  14.3057  14.3404  14.3989  14.4428
    14.4486  14.5559  14.5637  14.6966  14.7336  14.7891  14.8828  14.9043
    14.9076  14.9564  15.0190  15.0808  15.1230  15.1589  15.2881  15.3153
    15.3208  15.5674  15.6644  15.7220  15.7328  15.7694  15.7863  15.8907
    15.9401  15.9556  16.0860  16.1258  16.1557  16.4610  16.6367  16.6684
    16.7310  16.9213  16.9654  17.0624  17.2331  17.4243  17.5834  17.6410
    17.7761  17.8783  17.9091  18.0676  18.1741  18.3291  18.4014  18.5061
    19.0828  19.3399  19.5189  20.1335  20.1702  20.2370  20.3441  20.5966
    22.4080  22.6885  22.8972  23.0115  23.0647  23.5255  23.6656  23.6799
    23.9126  24.3483  25.0225  25.1363  25.2335  25.2826  25.3930  25.4747
    26.0075

          k =-0.5000-0.3536 0.0000 ( 17712 PWs)   bands (ev):

     0.9772   0.9772   1.3303   1.3303   1.7746   1.7746   2.0623   2.0623
     3.3137   3.3137   3.4356   3.4356   5.1054   5.1054   6.2749   6.2749
     6.3072   6.3072   7.5830   7.5830  10.0738  10.0739  10.1106  10.1106
    10.7080  10.7080  11.0213  11.0213  11.0825  11.0825  11.0925  11.0925
    11.2006  11.2006  11.4364  11.4364  11.5674  11.5674  11.6262  11.6262
    11.7267  11.7267  11.8678  11.8678  11.8802  11.8802  12.0425  12.0425
    12.2306  12.2306  12.4749  12.4749  12.6872  12.6872  12.7458  12.7458
    12.7828  12.7828  12.8148  12.8148  12.8295  12.8295  12.8773  12.8773
    12.9036  12.9036  12.9917  12.9917  13.0282  13.0282  13.1091  13.1091
    13.1487  13.1487  13.1654  13.1654  13.2091  13.2091  13.2420  13.2420
    13.3017  13.3017  13.3647  13.3647  13.4127  13.4127  13.4649  13.4649
    13.5454  13.5454  13.6133  13.6133  13.6687  13.6687  13.7399  13.7399
    13.8441  13.8441  13.9009  13.9009  14.0199  14.0199  14.1075  14.1075
    14.1514  14.1514  14.2484  14.2484  14.2671  14.2671  14.3031  14.3031
    14.4422  14.4422  14.5908  14.5908  14.7756  14.7756  14.8681  14.8681
    14.9594  14.9595  15.0118  15.0118  15.1308  15.1308  15.1994  15.1994
    15.4305  15.4305  15.6982  15.6982  15.7514  15.7514  15.9057  15.9057
    15.9781  15.9781  16.0061  16.0061  16.3026  16.3026  16.7558  16.7558
    16.8447  16.8447  16.8640  16.8640  17.4299  17.4299  17.6837  17.6837
    17.8435  17.8435  18.0709  18.0709  18.1651  18.1651  18.2146  18.2146
    19.6519  19.6519  19.7404  19.7405  20.0455  20.0455  20.2596  20.2596
    22.9470  22.9470  23.3102  23.3102  23.3742  23.3742  23.7936  23.7936
    23.8474  23.8474  24.3826  24.3826  26.2927  26.2928  26.3625  26.3625
    26.4334

     the Fermi energy is    18.0762 ev

!    total energy              =  -21689.52521309 Ry

     total all-electron energy =  -1064657.215762 Ry
     estimated scf accuracy    <       0.00000086 Ry
     smearing contrib. (-TS)   =      -0.02330663 Ry
     internal energy E=F+TS    =  -21689.50190646 Ry

     The total energy is F=E-TS. E is the sum of the following terms:
     one-electron contribution =      65.07353422 Ry
     hartree contribution      =     389.16517843 Ry
     xc contribution           =    -907.14305230 Ry
     ewald contribution        =   -1842.95029920 Ry
     one-center paw contrib.   =  -19393.64726760 Ry

     convergence has been achieved in  20 iterations

     Forces acting on atoms (cartesian axes, Ry/au):

     atom    1 type  1   force =    -1.04156308   -0.00000126    6.17493835
     atom    2 type  1   force =    -1.04156308    0.00000126    6.17493835
     atom    3 type  1   force =    -1.79038624    0.00000000    6.35282688
     atom    4 type  1   force =    -1.79038961    0.00000000    6.35284623
     atom    5 type  1   force =     0.01289594    0.00000661    0.03343464
     atom    6 type  1   force =     0.01289594   -0.00000661    0.03343464
     atom    7 type  1   force =    -0.00018084    0.00000000    0.00222936
     atom    8 type  1   force =    -0.00018776    0.00000000    0.00221942
     atom    9 type  1   force =    -0.00092440   -0.00000107    0.00095021
     atom   10 type  1   force =    -0.00092440    0.00000107    0.00095021
     atom   11 type  1   force =     0.00061125    0.00000000   -0.00041816
     atom   12 type  1   force =     0.00061420    0.00000000   -0.00041197
     atom   13 type  1   force =    -0.00892936    0.00000108    0.00228192
     atom   14 type  1   force =    -0.00892936   -0.00000108    0.00228192
     atom   15 type  1   force =     0.07537681    0.00000000   -0.04196888
     atom   16 type  1   force =     0.07536911    0.00000000   -0.04196397
     atom   17 type  1   force =    -0.07597213    0.00000576    0.04148357
     atom   18 type  1   force =    -0.07597213   -0.00000576    0.04148357
     atom   19 type  1   force =     0.01037540    0.00000000   -0.00308382
     atom   20 type  1   force =     0.01038089    0.00000000   -0.00308135
     atom   21 type  1   force =    -0.00022474    0.00000676   -0.00172230
     atom   22 type  1   force =    -0.00022474   -0.00000676   -0.00172230
     atom   23 type  1   force =    -0.01291050    0.00000000   -0.03324057
     atom   24 type  1   force =    -0.01291118    0.00000000   -0.03324883
     atom   25 type  1   force =     1.79006800   -0.00000386   -6.35259313
     atom   26 type  1   force =     1.79006800    0.00000386   -6.35259313
     atom   27 type  1   force =     1.04176599    0.00000000   -6.17512674
     atom   28 type  1   force =     1.04177202    0.00000000   -6.17512410

     Total force =    18.197455     Total SCF correction =     0.001850

     Writing all to output data dir ./pwscf.save/
 
     init_run     :     14.76s CPU     15.17s WALL (       1 calls)
     electrons    :    808.14s CPU    816.83s WALL (       1 calls)
     forces       :      6.60s CPU      6.64s WALL (       1 calls)

     Called by init_run:
     wfcinit      :     14.10s CPU     14.39s WALL (       1 calls)
     potinit      :      0.40s CPU      0.45s WALL (       1 calls)
     hinit0       :      0.11s CPU      0.14s WALL (       1 calls)

     Called by electrons:
     c_bands      :    729.33s CPU    737.18s WALL (      20 calls)
     sum_band     :     71.51s CPU     72.12s WALL (      20 calls)
     v_of_rho     :      0.40s CPU      0.50s WALL (      21 calls)
     newd         :      0.70s CPU      0.81s WALL (      21 calls)
     PAW_pot      :      6.50s CPU      6.53s WALL (      21 calls)
     mix_rho      :      0.08s CPU      0.08s WALL (      20 calls)

     Called by c_bands:
     init_us_2    :      4.04s CPU      4.07s WALL (    1470 calls)
     init_us_2:cp :      4.04s CPU      4.07s WALL (    1470 calls)
     cegterg      :    696.91s CPU    704.51s WALL (     700 calls)

     Called by *egterg:
     cdiaghg      :     79.04s CPU     79.71s WALL (    3503 calls)
     h_psi        :    334.19s CPU    337.91s WALL (    3538 calls)
     s_psi        :     66.13s CPU     66.43s WALL (    3538 calls)
     g_psi        :      1.09s CPU      1.10s WALL (    2803 calls)

     Called by h_psi:
     h_psi:calbec :     74.11s CPU     74.35s WALL (    3538 calls)
     vloc_psi     :    188.11s CPU    190.16s WALL (    3538 calls)
     add_vuspsi   :     70.76s CPU     70.98s WALL (    3538 calls)

     General routines
     calbec       :    106.44s CPU    106.78s WALL (    4378 calls)
     fft          :      0.39s CPU      0.54s WALL (     242 calls)
     ffts         :      0.01s CPU      0.01s WALL (      20 calls)
     fftw         :    207.61s CPU    209.76s WALL (  787178 calls)
 
     Parallel routines
 
     PWSCF        :  13m56.77s CPU  14m15.56s WALL

 
   This run was terminated on:   8:41: 8   2Mar2024            

=------------------------------------------------------------------------------=
   JOB DONE.
=------------------------------------------------------------------------------=
