MPI startup(): Warning: I_MPI_PMI_LIBRARY will be ignored since the hydra process manager was found
MPI startup(): Warning: I_MPI_PMI_LIBRARY will be ignored since the hydra process manager was found
MPI startup(): Warning: I_MPI_PMI_LIBRARY will be ignored since the hydra process manager was found
MPI startup(): Warning: I_MPI_PMI_LIBRARY will be ignored since the hydra process manager was found
MPI startup(): Warning: I_MPI_PMI_LIBRARY will be ignored since the hydra process manager was found
MPI startup(): Warning: I_MPI_PMI_LIBRARY will be ignored since the hydra process manager was found
MPI startup(): Warning: I_MPI_PMI_LIBRARY will be ignored since the hydra process manager was found
MPI startup(): Warning: I_MPI_PMI_LIBRARY will be ignored since the hydra process manager was found
MPI startup(): Warning: I_MPI_PMI_LIBRARY will be ignored since the hydra process manager was found
MPI startup(): Warning: I_MPI_PMI_LIBRARY will be ignored since the hydra process manager was found

     Program PWSCF v.7.0 starts on  8Mar2024 at  9:54:21 

     This program is part of the open-source Quantum ESPRESSO suite
     for quantum simulation of materials; please cite
         "P. Giannozzi et al., J. Phys.:Condens. Matter 21 395502 (2009);
         "P. Giannozzi et al., J. Phys.:Condens. Matter 29 465901 (2017);
         "P. Giannozzi et al., J. Chem. Phys. 152 154105 (2020);
          URL http://www.quantum-espresso.org", 
     in publications or presentations arising from this work. More details at
     http://www.quantum-espresso.org/quote

     Parallel version (MPI), running on    10 processors

     MPI processes distributed on     1 nodes
     R & G space division:  proc/nbgrp/npool/nimage =      10
     167480 MiB available memory on the printing compute node when the environment starts
 
     Reading input from GSF110R_0.1.in
Warning: card &CELL ignored
Warning: card / ignored

     Current dimensions of program PWSCF are:
     Max number of different atomic species (ntypx) = 10
     Max number of k-points (npk) =  40000
     Max angular momentum in pseudopotentials (lmaxx) =  4

     File ./pwscf.update deleted, as requested

     File ./pwscf.bfgs deleted, as requested
     file Au.pbe-n-kjpaw_psl.1.0.0.UPF: wavefunction(s)  6S 5D renormalized
     Found identity + (  0.0000 -0.5000  0.0000) symmetry
     This is a supercell, fractional translations are disabled

     Subspace diagonalization in iterative solution of the eigenvalue problem:
     one sub-group per band group will be used
     scalapack distributed-memory algorithm (size of sub-group:  3*  3 procs)

 
     Parallelization info
     --------------------
     sticks:   dense  smooth     PW     G-vecs:    dense   smooth      PW
     Min         200     133     38                26142    14227    2178
     Max         201     134     39                26149    14242    2183
     Sum        2007    1339    389               261457   142317   21821
 
     Using Slab Decomposition
 


     bravais-lattice index     =            0
     lattice parameter (alat)  =       7.7101  a.u.
     unit-cell volume          =    2979.1368 (a.u.)^3
     number of atoms/cell      =           28
     number of atomic types    =            1
     number of electrons       =       308.00
     number of Kohn-Sham states=          185
     kinetic-energy cutoff     =      50.0000  Ry
     charge density cutoff     =     300.0000  Ry
     scf convergence threshold =      1.0E-06
     mixing beta               =       0.0080
     number of iterations used =            8  plain     mixing
     energy convergence thresh.=      1.0E-04
     force convergence thresh. =      1.0E-03
     Exchange-correlation= SLA  PW   PBX  PBC
                           (   1   4   3   4   0   0   0)
     nstep                     =           50


     celldm(1)=   7.710083  celldm(2)=   0.000000  celldm(3)=   0.000000
     celldm(4)=   0.000000  celldm(5)=   0.000000  celldm(6)=   0.000000

     crystal axes: (cart. coord. in units of alat)
               a(1) = (   1.000000   0.000000   0.000000 )  
               a(2) = (   0.000000   1.414214   0.000000 )  
               a(3) = (   0.000000   0.000000   4.596194 )  

     reciprocal axes: (cart. coord. in units 2 pi/alat)
               b(1) = (  1.000000  0.000000  0.000000 )  
               b(2) = (  0.000000  0.707107  0.000000 )  
               b(3) = (  0.000000  0.000000  0.217571 )  


     PseudoPot. # 1 for Au read from file:
     ./Au.pbe-n-kjpaw_psl.1.0.0.UPF
     MD5 check sum: 4db85c736373c707a97ce4c36c2a9d23
     Pseudo is Projector augmented-wave + core cor, Zval = 11.0
     Generated using &quot;atomic&quot; code by A. Dal Corso  v.6.3
     Shape of augmentation charge: PSQ
     Using radial grid of 1279 points,  6 beta functions with: 
                l(1) =   0
                l(2) =   0
                l(3) =   1
                l(4) =   1
                l(5) =   2
                l(6) =   2
     Q(r) pseudized with 0 coefficients 


     atomic species   valence    mass     pseudopotential
        Au            11.00   196.96657     Au( 1.00)

     No symmetry found



   Cartesian axes

     site n.     atom                  positions (alat units)
         1           Au  tau(   1) = (   0.5000000   0.3535534   0.0000000  )
         2           Au  tau(   2) = (   0.5000000   1.0606602   0.0000000  )
         3           Au  tau(   3) = (   0.0000000   0.0000000   0.3535534  )
         4           Au  tau(   4) = (   0.0000000   0.7071068   0.3535534  )
         5           Au  tau(   5) = (   0.5000000   0.3535534   0.7071068  )
         6           Au  tau(   6) = (   0.5000000   1.0606602   0.7071068  )
         7           Au  tau(   7) = (   0.0000000   0.0000000   1.0606602  )
         8           Au  tau(   8) = (   0.0000000   0.7071068   1.0606602  )
         9           Au  tau(   9) = (   0.5000000   0.3535534   1.4142136  )
        10           Au  tau(  10) = (   0.5000000   1.0606602   1.4142136  )
        11           Au  tau(  11) = (   0.0000000   0.0000000   1.7677670  )
        12           Au  tau(  12) = (   0.0000000   0.7071068   1.7677670  )
        13           Au  tau(  13) = (   0.5000000   0.3535534   2.1213203  )
        14           Au  tau(  14) = (   0.5000000   1.0606602   2.1213203  )
        15           Au  tau(  15) = (   0.0000000   0.0000000   2.4748737  )
        16           Au  tau(  16) = (   0.0000000   0.7071068   2.4748737  )
        17           Au  tau(  17) = (   0.6000000   0.3535534   2.8284271  )
        18           Au  tau(  18) = (   0.6000000   1.0606602   2.8284271  )
        19           Au  tau(  19) = (   0.1000000   0.0000000   3.1819805  )
        20           Au  tau(  20) = (   0.1000000   0.7071068   3.1819805  )
        21           Au  tau(  21) = (   0.6000000   0.3535534   3.5355339  )
        22           Au  tau(  22) = (   0.6000000   1.0606602   3.5355339  )
        23           Au  tau(  23) = (   0.1000000   0.0000000   3.8890873  )
        24           Au  tau(  24) = (   0.1000000   0.7071068   3.8890873  )
        25           Au  tau(  25) = (   0.6000000   0.3535534   4.2426407  )
        26           Au  tau(  26) = (   0.6000000   1.0606602   4.2426407  )
        27           Au  tau(  27) = (   0.1000000   0.0000000   4.5961941  )
        28           Au  tau(  28) = (   0.1000000   0.7071068   4.5961941  )

     number of k points=    50  Gaussian smearing, width (Ry)=  0.0080
                       cart. coord. in units 2pi/alat
        k(    1) = (   0.0000000   0.0000000   0.0000000), wk =   0.0208333
        k(    2) = (   0.0000000   0.0589256   0.0000000), wk =   0.0416667
        k(    3) = (   0.0000000   0.1178511   0.0000000), wk =   0.0416667
        k(    4) = (   0.0000000   0.1767767   0.0000000), wk =   0.0416667
        k(    5) = (   0.0000000   0.2357023   0.0000000), wk =   0.0416667
        k(    6) = (   0.0000000   0.2946278   0.0000000), wk =   0.0416667
        k(    7) = (   0.0000000  -0.3535534   0.0000000), wk =   0.0208333
        k(    8) = (   0.1250000   0.0000000   0.0000000), wk =   0.0416667
        k(    9) = (   0.1250000   0.0589256   0.0000000), wk =   0.0416667
        k(   10) = (   0.1250000   0.1178511   0.0000000), wk =   0.0416667
        k(   11) = (   0.1250000   0.1767767   0.0000000), wk =   0.0416667
        k(   12) = (   0.1250000   0.2357023   0.0000000), wk =   0.0416667
        k(   13) = (   0.1250000   0.2946278   0.0000000), wk =   0.0416667
        k(   14) = (   0.1250000  -0.3535534   0.0000000), wk =   0.0416667
        k(   15) = (   0.1250000  -0.2946278   0.0000000), wk =   0.0416667
        k(   16) = (   0.1250000  -0.2357023   0.0000000), wk =   0.0416667
        k(   17) = (   0.1250000  -0.1767767   0.0000000), wk =   0.0416667
        k(   18) = (   0.1250000  -0.1178511   0.0000000), wk =   0.0416667
        k(   19) = (   0.1250000  -0.0589256   0.0000000), wk =   0.0416667
        k(   20) = (   0.2500000   0.0000000   0.0000000), wk =   0.0416667
        k(   21) = (   0.2500000   0.0589256   0.0000000), wk =   0.0416667
        k(   22) = (   0.2500000   0.1178511   0.0000000), wk =   0.0416667
        k(   23) = (   0.2500000   0.1767767   0.0000000), wk =   0.0416667
        k(   24) = (   0.2500000   0.2357023   0.0000000), wk =   0.0416667
        k(   25) = (   0.2500000   0.2946278   0.0000000), wk =   0.0416667
        k(   26) = (   0.2500000  -0.3535534   0.0000000), wk =   0.0416667
        k(   27) = (   0.2500000  -0.2946278   0.0000000), wk =   0.0416667
        k(   28) = (   0.2500000  -0.2357023   0.0000000), wk =   0.0416667
        k(   29) = (   0.2500000  -0.1767767   0.0000000), wk =   0.0416667
        k(   30) = (   0.2500000  -0.1178511   0.0000000), wk =   0.0416667
        k(   31) = (   0.2500000  -0.0589256   0.0000000), wk =   0.0416667
        k(   32) = (   0.3750000   0.0000000   0.0000000), wk =   0.0416667
        k(   33) = (   0.3750000   0.0589256   0.0000000), wk =   0.0416667
        k(   34) = (   0.3750000   0.1178511   0.0000000), wk =   0.0416667
        k(   35) = (   0.3750000   0.1767767   0.0000000), wk =   0.0416667
        k(   36) = (   0.3750000   0.2357023   0.0000000), wk =   0.0416667
        k(   37) = (   0.3750000   0.2946278   0.0000000), wk =   0.0416667
        k(   38) = (   0.3750000  -0.3535534   0.0000000), wk =   0.0416667
        k(   39) = (   0.3750000  -0.2946278   0.0000000), wk =   0.0416667
        k(   40) = (   0.3750000  -0.2357023   0.0000000), wk =   0.0416667
        k(   41) = (   0.3750000  -0.1767767   0.0000000), wk =   0.0416667
        k(   42) = (   0.3750000  -0.1178511   0.0000000), wk =   0.0416667
        k(   43) = (   0.3750000  -0.0589256   0.0000000), wk =   0.0416667
        k(   44) = (  -0.5000000   0.0000000   0.0000000), wk =   0.0208333
        k(   45) = (  -0.5000000   0.0589256   0.0000000), wk =   0.0416667
        k(   46) = (  -0.5000000   0.1178511   0.0000000), wk =   0.0416667
        k(   47) = (  -0.5000000   0.1767767   0.0000000), wk =   0.0416667
        k(   48) = (  -0.5000000   0.2357023   0.0000000), wk =   0.0416667
        k(   49) = (  -0.5000000   0.2946278   0.0000000), wk =   0.0416667
        k(   50) = (  -0.5000000  -0.3535534   0.0000000), wk =   0.0208333

     Dense  grid:   261457 G-vectors     FFT dimensions: (  45,  64, 200)

     Smooth grid:   142317 G-vectors     FFT dimensions: (  36,  50, 160)

     Estimated max dynamical RAM per process >     393.00 MB

     Estimated total dynamical RAM >       3.84 GB

     Initial potential from superposition of free atoms

     starting charge     307.9969, renormalised to     308.0000
     Starting wfcs are  252 randomized atomic wfcs
     Checking if some PAW data can be deallocated... 

     total cpu time spent up to now is       22.2 secs

     Self-consistent Calculation

     iteration #  1     ecut=    50.00 Ry     beta= 0.01
     Davidson diagonalization with overlap
     ethr =  1.00E-02,  avg # of iterations =  4.2

     total cpu time spent up to now is       78.9 secs

     total energy              =  -21689.59040732 Ry
     estimated scf accuracy    <      30.03371479 Ry

     iteration #  2     ecut=    50.00 Ry     beta= 0.01
     Davidson diagonalization with overlap
     ethr =  9.75E-03,  avg # of iterations =  1.0

     total cpu time spent up to now is      116.7 secs

     total energy              =  -21689.66536299 Ry
     estimated scf accuracy    <      10.75098727 Ry

     iteration #  3     ecut=    50.00 Ry     beta= 0.01
     Davidson diagonalization with overlap
     ethr =  3.49E-03,  avg # of iterations =  1.0

     total cpu time spent up to now is      154.4 secs

     total energy              =  -21689.68739538 Ry
     estimated scf accuracy    <       2.69812164 Ry

     iteration #  4     ecut=    50.00 Ry     beta= 0.01
     Davidson diagonalization with overlap
     ethr =  8.76E-04,  avg # of iterations =  4.0

     total cpu time spent up to now is      200.8 secs

     total energy              =  -21689.42052951 Ry
     estimated scf accuracy    <       2.65366970 Ry

     iteration #  5     ecut=    50.00 Ry     beta= 0.01
     Davidson diagonalization with overlap
     ethr =  8.62E-04,  avg # of iterations =  5.7

     total cpu time spent up to now is      251.5 secs

     total energy              =  -21689.66600982 Ry
     estimated scf accuracy    <       6.29123348 Ry

     iteration #  6     ecut=    50.00 Ry     beta= 0.01
     Davidson diagonalization with overlap
     ethr =  8.62E-04,  avg # of iterations =  1.2

     total cpu time spent up to now is      290.3 secs

     total energy              =  -21689.53330242 Ry
     estimated scf accuracy    <       2.82042723 Ry

     iteration #  7     ecut=    50.00 Ry     beta= 0.01
     Davidson diagonalization with overlap
     ethr =  8.62E-04,  avg # of iterations =  1.0

     total cpu time spent up to now is      328.0 secs

     total energy              =  -21689.41199234 Ry
     estimated scf accuracy    <       0.67460904 Ry

     iteration #  8     ecut=    50.00 Ry     beta= 0.01
     Davidson diagonalization with overlap
     c_bands:  2 eigenvalues not converged
     c_bands:  4 eigenvalues not converged
     ethr =  2.19E-04,  avg # of iterations =  9.1

     total cpu time spent up to now is      394.5 secs

     total energy              =  -21689.59731815 Ry
     estimated scf accuracy    <       2.07343461 Ry

     iteration #  9     ecut=    50.00 Ry     beta= 0.01
     Davidson diagonalization with overlap
     ethr =  2.19E-04,  avg # of iterations =  1.3

     total cpu time spent up to now is      433.5 secs

     total energy              =  -21689.62865053 Ry
     estimated scf accuracy    <       2.10043465 Ry

     iteration # 10     ecut=    50.00 Ry     beta= 0.01
     Davidson diagonalization with overlap
     ethr =  2.19E-04,  avg # of iterations =  1.0

     total cpu time spent up to now is      471.2 secs

     total energy              =  -21689.65957098 Ry
     estimated scf accuracy    <       2.32632132 Ry

     iteration # 11     ecut=    50.00 Ry     beta= 0.01
     Davidson diagonalization with overlap
     ethr =  2.19E-04,  avg # of iterations =  1.0

     total cpu time spent up to now is      508.8 secs

     total energy              =  -21689.55137849 Ry
     estimated scf accuracy    <       2.66407601 Ry

     iteration # 12     ecut=    50.00 Ry     beta= 0.01
     Davidson diagonalization with overlap
     ethr =  2.19E-04,  avg # of iterations =  2.1

     total cpu time spent up to now is      548.8 secs

     total energy              =  -21689.58727197 Ry
     estimated scf accuracy    <       0.87287591 Ry

     iteration # 13     ecut=    50.00 Ry     beta= 0.01
     Davidson diagonalization with overlap
     ethr =  2.19E-04,  avg # of iterations =  1.0

     total cpu time spent up to now is      586.6 secs

     total energy              =  -21689.56896492 Ry
     estimated scf accuracy    <       0.81486969 Ry

     iteration # 14     ecut=    50.00 Ry     beta= 0.01
     Davidson diagonalization with overlap
     ethr =  2.19E-04,  avg # of iterations =  1.1

     total cpu time spent up to now is      624.6 secs

     total energy              =  -21689.54778247 Ry
     estimated scf accuracy    <       0.41428212 Ry

     iteration # 15     ecut=    50.00 Ry     beta= 0.01
     Davidson diagonalization with overlap
     ethr =  1.35E-04,  avg # of iterations =  1.5

     total cpu time spent up to now is      663.5 secs

     total energy              =  -21689.54984948 Ry
     estimated scf accuracy    <       0.18743799 Ry

     iteration # 16     ecut=    50.00 Ry     beta= 0.01
     Davidson diagonalization with overlap
     ethr =  6.09E-05,  avg # of iterations =  2.3

     total cpu time spent up to now is      704.5 secs

     total energy              =  -21689.54932855 Ry
     estimated scf accuracy    <       0.16679687 Ry

     iteration # 17     ecut=    50.00 Ry     beta= 0.01
     Davidson diagonalization with overlap
     ethr =  5.42E-05,  avg # of iterations =  1.0

     total cpu time spent up to now is      742.3 secs

     total energy              =  -21689.50037797 Ry
     estimated scf accuracy    <       0.16415305 Ry

     iteration # 18     ecut=    50.00 Ry     beta= 0.01
     Davidson diagonalization with overlap
     c_bands:  1 eigenvalues not converged
     ethr =  5.33E-05,  avg # of iterations =  3.1

     total cpu time spent up to now is      786.3 secs

     total energy              =  -21689.51050869 Ry
     estimated scf accuracy    <       0.09617468 Ry

     iteration # 19     ecut=    50.00 Ry     beta= 0.01
     Davidson diagonalization with overlap
     ethr =  3.12E-05,  avg # of iterations =  1.2

     total cpu time spent up to now is      825.3 secs

     total energy              =  -21689.50876418 Ry
     estimated scf accuracy    <       0.09313821 Ry

     iteration # 20     ecut=    50.00 Ry     beta= 0.01
     Davidson diagonalization with overlap
     ethr =  3.02E-05,  avg # of iterations =  1.0

     total cpu time spent up to now is      863.1 secs

     total energy              =  -21689.51442457 Ry
     estimated scf accuracy    <       0.09011657 Ry

     iteration # 21     ecut=    50.00 Ry     beta= 0.01
     Davidson diagonalization with overlap
     c_bands:  2 eigenvalues not converged
     ethr =  2.93E-05,  avg # of iterations =  1.6

     total cpu time spent up to now is      902.4 secs

     total energy              =  -21689.51309057 Ry
     estimated scf accuracy    <       0.11069276 Ry

     iteration # 22     ecut=    50.00 Ry     beta= 0.01
     Davidson diagonalization with overlap
     ethr =  2.93E-05,  avg # of iterations =  1.1

     total cpu time spent up to now is      940.6 secs

     total energy              =  -21689.50746163 Ry
     estimated scf accuracy    <       0.07621733 Ry

     iteration # 23     ecut=    50.00 Ry     beta= 0.01
     Davidson diagonalization with overlap
     ethr =  2.47E-05,  avg # of iterations =  2.2

     total cpu time spent up to now is      984.9 secs

     total energy              =  -21689.50962082 Ry
     estimated scf accuracy    <       0.01584656 Ry

     iteration # 24     ecut=    50.00 Ry     beta= 0.01
     Davidson diagonalization with overlap
     c_bands:  1 eigenvalues not converged
     c_bands:  1 eigenvalues not converged
     c_bands:  1 eigenvalues not converged
     c_bands:  1 eigenvalues not converged
     c_bands:  1 eigenvalues not converged
     c_bands:  1 eigenvalues not converged
     ethr =  5.14E-06,  avg # of iterations = 12.9

     total cpu time spent up to now is     1067.6 secs

     total energy              =  -21689.51408142 Ry
     estimated scf accuracy    <       0.02070310 Ry

     iteration # 25     ecut=    50.00 Ry     beta= 0.01
     Davidson diagonalization with overlap
     c_bands:  1 eigenvalues not converged
     ethr =  5.14E-06,  avg # of iterations =  1.8

     total cpu time spent up to now is     1107.0 secs

     total energy              =  -21689.51311403 Ry
     estimated scf accuracy    <       0.01497355 Ry

     iteration # 26     ecut=    50.00 Ry     beta= 0.01
     Davidson diagonalization with overlap
     ethr =  4.86E-06,  avg # of iterations =  1.3

     total cpu time spent up to now is     1146.1 secs

     total energy              =  -21689.51251048 Ry
     estimated scf accuracy    <       0.00957002 Ry

     iteration # 27     ecut=    50.00 Ry     beta= 0.01
     Davidson diagonalization with overlap
     ethr =  3.11E-06,  avg # of iterations =  2.1

     total cpu time spent up to now is     1190.8 secs

     total energy              =  -21689.51279106 Ry
     estimated scf accuracy    <       0.00889755 Ry

     iteration # 28     ecut=    50.00 Ry     beta= 0.01
     Davidson diagonalization with overlap
     ethr =  2.89E-06,  avg # of iterations =  1.8

     total cpu time spent up to now is     1233.2 secs

     total energy              =  -21689.51185112 Ry
     estimated scf accuracy    <       0.00832789 Ry

     iteration # 29     ecut=    50.00 Ry     beta= 0.01
     Davidson diagonalization with overlap
     ethr =  2.70E-06,  avg # of iterations =  2.0

     total cpu time spent up to now is     1277.2 secs

     total energy              =  -21689.51302027 Ry
     estimated scf accuracy    <       0.00279743 Ry

     iteration # 30     ecut=    50.00 Ry     beta= 0.01
     Davidson diagonalization with overlap
     ethr =  9.08E-07,  avg # of iterations =  2.0

     total cpu time spent up to now is     1322.6 secs

     total energy              =  -21689.51273418 Ry
     estimated scf accuracy    <       0.00313021 Ry

     iteration # 31     ecut=    50.00 Ry     beta= 0.01
     Davidson diagonalization with overlap
     ethr =  9.08E-07,  avg # of iterations =  1.0

     total cpu time spent up to now is     1360.8 secs

     total energy              =  -21689.51248719 Ry
     estimated scf accuracy    <       0.00250619 Ry

     iteration # 32     ecut=    50.00 Ry     beta= 0.01
     Davidson diagonalization with overlap
     ethr =  8.14E-07,  avg # of iterations =  1.0

     total cpu time spent up to now is     1398.8 secs

     total energy              =  -21689.51302860 Ry
     estimated scf accuracy    <       0.00216558 Ry

     iteration # 33     ecut=    50.00 Ry     beta= 0.01
     Davidson diagonalization with overlap
     ethr =  7.03E-07,  avg # of iterations =  2.1

     total cpu time spent up to now is     1455.3 secs

     total energy              =  -21689.51247601 Ry
     estimated scf accuracy    <       0.00285522 Ry

     iteration # 34     ecut=    50.00 Ry     beta= 0.01
     Davidson diagonalization with overlap
     ethr =  7.03E-07,  avg # of iterations =  2.0

     total cpu time spent up to now is     1499.8 secs

     total energy              =  -21689.51277969 Ry
     estimated scf accuracy    <       0.00034061 Ry

     iteration # 35     ecut=    50.00 Ry     beta= 0.01
     Davidson diagonalization with overlap
     ethr =  1.11E-07,  avg # of iterations =  2.0

     total cpu time spent up to now is     1544.3 secs

     total energy              =  -21689.51280608 Ry
     estimated scf accuracy    <       0.00029553 Ry

     iteration # 36     ecut=    50.00 Ry     beta= 0.01
     Davidson diagonalization with overlap
     ethr =  9.60E-08,  avg # of iterations =  1.0

     total cpu time spent up to now is     1582.4 secs

     total energy              =  -21689.51277105 Ry
     estimated scf accuracy    <       0.00026571 Ry

     iteration # 37     ecut=    50.00 Ry     beta= 0.01
     Davidson diagonalization with overlap
     ethr =  8.63E-08,  avg # of iterations =  2.1

     total cpu time spent up to now is     1628.0 secs

     total energy              =  -21689.51285707 Ry
     estimated scf accuracy    <       0.00029576 Ry

     iteration # 38     ecut=    50.00 Ry     beta= 0.01
     Davidson diagonalization with overlap
     ethr =  8.63E-08,  avg # of iterations =  2.0

     total cpu time spent up to now is     1671.7 secs

     total energy              =  -21689.51285974 Ry
     estimated scf accuracy    <       0.00021489 Ry

     iteration # 39     ecut=    50.00 Ry     beta= 0.01
     Davidson diagonalization with overlap
     ethr =  6.98E-08,  avg # of iterations =  1.0

     total cpu time spent up to now is     1709.8 secs

     total energy              =  -21689.51287612 Ry
     estimated scf accuracy    <       0.00019203 Ry

     iteration # 40     ecut=    50.00 Ry     beta= 0.01
     Davidson diagonalization with overlap
     ethr =  6.23E-08,  avg # of iterations =  1.0

     total cpu time spent up to now is     1747.8 secs

     total energy              =  -21689.51290693 Ry
     estimated scf accuracy    <       0.00016178 Ry

     iteration # 41     ecut=    50.00 Ry     beta= 0.01
     Davidson diagonalization with overlap
     ethr =  5.25E-08,  avg # of iterations =  1.0

     total cpu time spent up to now is     1785.8 secs

     total energy              =  -21689.51287465 Ry
     estimated scf accuracy    <       0.00014781 Ry

     iteration # 42     ecut=    50.00 Ry     beta= 0.01
     Davidson diagonalization with overlap
     ethr =  4.80E-08,  avg # of iterations =  2.4

     total cpu time spent up to now is     1834.2 secs

     total energy              =  -21689.51286427 Ry
     estimated scf accuracy    <       0.00022240 Ry

     iteration # 43     ecut=    50.00 Ry     beta= 0.01
     Davidson diagonalization with overlap
     ethr =  4.80E-08,  avg # of iterations =  2.0

     total cpu time spent up to now is     1879.7 secs

     total energy              =  -21689.51289055 Ry
     estimated scf accuracy    <       0.00005661 Ry

     iteration # 44     ecut=    50.00 Ry     beta= 0.01
     Davidson diagonalization with overlap
     ethr =  1.84E-08,  avg # of iterations =  2.0

     total cpu time spent up to now is     1923.5 secs

     total energy              =  -21689.51290692 Ry
     estimated scf accuracy    <       0.00004520 Ry

     iteration # 45     ecut=    50.00 Ry     beta= 0.01
     Davidson diagonalization with overlap
     ethr =  1.47E-08,  avg # of iterations =  1.0

     total cpu time spent up to now is     1961.6 secs

     total energy              =  -21689.51290877 Ry
     estimated scf accuracy    <       0.00003799 Ry

     iteration # 46     ecut=    50.00 Ry     beta= 0.01
     Davidson diagonalization with overlap
     ethr =  1.23E-08,  avg # of iterations =  1.6

     total cpu time spent up to now is     2003.1 secs

     total energy              =  -21689.51292048 Ry
     estimated scf accuracy    <       0.00002485 Ry

     iteration # 47     ecut=    50.00 Ry     beta= 0.01
     Davidson diagonalization with overlap
     ethr =  8.07E-09,  avg # of iterations =  2.0

     total cpu time spent up to now is     2046.9 secs

     total energy              =  -21689.51293119 Ry
     estimated scf accuracy    <       0.00002054 Ry

     iteration # 48     ecut=    50.00 Ry     beta= 0.01
     Davidson diagonalization with overlap
     ethr =  6.67E-09,  avg # of iterations =  1.0

     total cpu time spent up to now is     2085.0 secs

     total energy              =  -21689.51293989 Ry
     estimated scf accuracy    <       0.00001540 Ry

     iteration # 49     ecut=    50.00 Ry     beta= 0.01
     Davidson diagonalization with overlap
     ethr =  5.00E-09,  avg # of iterations =  1.0

     total cpu time spent up to now is     2123.0 secs

     total energy              =  -21689.51294774 Ry
     estimated scf accuracy    <       0.00001110 Ry

     iteration # 50     ecut=    50.00 Ry     beta= 0.01
     Davidson diagonalization with overlap
     ethr =  3.60E-09,  avg # of iterations =  1.0

     total cpu time spent up to now is     2161.1 secs

     total energy              =  -21689.51295956 Ry
     estimated scf accuracy    <       0.00001150 Ry

     iteration # 51     ecut=    50.00 Ry     beta= 0.01
     Davidson diagonalization with overlap
     ethr =  3.60E-09,  avg # of iterations =  2.0

     total cpu time spent up to now is     2205.1 secs

     total energy              =  -21689.51296920 Ry
     estimated scf accuracy    <       0.00001489 Ry

     iteration # 52     ecut=    50.00 Ry     beta= 0.01
     Davidson diagonalization with overlap
     ethr =  3.60E-09,  avg # of iterations =  1.2

     total cpu time spent up to now is     2244.2 secs

     total energy              =  -21689.51298282 Ry
     estimated scf accuracy    <       0.00001925 Ry

     iteration # 53     ecut=    50.00 Ry     beta= 0.01
     Davidson diagonalization with overlap
     ethr =  3.60E-09,  avg # of iterations =  1.9

     total cpu time spent up to now is     2287.9 secs

     total energy              =  -21689.51298581 Ry
     estimated scf accuracy    <       0.00003214 Ry

     iteration # 54     ecut=    50.00 Ry     beta= 0.01
     Davidson diagonalization with overlap
     ethr =  3.60E-09,  avg # of iterations =  2.0

     total cpu time spent up to now is     2339.7 secs

     total energy              =  -21689.51300109 Ry
     estimated scf accuracy    <       0.00001124 Ry

     iteration # 55     ecut=    50.00 Ry     beta= 0.01
     Davidson diagonalization with overlap
     ethr =  3.60E-09,  avg # of iterations =  2.0

     total cpu time spent up to now is     2384.0 secs

     total energy              =  -21689.51301188 Ry
     estimated scf accuracy    <       0.00002351 Ry

     iteration # 56     ecut=    50.00 Ry     beta= 0.01
     Davidson diagonalization with overlap
     ethr =  3.60E-09,  avg # of iterations =  2.0

     total cpu time spent up to now is     2429.7 secs

     total energy              =  -21689.51301155 Ry
     estimated scf accuracy    <       0.00003748 Ry

     iteration # 57     ecut=    50.00 Ry     beta= 0.01
     Davidson diagonalization with overlap
     ethr =  3.60E-09,  avg # of iterations =  2.0

     total cpu time spent up to now is     2486.0 secs

     total energy              =  -21689.51302537 Ry
     estimated scf accuracy    <       0.00001055 Ry

     iteration # 58     ecut=    50.00 Ry     beta= 0.01
     Davidson diagonalization with overlap
     ethr =  3.42E-09,  avg # of iterations =  1.0

     total cpu time spent up to now is     2524.0 secs

     total energy              =  -21689.51302835 Ry
     estimated scf accuracy    <       0.00001124 Ry

     iteration # 59     ecut=    50.00 Ry     beta= 0.01
     Davidson diagonalization with overlap
     ethr =  3.42E-09,  avg # of iterations =  1.0

     total cpu time spent up to now is     2562.1 secs

     total energy              =  -21689.51303947 Ry
     estimated scf accuracy    <       0.00001234 Ry

     iteration # 60     ecut=    50.00 Ry     beta= 0.01
     Davidson diagonalization with overlap
     ethr =  3.42E-09,  avg # of iterations =  1.0

     total cpu time spent up to now is     2600.2 secs

     total energy              =  -21689.51304900 Ry
     estimated scf accuracy    <       0.00000876 Ry

     iteration # 61     ecut=    50.00 Ry     beta= 0.01
     Davidson diagonalization with overlap
     ethr =  2.84E-09,  avg # of iterations =  1.0

     total cpu time spent up to now is     2638.2 secs

     total energy              =  -21689.51305216 Ry
     estimated scf accuracy    <       0.00000811 Ry

     iteration # 62     ecut=    50.00 Ry     beta= 0.01
     Davidson diagonalization with overlap
     ethr =  2.63E-09,  avg # of iterations =  2.0

     total cpu time spent up to now is     2688.9 secs

     total energy              =  -21689.51305610 Ry
     estimated scf accuracy    <       0.00000987 Ry

     iteration # 63     ecut=    50.00 Ry     beta= 0.01
     Davidson diagonalization with overlap
     ethr =  2.63E-09,  avg # of iterations =  2.0

     total cpu time spent up to now is     2745.4 secs

     total energy              =  -21689.51306717 Ry
     estimated scf accuracy    <       0.00000124 Ry

     iteration # 64     ecut=    50.00 Ry     beta= 0.01
     Davidson diagonalization with overlap
     ethr =  4.02E-10,  avg # of iterations =  2.0

     total cpu time spent up to now is     2790.1 secs

     End of self-consistent calculation

          k = 0.0000 0.0000 0.0000 ( 17807 PWs)   bands (ev):

     0.7801   0.8464   0.9188   0.9195   1.9749   2.2000   2.2023   2.4109
     2.9002   3.0007   3.4392   3.4424   3.8676   5.0782   5.8356   5.8373
     5.9109   7.0090   7.0110   7.7084   8.3779   8.3956   9.6627   9.6853
    10.0659  10.3319  10.3333  10.4133  10.9010  10.9847  10.9865  11.0725
    11.2249  11.2344  11.2537  11.2967  11.3101  11.3385  11.4547  11.4624
    11.4698  11.5448  11.5686  11.6037  11.6779  11.7023  11.7230  11.8083
    11.8472  11.8568  11.8895  12.0064  12.0588  12.0950  12.0962  12.0977
    12.1154  12.3189  12.3705  12.3883  12.4310  12.5996  12.6186  12.6776
    12.7007  12.7686  12.7996  12.8188  12.9160  12.9830  13.0831  13.0840
    13.1193  13.1491  13.1760  13.1944  13.2136  13.2312  13.2497  13.4241
    13.4667  13.5478  13.5915  13.7012  13.7027  13.8187  13.8708  13.9520
    13.9898  14.0293  14.1386  14.2236  14.2552  14.2602  14.3226  14.4267
    14.4766  14.4883  14.5051  14.5438  14.6815  14.7504  14.7687  14.7742
    14.8069  14.8176  14.8756  14.8926  14.9007  14.9819  15.0263  15.0484
    15.1212  15.2060  15.2627  15.2828  15.3268  15.3301  15.4333  15.5127
    15.5186  15.5881  15.6208  15.6323  15.6996  15.7361  15.8269  15.8495
    15.8646  15.9136  15.9810  15.9905  16.0458  16.0993  16.2063  16.2113
    16.2196  16.3823  16.3858  16.4878  16.4974  16.6927  16.6951  16.9554
    16.9683  17.1128  17.3430  17.3454  17.4143  17.7264  17.7281  17.8866
    17.8940  18.0386  18.0512  18.1114  18.3786  18.3792  18.8314  18.8384
    19.4330  19.6850  20.3121  20.5428  21.3096  21.3099  21.5823  22.3635
    22.4732  23.0898  23.3435  23.4083  23.4094  23.5788  24.0626  24.7397
    24.7416  24.7952  24.7993  25.0009  25.3616  25.8699  25.9999  26.0488
    26.0628

          k = 0.0000 0.0589 0.0000 ( 17795 PWs)   bands (ev):

     0.8044   0.8509   0.9025   0.9518   1.9583   2.1880   2.1943   2.3929
     2.9085   3.0375   3.3827   3.4936   3.8847   5.0753   5.6109   5.9315
     6.0997   6.7732   7.1551   7.7286   8.4163   8.4351   9.6973   9.7196
     9.9816  10.3161  10.3600  10.4452  10.9371  10.9883  10.9979  11.1051
    11.1675  11.2180  11.2506  11.2831  11.3142  11.3586  11.4248  11.4495
    11.4961  11.5610  11.5678  11.5911  11.6314  11.6789  11.7061  11.7305
    11.7503  11.8489  11.9068  11.9076  11.9491  12.1740  12.1800  12.2173
    12.2378  12.3165  12.4120  12.4420  12.4480  12.5827  12.6481  12.6603
    12.6886  12.7200  12.7490  12.8758  12.9387  12.9717  12.9892  13.0235
    13.0241  13.1245  13.1952  13.2154  13.3013  13.3050  13.3542  13.3921
    13.4237  13.5609  13.5952  13.6780  13.7264  13.8238  13.8860  13.9308
    13.9806  13.9975  14.1820  14.2185  14.2659  14.3109  14.3274  14.4387
    14.4733  14.4924  14.5251  14.5651  14.6633  14.6770  14.7696  14.7800
    14.7952  14.8281  14.8328  14.8512  14.9244  14.9734  15.0040  15.0192
    15.1445  15.2030  15.2503  15.2531  15.3283  15.3288  15.4443  15.5110
    15.5726  15.5869  15.6180  15.6272  15.6886  15.7064  15.7654  15.8271
    15.8602  15.8951  15.9653  15.9764  16.0450  16.1075  16.1720  16.2016
    16.2388  16.3475  16.4053  16.4136  16.4797  16.5656  16.7284  16.9478
    16.9720  17.0749  17.1427  17.1569  17.2850  17.3804  17.4191  17.4380
    17.6735  18.0983  18.2691  18.3189  18.6068  18.7425  19.2783  19.3392
    19.4764  19.7266  20.4036  20.6024  21.3414  21.5702  21.5980  22.4054
    22.4973  23.1160  23.1594  23.3438  23.5869  23.6302  24.0632  24.1987
    24.3005  25.0182  25.1434  25.3619  25.5086  25.7310  25.8529  25.8706
    25.8948

          k = 0.0000 0.1179 0.0000 ( 17803 PWs)   bands (ev):

     0.8630   0.8745   0.8989   1.0010   1.9118   2.1475   2.1762   2.3485
     2.9321   3.1344   3.3236   3.5368   3.9398   5.0679   5.4230   5.9934
     6.3991   6.4584   7.2035   7.7863   8.5299   8.5529   9.7448   9.8050
     9.8274  10.2770  10.3311  10.5374  10.8456  10.9686  11.0313  11.0544
    11.1186  11.1965  11.2474  11.2783  11.3484  11.3594  11.4255  11.4619
    11.4864  11.5423  11.5489  11.6280  11.6356  11.6441  11.7061  11.7593
    11.7898  11.8178  11.8353  11.9461  12.0592  12.2153  12.2363  12.2705
    12.3146  12.3902  12.3988  12.5083  12.5251  12.5616  12.5956  12.6359
    12.6467  12.7067  12.7503  12.7734  12.8251  12.8507  12.9353  12.9899
    13.0494  13.1029  13.1713  13.1902  13.2961  13.3478  13.3895  13.4763
    13.5471  13.5534  13.6223  13.6937  13.7256  13.8016  13.8923  13.8934
    13.9741  13.9796  14.2102  14.2648  14.2701  14.3403  14.3749  14.4358
    14.5051  14.5120  14.5787  14.5895  14.6242  14.6430  14.6972  14.7155
    14.7523  14.7651  14.8091  14.8695  14.8868  14.9629  14.9763  14.9944
    15.1188  15.1363  15.2181  15.3011  15.3237  15.3278  15.3999  15.4136
    15.4652  15.5680  15.5754  15.6591  15.6734  15.6977  15.7975  15.8196
    15.8499  15.8785  15.9076  15.9291  15.9691  16.0284  16.0710  16.1411
    16.2470  16.3339  16.3647  16.3929  16.4518  16.4713  16.5661  16.6441
    16.7145  16.7456  16.8026  16.9324  16.9390  17.0559  17.1471  17.4868
    17.6094  17.9062  18.3008  18.6420  19.2705  19.4225  19.5936  19.8448
    20.0960  20.1355  20.6619  20.7650  21.4614  21.6530  21.9303  22.5194
    22.5714  23.1767  23.1832  23.3295  23.4898  23.6122  23.9306  23.9459
    24.0781  25.0611  25.1335  25.2293  25.3085  25.3431  25.4648  25.6348
    25.8845

          k = 0.0000 0.1768 0.0000 ( 17795 PWs)   bands (ev):

     0.8800   0.9041   0.9809   1.0652   1.8446   2.0749   2.1565   2.2933
     2.9676   3.2618   3.2663   3.5665   4.0454   5.0603   5.2701   6.0879
     6.0969   6.7294   7.1589   7.8712   8.7144   8.7468   9.4466   9.8973
     9.9624   9.9838  10.3804  10.6770  10.7280  10.8097  10.9794  11.0858
    11.1556  11.1657  11.1934  11.2648  11.3190  11.4469  11.4862  11.4889
    11.5118  11.5440  11.5975  11.6947  11.7101  11.7164  11.7324  11.7818
    11.8818  11.9073  11.9531  12.0464  12.2144  12.2182  12.2548  12.2634
    12.3213  12.3674  12.3801  12.4560  12.4994  12.5254  12.5676  12.6021
    12.6435  12.6541  12.6831  12.7448  12.7765  12.8264  12.8607  12.9497
    12.9712  13.1121  13.1389  13.2590  13.2601  13.3400  13.4037  13.4948
    13.5943  13.6365  13.6568  13.6962  13.7541  13.7917  13.8252  13.9119
    13.9322  14.0526  14.1820  14.2755  14.2849  14.3365  14.3406  14.4119
    14.4595  14.4871  14.5071  14.5889  14.5910  14.6233  14.6790  14.7079
    14.7289  14.7546  14.7995  14.8322  14.9035  14.9558  14.9701  14.9836
    15.0080  15.0269  15.1746  15.1879  15.2489  15.2608  15.3340  15.3377
    15.3578  15.4392  15.5493  15.5678  15.6266  15.6439  15.6854  15.7061
    15.7503  15.7933  15.8267  15.9552  15.9698  16.0075  16.0381  16.0785
    16.1426  16.1633  16.1659  16.2343  16.2744  16.3613  16.3657  16.4148
    16.4337  16.6664  16.7739  16.8525  16.9486  17.0260  17.0879  17.5464
    17.5498  17.7353  18.2904  19.1211  19.7585  20.0170  20.0256  20.1456
    20.8166  20.8388  20.9151  21.1417  21.5615  21.8005  22.0404  22.6665
    22.6912  23.0813  23.2363  23.2853  23.2943  23.6521  23.9662  24.0573
    24.1538  24.6907  24.8424  24.9141  25.1573  25.1850  25.3324  25.3813
    25.5761

          k = 0.0000 0.2357 0.0000 ( 17822 PWs)   bands (ev):

     0.8977   0.9127   1.1055   1.1390   1.7733   1.9730   2.1435   2.2388
     3.0110   3.2119   3.3856   3.5795   4.2203   5.0595   5.1449   5.6934
     6.2412   7.0086   7.1077   7.9562   8.9632   9.0085   9.1286   9.4658
    10.1661  10.1920  10.3576  10.4853  10.5601  10.8233  10.9159  10.9951
    11.1120  11.2578  11.2705  11.3135  11.3212  11.4450  11.5701  11.6088
    11.6368  11.6682  11.6938  11.7362  11.7761  11.8136  11.8473  11.8530
    11.9688  12.0224  12.0821  12.0828  12.1090  12.1687  12.2231  12.2525
    12.2843  12.3036  12.3976  12.4440  12.4604  12.4916  12.4984  12.4996
    12.5696  12.6526  12.7058  12.7590  12.8078  12.8271  12.8844  12.8994
    12.9499  13.0930  13.2504  13.2505  13.2964  13.3353  13.4014  13.5448
    13.5815  13.6465  13.6518  13.7480  13.7770  13.8291  13.8623  13.8680
    13.9521  14.0938  14.0971  14.2144  14.2372  14.2837  14.2949  14.3135
    14.3376  14.3680  14.4365  14.4745  14.5712  14.5937  14.6306  14.7079
    14.7240  14.7295  14.8219  14.8249  14.8386  14.8640  14.9332  14.9591
    14.9972  15.0084  15.0610  15.0636  15.1083  15.1687  15.1691  15.1920
    15.2814  15.2842  15.3552  15.3748  15.5150  15.5717  15.6015  15.6106
    15.6253  15.7069  15.7394  15.7520  15.7791  15.8289  15.8923  16.0242
    16.0692  16.0808  16.1553  16.2622  16.3390  16.3528  16.4093  16.4188
    16.4280  16.6443  16.7715  16.9367  16.9858  17.0736  17.1445  17.5687
    17.5905  17.6100  18.4201  19.6700  19.9417  20.2567  20.7423  20.7557
    20.8399  20.9654  21.3249  21.7086  22.1109  22.1236  22.1312  22.5542
    22.7564  22.8294  23.1200  23.1711  23.2634  23.7638  24.0843  24.3302
    24.4501  24.4986  24.6276  24.6708  24.7859  24.8779  25.2011  25.2202
    25.3140

          k = 0.0000 0.2946 0.0000 ( 17818 PWs)   bands (ev):

     0.9120   0.9192   1.2101   1.2126   1.7289   1.8557   2.1433   2.1923
     3.0589   3.1598   3.4807   3.5724   4.4727   5.0154   5.0762   5.3324
     6.4221   6.8391   7.4537   7.9625   8.8955   9.1190   9.2674   9.3418
     9.9884  10.1345  10.3890  10.4291  10.5852  10.8311  10.8532  10.8625
    11.1623  11.3199  11.3297  11.3731  11.4546  11.5154  11.6256  11.6814
    11.6949  11.7897  11.8064  11.8136  11.8622  11.8816  11.9046  11.9291
    11.9733  12.0045  12.0605  12.0704  12.0748  12.1107  12.1382  12.1985
    12.2715  12.3122  12.3162  12.3364  12.4138  12.4744  12.5272  12.5555
    12.5784  12.6365  12.6631  12.6735  12.8085  12.9192  12.9361  13.0093
    13.0388  13.1303  13.1572  13.3131  13.4166  13.4748  13.4860  13.5082
    13.5495  13.6542  13.7048  13.7573  13.8079  13.8306  13.8933  13.9227
    13.9356  14.0030  14.0222  14.1212  14.1601  14.1920  14.1989  14.2319
    14.2867  14.3026  14.3206  14.3946  14.4566  14.4792  14.5324  14.5780
    14.5847  14.6068  14.7104  14.7524  14.7698  14.8259  14.8862  14.8971
    14.9364  14.9618  14.9702  15.0428  15.0525  15.1289  15.1516  15.2239
    15.2374  15.2542  15.2710  15.3973  15.4055  15.4324  15.4571  15.5354
    15.5386  15.5765  15.6411  15.6458  15.6561  15.8000  15.8692  16.0577
    16.0689  16.1152  16.1659  16.2762  16.3193  16.3197  16.4110  16.4253
    16.6051  16.6422  16.7134  16.8567  17.0392  17.1444  17.2268  17.4576
    17.6688  17.6865  18.8749  20.0162  20.2723  20.4714  20.5281  20.7379
    21.0804  21.3851  21.5592  21.9077  22.3657  22.5164  22.6290  22.7751
    22.8048  22.8339  23.0233  23.0568  23.2682  23.5975  23.9112  24.0444
    24.1181  24.5043  24.5399  24.5879  24.8527  25.0395  25.0958  25.1337
    25.2321

          k = 0.0000-0.3536 0.0000 ( 17844 PWs)   bands (ev):

     0.9194   0.9195   1.2495   1.2495   1.7570   1.7570   2.1595   2.1595
     3.1088   3.1089   3.5413   3.5413   4.7752   4.7752   5.1354   5.1354
     6.6287   6.6287   7.7776   7.7776   8.9025   8.9026   9.6146   9.6146
     9.7204   9.7204  10.5961  10.5962  10.6663  10.6663  10.7549  10.7549
    11.2723  11.2724  11.4823  11.4823  11.5021  11.5021  11.6293  11.6293
    11.7076  11.7077  11.8974  11.8974  11.9292  11.9292  11.9434  11.9435
    11.9662  11.9663  12.0018  12.0018  12.1326  12.1326  12.1738  12.1739
    12.2491  12.2491  12.2671  12.2671  12.4201  12.4201  12.5142  12.5142
    12.6528  12.6528  12.7139  12.7139  12.8584  12.8585  12.9107  12.9108
    13.1431  13.1431  13.3581  13.3581  13.4695  13.4696  13.5307  13.5307
    13.6176  13.6177  13.6942  13.6942  13.8751  13.8751  13.9216  13.9216
    13.9742  13.9742  13.9995  13.9995  14.0854  14.0854  14.2093  14.2093
    14.2320  14.2320  14.2957  14.2957  14.3270  14.3270  14.5084  14.5085
    14.5534  14.5535  14.6688  14.6688  14.7960  14.7961  14.8650  14.8650
    14.9133  14.9134  15.0679  15.0679  15.0870  15.0871  15.2189  15.2189
    15.2661  15.2661  15.3013  15.3013  15.3836  15.3836  15.4505  15.4505
    15.4888  15.4889  15.5918  15.5918  15.7192  15.7193  15.9921  15.9921
    16.0785  16.0786  16.2415  16.2415  16.3170  16.3171  16.4155  16.4156
    16.6517  16.6517  16.7649  16.7650  17.0982  17.0982  17.3340  17.3340
    17.7074  17.7074  19.5424  19.5425  20.5345  20.5345  20.8029  20.8029
    20.9226  20.9227  22.2219  22.2219  22.2428  22.2428  22.9267  22.9268
    23.0603  23.0603  23.1737  23.1737  23.2424  23.2424  23.5125  23.5126
    24.3468  24.3468  24.7406  24.7406  24.8493  24.8494  24.9752  24.9752
    25.4606

          k = 0.1250 0.0000 0.0000 ( 17777 PWs)   bands (ev):

     0.8633   0.9036   0.9063   0.9070   1.9778   2.1329   2.1352   2.4434
     2.8279   3.0592   3.4573   3.4603   3.9351   5.1632   5.6643   5.6653
     5.9952   7.3260   7.3275   7.6380   8.5383   8.5880   9.6869   9.8330
     9.8957  10.3396  10.3901  10.3916  10.8142  11.0848  11.0850  11.1189
    11.2161  11.2771  11.2838  11.2858  11.3513  11.3582  11.4115  11.4547
    11.4652  11.4795  11.5532  11.5548  11.6410  11.6419  11.6827  11.6923
    11.7444  11.7586  11.7922  11.8418  11.8454  11.9466  12.1331  12.2503
    12.2599  12.2706  12.5739  12.6698  12.6803  12.7336  12.8220  12.8336
    12.8349  12.9084  13.0066  13.0098  13.0503  13.1153  13.1513  13.1535
    13.1840  13.1843  13.2998  13.3167  13.3568  13.3822  13.3982  13.4731
    13.4906  13.5061  13.6082  13.6184  13.7094  13.8048  13.8450  13.8633
    13.9004  13.9174  13.9936  13.9976  14.0114  14.0708  14.2984  14.3224
    14.3462  14.3626  14.4780  14.4877  14.4976  14.5192  14.6699  14.7067
    14.7835  14.7904  14.8355  14.8413  14.8635  14.9760  15.0429  15.0435
    15.0493  15.0819  15.2395  15.2436  15.2476  15.2889  15.3490  15.4217
    15.4469  15.5058  15.5834  15.6118  15.6403  15.6564  15.7130  15.7576
    15.8105  15.8599  15.8976  15.9705  16.0536  16.0719  16.1643  16.1933
    16.2057  16.3041  16.3067  16.4580  16.5487  16.7198  16.7235  16.8767
    16.9607  17.1108  17.1364  17.3224  17.3256  17.4922  17.8362  17.8370
    18.0168  18.0195  18.2752  18.2754  18.7382  18.7493  18.8885  19.4394
    19.4496  19.4605  19.6919  19.9668  21.1560  21.1949  21.1961  21.5178
    22.3113  22.6286  22.6293  23.3253  23.6489  23.9241  24.1173  24.4574
    24.4711  24.5821  24.5980  25.0257  25.0432  25.0501  25.2283  25.2682
    25.4177

          k = 0.1250 0.0589 0.0000 ( 17791 PWs)   bands (ev):

     0.8689   0.8898   0.9228   0.9402   1.9603   2.0833   2.1686   2.4223
     2.8487   3.0862   3.4107   3.5024   3.9545   5.1568   5.4996   5.8415
     6.0198   7.1174   7.4698   7.6603   8.5762   8.6260   9.7146   9.8079
     9.8693  10.3487  10.3772  10.4405  10.8512  11.0792  11.0997  11.1531
    11.1751  11.2409  11.2552  11.2785  11.3144  11.3559  11.4093  11.4308
    11.4536  11.4994  11.5132  11.5390  11.6152  11.6650  11.6994  11.7243
    11.7749  11.7969  11.8157  11.8595  11.8914  11.9431  12.0252  12.1547
    12.3088  12.4064  12.5733  12.6006  12.6822  12.7233  12.7831  12.8245
    12.8738  12.8835  12.9845  13.0169  13.0595  13.1036  13.1172  13.1558
    13.2245  13.2671  13.2774  13.2953  13.3192  13.3681  13.4297  13.4690
    13.5041  13.5115  13.6085  13.6258  13.7016  13.8205  13.8261  13.8601
    13.8884  13.9218  13.9529  13.9773  14.0513  14.1076  14.2578  14.3141
    14.3651  14.3779  14.4141  14.4805  14.5474  14.5652  14.6612  14.6863
    14.7680  14.8001  14.8345  14.8551  14.8641  14.9458  15.0069  15.0435
    15.0471  15.1196  15.2195  15.2239  15.2869  15.2984  15.3549  15.3975
    15.4419  15.4942  15.5468  15.5718  15.6301  15.6907  15.7033  15.7674
    15.8076  15.8753  15.8895  15.9311  16.0051  16.0940  16.1239  16.1444
    16.1952  16.2591  16.2960  16.3713  16.5583  16.5737  16.8340  16.9056
    16.9333  17.0535  17.1656  17.1863  17.2734  17.2775  17.5205  17.5727
    17.6630  17.8943  18.5597  18.5916  18.9720  18.9751  19.0185  19.5230
    19.6310  19.7340  19.7372  20.0116  21.1192  21.1856  21.5098  21.5358
    22.3429  22.3431  23.1459  23.3698  23.6492  23.8272  23.9415  23.9535
    24.1237  24.2608  24.4919  24.7008  24.9236  25.0172  25.2962  25.4228
    25.4886

          k = 0.1250 0.1179 0.0000 ( 17815 PWs)   bands (ev):

     0.8815   0.8873   0.9805   0.9913   1.9110   2.0186   2.1864   2.3729
     2.8956   3.1638   3.3601   3.5385   4.0163   5.1399   5.3590   5.9795
     6.0930   6.9049   7.5265   7.7245   8.6883   8.7387   9.5493   9.8379
     9.9707  10.2536  10.4437  10.4776  10.8036  10.9475  11.0290  11.1113
    11.1627  11.2290  11.2490  11.3003  11.3259  11.3734  11.3971  11.4619
    11.4813  11.5266  11.5555  11.5997  11.6055  11.6698  11.7441  11.7628
    11.8403  11.8423  11.9038  11.9076  11.9386  12.0072  12.0747  12.1927
    12.3698  12.4082  12.5201  12.5643  12.6210  12.6732  12.7223  12.7727
    12.8145  12.8223  12.8736  13.0171  13.0189  13.0609  13.0881  13.1334
    13.1856  13.2277  13.2348  13.2799  13.3304  13.3836  13.4279  13.5003
    13.5254  13.6093  13.6398  13.6398  13.7065  13.7765  13.7970  13.8336
    13.8665  13.9128  13.9451  14.0399  14.0894  14.1794  14.1818  14.3015
    14.3224  14.3527  14.3928  14.4685  14.5608  14.6482  14.6513  14.6802
    14.7255  14.7786  14.8203  14.8532  14.9013  14.9257  14.9308  14.9616
    15.0966  15.1584  15.2067  15.2518  15.2575  15.3227  15.3548  15.3653
    15.3957  15.4613  15.4631  15.5594  15.5819  15.6444  15.7274  15.7331
    15.8008  15.8245  15.8721  15.9061  15.9234  15.9987  16.0739  16.1316
    16.1638  16.2081  16.2189  16.2828  16.3916  16.5871  16.6319  16.6894
    16.8461  16.8890  16.9564  17.0169  17.0289  17.0940  17.2843  17.4042
    17.6384  17.8174  18.5263  18.7259  19.2208  19.4121  19.6016  19.6961
    19.8573  20.1458  20.3793  20.4421  20.9472  21.2694  21.5867  21.8968
    22.3915  22.4140  23.3364  23.4315  23.4951  23.5833  23.6461  23.8133
    23.9947  24.0516  24.1384  24.1843  24.5450  24.9695  25.4455  25.8372
    25.8925

          k = 0.1250 0.1768 0.0000 ( 17796 PWs)   bands (ev):

     0.8949   0.8970   1.0583   1.0684   1.8393   1.9427   2.1902   2.3158
     2.9505   3.2738   3.3073   3.5637   4.1313   5.1183   5.2461   5.9367
     6.2143   6.8459   7.4961   7.8201   8.8686   8.9214   9.2342   9.8458
    10.0035  10.1316  10.4467  10.6257  10.6595  10.8775  10.9557  11.0673
    11.1611  11.2499  11.2771  11.3289  11.3400  11.3784  11.4884  11.5249
    11.5646  11.5872  11.6247  11.6577  11.6614  11.7248  11.8334  11.8527
    11.8692  11.9721  11.9930  12.0435  12.0468  12.1086  12.1653  12.2355
    12.3833  12.3962  12.4098  12.5258  12.5475  12.5738  12.6409  12.6995
    12.7190  12.7528  12.7935  12.9166  12.9525  12.9784  13.0408  13.0555
    13.0841  13.1665  13.3016  13.3024  13.3252  13.3592  13.4566  13.5023
    13.5470  13.5818  13.6398  13.6439  13.6890  13.7267  13.7788  13.7876
    13.8757  13.9484  13.9766  14.0229  14.1333  14.1807  14.1830  14.2458
    14.2884  14.2967  14.3454  14.4506  14.5589  14.5693  14.6434  14.6770
    14.7022  14.7718  14.7795  14.8063  14.8792  14.8996  14.9296  14.9696
    15.0096  15.0978  15.1508  15.1789  15.2280  15.2419  15.2561  15.3080
    15.3496  15.4339  15.5211  15.5420  15.5627  15.5693  15.6539  15.6912
    15.7155  15.7965  15.8594  15.8724  15.9096  15.9377  15.9998  16.0194
    16.1032  16.1539  16.1562  16.1853  16.2741  16.2817  16.3074  16.4392
    16.5486  16.8386  16.8859  16.9366  17.0082  17.0860  17.3408  17.5047
    17.5180  18.1421  18.2755  18.6021  19.5846  19.9446  20.0558  20.1458
    20.2732  20.3679  20.6945  21.1846  21.2555  21.3934  21.6581  21.8991
    22.2232  22.4195  22.9403  23.2200  23.4678  23.6124  23.7060  23.7238
    23.8860  24.0747  24.1638  24.2727  24.7354  24.8267  25.3213  25.4281
    25.7459

          k = 0.1250 0.2357 0.0000 ( 17785 PWs)   bands (ev):

     0.9071   0.9116   1.1361   1.1684   1.7610   1.8583   2.1869   2.2630
     3.0092   3.2519   3.3859   3.5741   4.3151   5.0999   5.1597   5.6648
     6.3817   6.9812   7.4137   7.9190   8.8900   9.1169   9.1823   9.3739
    10.2195  10.3370  10.4000  10.5107  10.5780  10.7932  10.9764  11.0984
    11.1186  11.2119  11.3171  11.3185  11.3826  11.4653  11.6061  11.6120
    11.6509  11.6955  11.7248  11.7544  11.7596  11.8365  11.8984  11.9467
    12.0092  12.0698  12.0946  12.1214  12.1469  12.1695  12.2414  12.2899
    12.3173  12.3545  12.3862  12.4120  12.4543  12.5495  12.5792  12.5870
    12.6304  12.6646  12.7743  12.7836  12.8682  12.9439  12.9734  13.0513
    13.0687  13.1345  13.2848  13.2874  13.3480  13.3607  13.4231  13.4931
    13.5398  13.5714  13.5772  13.6302  13.6606  13.7289  13.7838  13.8006
    13.8850  13.9097  13.9625  13.9748  14.1054  14.1143  14.1596  14.1822
    14.1971  14.2894  14.4266  14.4613  14.4638  14.5435  14.5698  14.6209
    14.6347  14.7006  14.7411  14.7800  14.7897  14.8017  14.8562  14.8756
    14.9650  15.0267  15.0340  15.0836  15.1286  15.1365  15.1999  15.2996
    15.3295  15.3440  15.3643  15.4476  15.4708  15.5414  15.5838  15.6053
    15.6725  15.7052  15.7385  15.8005  15.8035  15.8722  15.9487  15.9613
    16.0278  16.1374  16.1454  16.1707  16.2336  16.2616  16.3000  16.3305
    16.4759  16.7298  16.7877  16.8176  17.0710  17.2135  17.3648  17.6056
    17.7464  18.0330  18.4942  18.6655  20.0026  20.1364  20.2381  20.3221
    20.6695  21.0254  21.0861  21.5163  21.5261  21.5768  21.7017  21.9364
    22.0948  22.1803  22.4789  22.8343  23.5651  23.6961  23.8929  23.9543
    24.1072  24.1509  24.2645  24.4810  24.5251  25.0045  25.0871  25.1822
    25.7519

          k = 0.1250 0.2946 0.0000 ( 17801 PWs)   bands (ev):

     0.9183   0.9216   1.2134   1.2483   1.7040   1.7726   2.1860   2.2217
     3.0704   3.1935   3.4755   3.5659   4.5740   5.0873   5.0938   5.3160
     6.5887   7.0067   7.4778   7.9292   8.6828   8.9935   9.4064   9.4877
    10.0721  10.2107  10.4623  10.5646  10.6120  10.8574  10.9149  10.9781
    11.1429  11.2289  11.3590  11.3675  11.4534  11.5090  11.6725  11.6770
    11.7146  11.8223  11.8314  11.8865  11.8885  11.9204  11.9614  12.0431
    12.0591  12.0774  12.1029  12.1230  12.1588  12.2045  12.2605  12.2869
    12.2984  12.3307  12.3557  12.4080  12.4182  12.4917  12.5091  12.5786
    12.5991  12.6560  12.7129  12.7626  12.8379  12.9145  12.9196  13.0669
    13.1012  13.1311  13.1542  13.3123  13.3519  13.4083  13.4422  13.4888
    13.5048  13.5786  13.6173  13.6327  13.6675  13.7007  13.7633  13.8011
    13.8289  13.8720  13.8981  13.9419  13.9918  14.0108  14.0635  14.1220
    14.2045  14.2803  14.3159  14.3527  14.4130  14.4819  14.5498  14.5773
    14.6094  14.6440  14.6662  14.7590  14.7737  14.8020  14.8301  14.8717
    14.9188  14.9680  14.9993  15.0009  15.0316  15.0847  15.1246  15.1318
    15.1669  15.1913  15.2439  15.2777  15.4032  15.4323  15.4861  15.5797
    15.6191  15.6622  15.7062  15.8085  15.8115  15.9155  15.9314  16.0595
    16.0655  16.1317  16.1758  16.1769  16.2453  16.2457  16.3259  16.3446
    16.4082  16.5811  16.7531  16.7612  17.1422  17.2848  17.3786  17.7153
    17.7686  17.9066  18.8516  19.0808  19.9676  20.3984  20.5544  20.6467
    21.0194  21.1349  21.1945  21.2598  21.4312  21.5921  21.7576  22.0128
    22.0313  22.1789  22.4794  22.9173  23.8510  23.8744  23.9289  24.0588
    24.1394  24.1695  24.2685  24.4693  24.7913  24.9379  25.0400  25.1415
    25.6102

          k = 0.1250-0.3536 0.0000 ( 17808 PWs)   bands (ev):

     0.9239   0.9240   1.2641   1.2641   1.7080   1.7080   2.1960   2.1960
     3.1325   3.1325   3.5346   3.5346   4.8864   4.8865   5.1180   5.1181
     6.8161   6.8161   7.7367   7.7367   8.7387   8.7388   9.7319   9.7319
     9.8382   9.8382  10.6810  10.6810  10.7530  10.7530  10.8105  10.8105
    11.2653  11.2653  11.3537  11.3537  11.4967  11.4967  11.7162  11.7163
    11.7750  11.7750  11.9164  11.9164  11.9775  11.9775  12.0033  12.0033
    12.0674  12.0674  12.1214  12.1214  12.1962  12.1962  12.2606  12.2607
    12.2978  12.2979  12.3312  12.3312  12.4324  12.4325  12.5605  12.5605
    12.6751  12.6752  12.7545  12.7545  12.8367  12.8367  12.9387  12.9387
    13.0920  13.0920  13.3215  13.3215  13.3598  13.3599  13.5078  13.5078
    13.5280  13.5280  13.6295  13.6295  13.7250  13.7250  13.7644  13.7644
    13.8188  13.8188  13.8929  13.8929  13.9500  13.9500  14.0326  14.0326
    14.1112  14.1112  14.2739  14.2739  14.4987  14.4987  14.5637  14.5638
    14.6815  14.6815  14.7360  14.7360  14.7685  14.7685  14.8791  14.8791
    14.9002  14.9002  14.9378  14.9378  14.9543  14.9544  15.0346  15.0347
    15.1518  15.1518  15.2848  15.2848  15.3132  15.3133  15.5759  15.5759
    15.6169  15.6169  15.7310  15.7310  15.8839  15.8839  16.0322  16.0322
    16.0961  16.0961  16.1896  16.1896  16.2589  16.2589  16.3405  16.3405
    16.4504  16.4504  16.7429  16.7429  17.2132  17.2132  17.5682  17.5682
    17.8269  17.8269  19.1535  19.1535  20.3572  20.3572  20.7719  20.7719
    20.9035  20.9035  21.1649  21.1649  21.3868  21.3868  21.9113  21.9114
    22.1081  22.1082  23.1154  23.1154  23.5218  23.5218  24.1138  24.1138
    24.1517  24.1517  24.4249  24.4249  25.1383  25.1384  25.3404  25.3424
    25.4605

          k = 0.1250-0.2946 0.0000 ( 17801 PWs)   bands (ev):

     0.9183   0.9216   1.2134   1.2483   1.7040   1.7726   2.1860   2.2217
     3.0704   3.1935   3.4755   3.5659   4.5740   5.0873   5.0938   5.3160
     6.5887   7.0067   7.4778   7.9292   8.6828   8.9935   9.4064   9.4877
    10.0721  10.2107  10.4623  10.5646  10.6120  10.8574  10.9149  10.9781
    11.1429  11.2289  11.3590  11.3675  11.4534  11.5090  11.6725  11.6770
    11.7146  11.8223  11.8314  11.8865  11.8885  11.9204  11.9614  12.0431
    12.0591  12.0774  12.1029  12.1230  12.1588  12.2045  12.2605  12.2869
    12.2984  12.3307  12.3557  12.4080  12.4182  12.4917  12.5091  12.5786
    12.5991  12.6560  12.7129  12.7626  12.8379  12.9145  12.9196  13.0669
    13.1012  13.1311  13.1542  13.3123  13.3519  13.4083  13.4422  13.4888
    13.5048  13.5786  13.6173  13.6327  13.6675  13.7007  13.7633  13.8011
    13.8289  13.8720  13.8981  13.9419  13.9918  14.0108  14.0635  14.1220
    14.2045  14.2803  14.3159  14.3527  14.4130  14.4819  14.5498  14.5773
    14.6094  14.6440  14.6662  14.7590  14.7737  14.8020  14.8301  14.8717
    14.9188  14.9680  14.9993  15.0009  15.0316  15.0847  15.1246  15.1318
    15.1669  15.1913  15.2439  15.2777  15.4032  15.4323  15.4861  15.5797
    15.6191  15.6622  15.7062  15.8085  15.8115  15.9155  15.9314  16.0595
    16.0655  16.1317  16.1758  16.1769  16.2453  16.2457  16.3259  16.3446
    16.4082  16.5811  16.7531  16.7612  17.1422  17.2848  17.3786  17.7153
    17.7686  17.9066  18.8516  19.0808  19.9676  20.3984  20.5544  20.6467
    21.0194  21.1349  21.1945  21.2598  21.4312  21.5921  21.7576  22.0128
    22.0313  22.1789  22.4794  22.9173  23.8510  23.8744  23.9289  24.0588
    24.1394  24.1695  24.2685  24.4693  24.7913  24.9379  25.0400  25.1415
    25.6102

          k = 0.1250-0.2357 0.0000 ( 17785 PWs)   bands (ev):

     0.9071   0.9116   1.1361   1.1684   1.7610   1.8583   2.1869   2.2630
     3.0092   3.2519   3.3859   3.5741   4.3151   5.0999   5.1597   5.6648
     6.3817   6.9812   7.4137   7.9190   8.8900   9.1169   9.1823   9.3739
    10.2195  10.3370  10.4000  10.5107  10.5780  10.7932  10.9764  11.0984
    11.1186  11.2119  11.3171  11.3185  11.3826  11.4653  11.6061  11.6120
    11.6509  11.6955  11.7248  11.7544  11.7596  11.8365  11.8984  11.9467
    12.0092  12.0698  12.0946  12.1214  12.1469  12.1695  12.2414  12.2899
    12.3173  12.3545  12.3862  12.4120  12.4543  12.5495  12.5792  12.5870
    12.6304  12.6646  12.7743  12.7836  12.8682  12.9439  12.9734  13.0513
    13.0687  13.1345  13.2848  13.2874  13.3480  13.3607  13.4231  13.4931
    13.5398  13.5714  13.5772  13.6302  13.6606  13.7289  13.7838  13.8006
    13.8850  13.9097  13.9625  13.9748  14.1054  14.1143  14.1596  14.1822
    14.1971  14.2894  14.4266  14.4613  14.4638  14.5435  14.5698  14.6209
    14.6347  14.7006  14.7411  14.7800  14.7897  14.8017  14.8562  14.8756
    14.9650  15.0267  15.0340  15.0836  15.1286  15.1365  15.1999  15.2996
    15.3295  15.3440  15.3643  15.4476  15.4708  15.5414  15.5838  15.6053
    15.6725  15.7052  15.7385  15.8005  15.8035  15.8722  15.9487  15.9613
    16.0278  16.1374  16.1454  16.1707  16.2336  16.2616  16.3000  16.3305
    16.4759  16.7298  16.7877  16.8176  17.0710  17.2135  17.3648  17.6056
    17.7464  18.0330  18.4942  18.6655  20.0026  20.1364  20.2381  20.3221
    20.6695  21.0254  21.0861  21.5163  21.5261  21.5768  21.7017  21.9364
    22.0948  22.1803  22.4789  22.8343  23.5651  23.6961  23.8929  23.9543
    24.1072  24.1509  24.2645  24.4810  24.5251  25.0045  25.0871  25.1822
    25.7519

          k = 0.1250-0.1768 0.0000 ( 17796 PWs)   bands (ev):

     0.8949   0.8970   1.0583   1.0684   1.8393   1.9427   2.1902   2.3158
     2.9505   3.2738   3.3073   3.5637   4.1313   5.1183   5.2461   5.9367
     6.2143   6.8459   7.4961   7.8201   8.8686   8.9214   9.2342   9.8458
    10.0035  10.1316  10.4467  10.6257  10.6595  10.8775  10.9557  11.0673
    11.1611  11.2499  11.2771  11.3289  11.3400  11.3784  11.4884  11.5249
    11.5646  11.5872  11.6247  11.6577  11.6614  11.7248  11.8334  11.8527
    11.8692  11.9721  11.9930  12.0435  12.0468  12.1086  12.1653  12.2355
    12.3833  12.3962  12.4098  12.5258  12.5475  12.5738  12.6409  12.6995
    12.7190  12.7528  12.7935  12.9166  12.9525  12.9784  13.0408  13.0555
    13.0841  13.1665  13.3016  13.3024  13.3252  13.3592  13.4566  13.5023
    13.5470  13.5818  13.6398  13.6439  13.6890  13.7267  13.7788  13.7876
    13.8757  13.9484  13.9766  14.0229  14.1333  14.1807  14.1830  14.2458
    14.2884  14.2967  14.3454  14.4506  14.5589  14.5693  14.6434  14.6770
    14.7022  14.7718  14.7795  14.8063  14.8792  14.8996  14.9296  14.9696
    15.0096  15.0978  15.1508  15.1789  15.2280  15.2419  15.2561  15.3080
    15.3496  15.4339  15.5211  15.5420  15.5627  15.5693  15.6539  15.6912
    15.7155  15.7965  15.8594  15.8724  15.9096  15.9377  15.9998  16.0194
    16.1032  16.1539  16.1562  16.1853  16.2741  16.2817  16.3074  16.4392
    16.5486  16.8386  16.8859  16.9366  17.0082  17.0860  17.3408  17.5047
    17.5180  18.1421  18.2755  18.6021  19.5846  19.9446  20.0558  20.1458
    20.2732  20.3679  20.6945  21.1846  21.2555  21.3934  21.6581  21.8991
    22.2232  22.4195  22.9403  23.2200  23.4678  23.6124  23.7060  23.7238
    23.8860  24.0747  24.1638  24.2727  24.7354  24.8267  25.3213  25.4281
    25.7459

          k = 0.1250-0.1179 0.0000 ( 17815 PWs)   bands (ev):

     0.8815   0.8873   0.9805   0.9913   1.9110   2.0186   2.1864   2.3729
     2.8956   3.1638   3.3601   3.5385   4.0163   5.1399   5.3590   5.9795
     6.0930   6.9049   7.5265   7.7245   8.6883   8.7387   9.5493   9.8379
     9.9707  10.2536  10.4437  10.4776  10.8036  10.9475  11.0290  11.1113
    11.1627  11.2290  11.2490  11.3003  11.3259  11.3734  11.3971  11.4619
    11.4813  11.5266  11.5555  11.5997  11.6055  11.6698  11.7441  11.7628
    11.8403  11.8423  11.9038  11.9076  11.9386  12.0072  12.0747  12.1927
    12.3698  12.4082  12.5201  12.5643  12.6210  12.6732  12.7223  12.7727
    12.8145  12.8223  12.8736  13.0171  13.0189  13.0609  13.0881  13.1334
    13.1856  13.2277  13.2348  13.2799  13.3304  13.3836  13.4279  13.5003
    13.5254  13.6093  13.6398  13.6398  13.7065  13.7765  13.7970  13.8336
    13.8665  13.9128  13.9451  14.0399  14.0894  14.1794  14.1818  14.3015
    14.3224  14.3527  14.3928  14.4685  14.5608  14.6482  14.6513  14.6802
    14.7255  14.7786  14.8203  14.8532  14.9013  14.9257  14.9308  14.9616
    15.0966  15.1584  15.2067  15.2518  15.2575  15.3227  15.3548  15.3653
    15.3957  15.4613  15.4631  15.5594  15.5819  15.6444  15.7274  15.7331
    15.8008  15.8245  15.8721  15.9061  15.9234  15.9987  16.0739  16.1316
    16.1638  16.2081  16.2189  16.2828  16.3916  16.5871  16.6319  16.6894
    16.8461  16.8890  16.9564  17.0169  17.0289  17.0940  17.2843  17.4042
    17.6384  17.8174  18.5263  18.7259  19.2208  19.4121  19.6016  19.6961
    19.8573  20.1458  20.3793  20.4421  20.9472  21.2694  21.5867  21.8968
    22.3915  22.4140  23.3364  23.4315  23.4951  23.5833  23.6461  23.8133
    23.9947  24.0516  24.1384  24.1843  24.5450  24.9695  25.4455  25.8373
    25.8924

          k = 0.1250-0.0589 0.0000 ( 17791 PWs)   bands (ev):

     0.8689   0.8898   0.9228   0.9402   1.9603   2.0833   2.1686   2.4223
     2.8487   3.0862   3.4107   3.5024   3.9545   5.1568   5.4996   5.8415
     6.0198   7.1174   7.4698   7.6603   8.5762   8.6260   9.7146   9.8079
     9.8693  10.3487  10.3772  10.4405  10.8512  11.0792  11.0997  11.1531
    11.1751  11.2409  11.2552  11.2785  11.3144  11.3559  11.4093  11.4308
    11.4536  11.4994  11.5132  11.5390  11.6152  11.6650  11.6994  11.7243
    11.7749  11.7969  11.8157  11.8595  11.8914  11.9431  12.0252  12.1547
    12.3088  12.4064  12.5733  12.6006  12.6822  12.7233  12.7831  12.8245
    12.8738  12.8835  12.9845  13.0169  13.0595  13.1036  13.1172  13.1558
    13.2245  13.2671  13.2774  13.2953  13.3192  13.3681  13.4297  13.4690
    13.5041  13.5115  13.6085  13.6258  13.7016  13.8205  13.8261  13.8601
    13.8884  13.9218  13.9529  13.9773  14.0513  14.1076  14.2578  14.3141
    14.3651  14.3779  14.4141  14.4805  14.5474  14.5652  14.6612  14.6863
    14.7680  14.8001  14.8345  14.8551  14.8641  14.9458  15.0069  15.0435
    15.0471  15.1196  15.2195  15.2239  15.2869  15.2984  15.3549  15.3975
    15.4419  15.4942  15.5468  15.5718  15.6301  15.6907  15.7033  15.7674
    15.8076  15.8753  15.8895  15.9311  16.0051  16.0940  16.1239  16.1444
    16.1952  16.2591  16.2960  16.3713  16.5583  16.5737  16.8340  16.9056
    16.9333  17.0535  17.1656  17.1863  17.2734  17.2775  17.5205  17.5727
    17.6630  17.8943  18.5597  18.5916  18.9720  18.9751  19.0185  19.5230
    19.6310  19.7340  19.7372  20.0116  21.1192  21.1856  21.5098  21.5358
    22.3429  22.3431  23.1459  23.3698  23.6492  23.8272  23.9415  23.9535
    24.1237  24.2608  24.4919  24.7008  24.9236  25.0172  25.2962  25.4227
    25.4886

          k = 0.2500 0.0000 0.0000 ( 17793 PWs)   bands (ev):

     0.8770   0.8778   0.9169   1.2230   1.9731   1.9756   1.9860   2.5160
     2.7099   3.1138   3.5063   3.5090   4.1225   5.4149   5.4153   5.4165
     6.2027   7.5265   7.9396   7.9411   9.0186   9.1062   9.4085   9.8082
    10.1156  10.2213  10.5174  10.5189  10.6199  10.9386  11.0205  11.1203
    11.1233  11.2300  11.2879  11.3087  11.3630  11.3708  11.3765  11.4293
    11.4584  11.4809  11.5200  11.5682  11.5784  11.6304  11.6536  11.6572
    11.7342  11.8135  11.9098  11.9164  11.9516  12.1255  12.1320  12.3681
    12.6164  12.6355  12.7075  12.8301  12.8474  12.8537  12.9008  12.9602
    12.9705  13.0021  13.1356  13.1657  13.1777  13.1935  13.2237  13.2870
    13.3302  13.4192  13.4296  13.4660  13.4896  13.5455  13.5511  13.5566
    13.5828  13.6080  13.6144  13.6459  13.6735  13.6832  13.7403  13.7488
    13.8141  13.8728  13.9411  13.9914  14.0058  14.0270  14.0488  14.0580
    14.1403  14.1599  14.1704  14.2355  14.3498  14.4247  14.4741  14.4874
    14.5258  14.5960  14.6187  14.6298  14.7119  14.8172  14.8995  14.9219
    14.9421  14.9803  15.0289  15.0679  15.0972  15.1287  15.1360  15.2347
    15.3392  15.3826  15.4253  15.4736  15.5847  15.6355  15.6985  15.7132
    15.9057  15.9387  15.9554  15.9743  15.9986  16.0384  16.0839  16.0941
    16.2062  16.2224  16.2716  16.2879  16.3572  16.4269  16.7618  16.8318
    16.8322  17.0191  17.0879  17.1534  17.3175  17.3186  17.5433  17.9208
    17.9251  18.2203  18.2930  18.2930  18.9689  18.9857  19.2284  19.3609
    19.3848  19.5999  19.7448  20.2026  20.4827  20.4954  20.7901  20.7963
    21.9480  21.9515  21.9965  22.2572  23.1404  23.1410  23.2390  23.2578
    23.2921  23.4936  23.5135  23.9094  23.9169  24.3114  24.5495  24.5571
    24.9357

          k = 0.2500 0.0589 0.0000 ( 17783 PWs)   bands (ev):

     0.8622   0.9117   0.9202   1.2340   1.9066   1.9673   2.0367   2.4749
     2.7560   3.1338   3.4769   3.5328   4.1472   5.3162   5.4019   5.5331
     6.2348   7.5556   7.6696   8.1395   9.0540   9.1407   9.2897   9.8618
    10.1534  10.2628  10.4459  10.5882  10.6602  10.9678  10.9986  11.0585
    11.0998  11.2237  11.2672  11.2957  11.3846  11.3921  11.4251  11.4586
    11.4662  11.4860  11.5380  11.5551  11.6153  11.6357  11.6491  11.6989
    11.7127  11.8267  11.8393  11.9723  11.9810  12.1230  12.1539  12.3370
    12.3892  12.7096  12.7171  12.7848  12.8294  12.9006  12.9062  12.9780
    12.9876  13.0288  13.0666  13.1820  13.1905  13.2101  13.2718  13.3152
    13.3377  13.3998  13.4188  13.4332  13.4479  13.5066  13.5098  13.5823
    13.5947  13.6140  13.6430  13.6500  13.6808  13.7174  13.7192  13.7744
    13.8232  13.8862  13.8886  13.9612  13.9681  14.0271  14.0348  14.0833
    14.0845  14.1023  14.2105  14.2450  14.3216  14.3996  14.4187  14.4870
    14.5465  14.5577  14.5930  14.6009  14.6628  14.7968  14.8802  14.8900
    14.9825  14.9871  15.0368  15.0583  15.0779  15.1543  15.1937  15.2825
    15.3358  15.4103  15.4412  15.4873  15.5977  15.6353  15.6452  15.7449
    15.8404  15.8957  15.9108  15.9530  15.9982  16.0349  16.0547  16.1480
    16.1514  16.2077  16.2372  16.2592  16.3932  16.4610  16.5874  16.8019
    16.9964  17.0738  17.0755  17.1695  17.1945  17.2346  17.2796  17.6046
    17.7733  18.2727  18.3527  18.5036  18.7619  18.9757  19.2723  19.6297
    19.7541  19.8080  19.9305  20.0087  20.2493  20.4763  20.7201  21.2804
    22.0065  22.0979  22.1815  22.2606  22.3671  22.5769  22.7875  23.2695
    23.3365  23.8394  24.0778  24.1604  24.2710  24.3531  24.4561  24.7439
    25.3002

          k = 0.2500 0.1179 0.0000 ( 17763 PWs)   bands (ev):

     0.8637   0.9289   0.9655   1.2639   1.8382   1.9142   2.0895   2.4018
     2.8430   3.1909   3.4402   3.5511   4.2235   5.2397   5.3631   5.6568
     6.3293   7.3563   7.6390   8.2563   9.0071   9.1598   9.2497   9.9889
    10.2613  10.2706  10.3737  10.6106  10.6884  10.7656  10.9594  11.0477
    11.1515  11.1614  11.2829  11.3720  11.4038  11.4557  11.4773  11.5148
    11.5365  11.5626  11.5684  11.6150  11.6369  11.6563  11.7105  11.7431
    11.7940  11.8373  11.8995  12.0093  12.0291  12.1718  12.1893  12.2575
    12.4382  12.6295  12.6985  12.7476  12.8172  12.8732  12.9162  12.9221
    12.9296  12.9754  13.0576  13.1106  13.1623  13.1778  13.2121  13.2621
    13.2756  13.3101  13.4107  13.4179  13.4308  13.4912  13.5328  13.5679
    13.6019  13.6068  13.6449  13.6682  13.7000  13.7171  13.7481  13.7484
    13.8057  13.8170  13.8677  13.9277  13.9335  13.9924  14.0036  14.0391
    14.0563  14.0637  14.0877  14.2707  14.3467  14.3796  14.4070  14.4230
    14.4958  14.5201  14.5386  14.5526  14.5952  14.8037  14.8174  14.8516
    14.9686  14.9807  15.0384  15.0401  15.1356  15.1991  15.2203  15.3253
    15.3715  15.3983  15.4839  15.5774  15.5891  15.6385  15.7117  15.7240
    15.7924  15.8335  15.8628  15.8779  15.9202  15.9537  15.9733  16.0415
    16.0826  16.1472  16.1712  16.1834  16.3313  16.4455  16.5973  16.6245
    16.8777  16.9137  16.9423  16.9795  17.1075  17.3968  17.4500  17.4648
    17.7749  17.8098  18.1283  18.4207  19.0379  19.3933  19.5043  19.7092
    19.7518  19.9751  19.9894  20.1796  20.3947  20.7061  21.1271  21.6040
    21.6815  22.0379  22.0380  22.1564  22.2710  22.4497  22.8602  23.2202
    23.4011  23.4600  23.9145  24.4756  25.0493  25.0839  25.3832  25.4500
    25.4668

          k = 0.2500 0.1768 0.0000 ( 17751 PWs)   bands (ev):

     0.8778   0.9395   1.0375   1.3035   1.7737   1.8363   2.1308   2.3324
     2.9353   3.2745   3.3958   3.5607   4.3574   5.1856   5.3113   5.7441
     6.4823   7.0640   7.7666   8.2876   8.6672   9.3252   9.4173   9.7217
    10.1736  10.4291  10.5112  10.5351  10.6627  10.8254  10.8968  11.1064
    11.1558  11.2946  11.3338  11.4089  11.4547  11.5023  11.5248  11.5657
    11.5798  11.6264  11.6532  11.7221  11.7349  11.8039  11.8158  11.8774
    11.8940  11.9209  11.9907  12.0434  12.1152  12.2118  12.2566  12.2879
    12.4908  12.5287  12.6394  12.7040  12.7636  12.7964  12.8089  12.8504
    12.8993  12.9236  12.9602  13.0462  13.0684  13.1300  13.1450  13.1605
    13.2137  13.3143  13.3432  13.3626  13.4138  13.4293  13.4730  13.4848
    13.5322  13.5333  13.5952  13.6054  13.6639  13.6751  13.6982  13.7611
    13.7733  13.8032  13.8613  13.8847  13.9043  13.9276  13.9636  13.9665
    14.0482  14.0679  14.1224  14.1650  14.2080  14.2521  14.3782  14.3903
    14.4708  14.4778  14.5220  14.5639  14.6361  14.6800  14.7482  14.8218
    14.9479  14.9850  15.0347  15.0487  15.1671  15.2594  15.2598  15.3185
    15.3443  15.4108  15.4753  15.4962  15.5933  15.6255  15.6463  15.7225
    15.7388  15.7588  15.7868  15.8283  15.8829  15.8901  15.9251  15.9384
    15.9771  15.9822  16.0723  16.1120  16.1315  16.2470  16.5318  16.5755
    16.6649  16.7108  17.0325  17.1122  17.1561  17.2164  17.4550  17.6102
    17.7334  18.0427  18.1156  18.6422  18.8188  19.3072  19.3932  19.5689
    19.8199  20.2659  20.4718  20.5901  20.6455  20.9755  21.2013  21.3642
    21.4501  22.0150  22.0963  22.2887  22.3552  22.8498  23.0585  23.3233
    23.4602  23.5999  24.0312  24.6515  25.0342  25.4330  25.5697  25.8163
    25.9415

          k = 0.2500 0.2357 0.0000 ( 17768 PWs)   bands (ev):

     0.8993   0.9473   1.1237   1.3374   1.7178   1.7499   2.1612   2.2760
     3.0263   3.3415   3.3655   3.5584   4.5552   5.1523   5.2595   5.7020
     6.6834   6.9062   7.9228   8.2312   8.3271   9.1242   9.5399   9.6385
    10.4085  10.4384  10.6122  10.6399  10.6811  10.7308  10.9654  11.1332
    11.2652  11.3467  11.3886  11.4075  11.4476  11.5315  11.5762  11.6536
    11.6595  11.7051  11.7943  11.8131  11.9021  11.9376  11.9749  12.0006
    12.0362  12.0388  12.1296  12.1313  12.2113  12.2431  12.3154  12.3785
    12.4949  12.5243  12.5506  12.6103  12.6538  12.6947  12.7242  12.7735
    12.8008  12.8767  12.8942  12.9426  12.9564  13.0441  13.0460  13.1427
    13.1451  13.2190  13.2739  13.2798  13.3515  13.3522  13.4173  13.4297
    13.4419  13.4583  13.5049  13.5464  13.5512  13.5968  13.6681  13.6744
    13.7006  13.7056  13.8047  13.8705  13.8760  13.9262  13.9582  13.9955
    14.0130  14.0474  14.1007  14.1508  14.1916  14.2235  14.2424  14.3346
    14.3792  14.4564  14.5346  14.5717  14.6431  14.7174  14.7800  14.8258
    14.9010  14.9743  14.9860  15.0513  15.0525  15.1708  15.1848  15.2229
    15.2303  15.3208  15.3296  15.3969  15.4691  15.5101  15.5440  15.6083
    15.6350  15.6795  15.7379  15.7773  15.8291  15.8639  15.9309  15.9461
    15.9980  16.0207  16.0523  16.0874  16.1414  16.1543  16.3075  16.5580
    16.5944  16.7276  16.8739  17.1485  17.2526  17.3079  17.4601  17.5657
    17.8483  18.3965  18.5351  18.6258  18.9146  18.9586  19.2367  19.7768
    19.9557  20.2672  20.3148  20.6067  20.8098  20.9915  21.0699  21.7625
    21.9030  22.1914  22.2640  22.3111  22.5040  22.8659  23.0758  23.3599
    23.7799  24.0481  24.5065  24.6927  24.9818  25.6804  25.8089  25.8801
    26.0409

          k = 0.2500 0.2946 0.0000 ( 17790 PWs)   bands (ev):

     0.9218   0.9481   1.2161   1.3425   1.6756   1.6812   2.1842   2.2348
     3.1152   3.2759   3.4451   3.5407   4.8128   5.1341   5.2212   5.4853
     6.8930   6.9342   8.0014   8.0873   8.1576   8.6548   9.7854   9.8959
    10.2686  10.4200  10.6744  10.6986  10.8463  10.9217  10.9505  11.1279
    11.2615  11.2828  11.3767  11.4395  11.4769  11.5763  11.6588  11.7232
    11.7623  11.7629  11.8860  11.9061  12.0117  12.0373  12.0813  12.0979
    12.1683  12.1701  12.2265  12.2764  12.3262  12.3565  12.3918  12.4580
    12.4638  12.4939  12.5358  12.5375  12.5887  12.6485  12.6502  12.6775
    12.7304  12.8175  12.8303  12.8596  12.8652  12.9213  12.9533  13.0508
    13.0914  13.1417  13.1506  13.2274  13.2441  13.3174  13.3277  13.3779
    13.4024  13.4151  13.4456  13.4953  13.4992  13.5449  13.5819  13.5842
    13.6080  13.6598  13.7219  13.7742  13.7975  13.8891  13.8955  13.9468
    13.9661  14.0170  14.1424  14.1819  14.2137  14.2822  14.3695  14.3849
    14.4369  14.5389  14.5691  14.5981  14.6818  14.7347  14.7596  14.8148
    14.8267  14.8693  14.8956  14.9130  14.9536  14.9878  14.9940  15.1045
    15.1208  15.1638  15.2323  15.2409  15.3203  15.3696  15.3961  15.5184
    15.6660  15.7449  15.7544  15.8084  15.8284  15.9202  15.9449  15.9787
    15.9973  16.0576  16.0684  16.1257  16.1688  16.1857  16.2073  16.4697
    16.5310  16.6427  16.8594  17.1091  17.2449  17.4250  17.5568  17.7972
    18.0883  18.2266  18.5045  18.5772  18.8062  19.2229  19.6133  19.9213
    19.9894  20.1379  20.1472  20.6011  20.7091  20.9801  21.4023  21.6934
    22.1983  22.1988  22.3426  22.5977  22.6762  22.8056  22.8657  23.2201
    24.6800  24.7179  24.9352  24.9395  25.0880  25.5170  25.5849  25.7628
    25.8624

          k = 0.2500-0.3536 0.0000 ( 17788 PWs)   bands (ev):

     0.9394   0.9394   1.2981   1.2981   1.6574   1.6574   2.2062   2.2062
     3.1995   3.1996   3.5039   3.5040   5.0702   5.0703   5.2457   5.2457
     6.9944   6.9944   7.9460   7.9460   8.3505   8.3506  10.0379  10.0379
    10.1659  10.1659  10.7803  10.7803  10.9568  10.9568  11.0990  11.0991
    11.1240  11.1241  11.4371  11.4371  11.5465  11.5466  11.7328  11.7328
    11.7999  11.7999  11.9313  11.9313  12.0525  12.0525  12.1078  12.1078
    12.2315  12.2315  12.3248  12.3248  12.4118  12.4118  12.4590  12.4590
    12.4691  12.4691  12.5260  12.5260  12.5801  12.5801  12.6528  12.6528
    12.7535  12.7535  12.8150  12.8150  12.8547  12.8547  12.9586  12.9586
    13.0153  13.0153  13.1696  13.1696  13.2716  13.2716  13.3115  13.3115
    13.3692  13.3693  13.4455  13.4455  13.5291  13.5291  13.5567  13.5567
    13.6473  13.6473  13.6919  13.6919  13.7423  13.7423  13.8926  13.8926
    13.9825  13.9825  14.1733  14.1733  14.3752  14.3752  14.4998  14.4998
    14.5427  14.5428  14.5742  14.5742  14.6689  14.6689  14.7275  14.7275
    14.7692  14.7692  14.8368  14.8368  14.8912  14.8913  15.0095  15.0095
    15.0578  15.0578  15.2331  15.2331  15.2846  15.2846  15.4410  15.4410
    15.7016  15.7016  15.8007  15.8007  15.8918  15.8918  15.9840  15.9841
    16.0257  16.0257  16.0845  16.0845  16.1832  16.1833  16.3665  16.3666
    16.5138  16.5139  16.9843  16.9843  17.3254  17.3254  17.8801  17.8801
    18.1607  18.1607  18.3223  18.3223  19.2405  19.2405  19.5601  19.5602
    20.1806  20.1807  20.3925  20.3925  21.2839  21.2839  21.3547  21.3548
    21.8353  21.8353  22.5269  22.5269  22.5728  22.5728  23.8822  23.8823
    24.2021  24.2021  25.1290  25.1290  25.6280  25.6280  25.8730  25.8732
    26.0024

          k = 0.2500-0.2946 0.0000 ( 17790 PWs)   bands (ev):

     0.9218   0.9481   1.2161   1.3425   1.6756   1.6812   2.1842   2.2348
     3.1152   3.2759   3.4451   3.5407   4.8128   5.1341   5.2212   5.4853
     6.8930   6.9342   8.0014   8.0873   8.1576   8.6548   9.7854   9.8959
    10.2686  10.4200  10.6744  10.6986  10.8463  10.9217  10.9505  11.1279
    11.2615  11.2828  11.3767  11.4395  11.4769  11.5763  11.6588  11.7232
    11.7623  11.7629  11.8860  11.9061  12.0117  12.0373  12.0813  12.0979
    12.1683  12.1701  12.2265  12.2764  12.3262  12.3565  12.3918  12.4580
    12.4638  12.4939  12.5358  12.5375  12.5887  12.6485  12.6502  12.6775
[...]
    13.0436  13.0451  13.1598  13.1598  13.1775  13.1777  13.4375  13.4386
    13.4658  13.4678  13.5157  13.5166  13.6470  13.6471  13.7646  13.7647
    13.8605  13.8618  13.9349  13.9352  14.0116  14.0119  14.2245  14.2257
    14.2533  14.2546  14.2862  14.2867  14.9068  14.9074  14.9647  14.9651
    15.0443  15.0447  15.1857  15.1871  15.2442  15.2446  15.3058  15.3068
    15.3382  15.3387  15.3751  15.3768  15.3847  15.3857  15.4048  15.4059
    15.4316  15.4335  15.4541  15.4545  15.4807  15.4807  15.4998  15.5002
    15.5529  15.5555  15.7733  15.7735  15.7987  15.7994  15.8097  15.8111
    15.9189  15.9194  15.9333  15.9336  16.0538  16.0549  16.2521  16.2524
    16.5779  16.5793  16.7125  16.7145  18.3096  18.3100  18.4647  18.4650
    20.4153  20.4158  20.6915  20.6915  20.7220  20.7221  20.8068  20.8071
    20.8356  20.8363  21.2793  21.2798  21.3222  21.3222  22.1758  22.1861
    22.2795  22.2818  22.3584  22.3605  22.9497  22.9558  23.8925  23.8949
    23.9529

          k =-0.5000 0.0589 0.0000 ( 17814 PWs)   bands (ev):

     9.3351   9.3410   9.5358   9.5362   9.6828   9.6839   9.8330   9.8347
     9.8842   9.8854   9.9515   9.9519   9.9931   9.9942  10.0575  10.0586
    10.0678  10.0685  10.2444  10.2501  10.9440  10.9457  11.0388  11.0393
    11.0933  11.0989  11.1138  11.1162  11.2087  11.2096  11.3700  11.3705
    11.5806  11.5846  11.6475  11.6477  11.7465  11.7470  11.8258  11.8287
    11.9131  11.9158  12.0469  12.0478  12.0959  12.0960  12.1483  12.1563
    12.1613  12.1614  12.2371  12.2429  12.3793  12.3832  12.3899  12.3909
    12.4470  12.4481  12.5479  12.5483  12.6215  12.6220  12.6307  12.6316
    12.6815  12.6824  12.6932  12.6940  12.7193  12.7195  12.7590  12.7593
    12.7832  12.7837  12.8389  12.8395  12.8717  12.8723  12.9393  12.9399
    13.0272  13.0282  13.1641  13.1644  13.1761  13.1763  13.3745  13.3764
    13.5063  13.5077  13.5943  13.5951  13.6498  13.6501  13.7595  13.7600
    13.9084  13.9089  13.9625  13.9630  13.9711  13.9715  14.2159  14.2176
    14.2681  14.2698  14.2750  14.2757  14.7208  14.7212  14.8434  14.8438
    14.9717  14.9737  15.0726  15.0732  15.1651  15.1653  15.1820  15.1846
    15.2157  15.2161  15.2983  15.2984  15.3370  15.3374  15.3693  15.3714
    15.3918  15.3923  15.3969  15.3974  15.4438  15.4443  15.4950  15.4962
    15.6432  15.6451  15.7593  15.7596  15.7603  15.7612  15.9311  15.9315
    15.9994  15.9999  16.0128  16.0137  16.0615  16.0618  16.2248  16.2250
    16.7640  16.7659  16.9476  16.9494  18.1262  18.1266  18.2621  18.2625
    20.0346  20.0350  20.2188  20.2192  20.8892  20.8900  21.0294  21.0306
    21.0653  21.0657  21.7350  21.7365  21.8827  21.8847  22.1012  22.1021
    22.1945  22.2047  22.2915  22.2932  22.9578  22.9639  24.1873  24.1905
    24.3880

          k =-0.5000 0.1179 0.0000 ( 17794 PWs)   bands (ev):

     9.4093   9.4148   9.5647   9.5652   9.7671   9.7680   9.9243   9.9258
     9.9791   9.9804  10.0277  10.0288  10.0446  10.0449  10.1061  10.1068
    10.1620  10.1631  10.3601  10.3657  10.9809  10.9825  11.0743  11.0745
    11.1518  11.1575  11.1645  11.1670  11.2497  11.2509  11.3997  11.4003
    11.6041  11.6082  11.6635  11.6638  11.7071  11.7074  11.8124  11.8146
    11.8848  11.8865  12.0430  12.0442  12.0581  12.0666  12.1069  12.1073
    12.1778  12.1783  12.2275  12.2325  12.2968  12.3007  12.3467  12.3470
    12.4125  12.4136  12.4639  12.4642  12.5693  12.5696  12.5706  12.5719
    12.6180  12.6183  12.6298  12.6315  12.7197  12.7206  12.7476  12.7480
    12.8367  12.8371  12.8484  12.8489  12.9158  12.9165  12.9211  12.9214
    13.0260  13.0264  13.1427  13.1438  13.2211  13.2217  13.3173  13.3190
    13.6087  13.6092  13.6359  13.6367  13.6883  13.6887  13.7399  13.7404
    13.8339  13.8347  13.8851  13.8855  14.0951  14.0958  14.1923  14.1943
    14.2893  14.2911  14.3214  14.3225  14.4751  14.4757  14.5554  14.5559
    14.6067  14.6077  14.7325  14.7332  14.8173  14.8180  14.9297  14.9302
    15.0299  15.0310  15.1298  15.1313  15.2064  15.2084  15.2362  15.2363
    15.2664  15.2669  15.3226  15.3234  15.5804  15.5805  15.6524  15.6528
    15.7156  15.7158  15.7420  15.7436  15.7869  15.7878  15.8564  15.8570
    15.9033  15.9042  16.1569  16.1569  16.2929  16.2930  16.3651  16.3655
    17.1983  17.2003  17.4323  17.4337  17.7638  17.7641  17.8743  17.8748
    19.4023  19.4027  19.5590  19.5594  21.2967  21.2995  21.4530  21.4541
    21.6015  21.6028  21.8117  21.8123  21.8595  21.8600  22.2528  22.2627
    22.9305  22.9309  22.9843  22.9903  23.0675  23.0679  24.8258  24.8264
    24.8990

          k =-0.5000 0.1768 0.0000 ( 17756 PWs)   bands (ev):

     9.5124   9.5173   9.6075   9.6080   9.8925   9.8933  10.0658  10.0672
    10.0795  10.0806  10.1237  10.1254  10.1648  10.1655  10.1811  10.1813
    10.3269  10.3278  10.5405  10.5459  11.0229  11.0241  11.1180  11.1184
    11.2439  11.2465  11.2610  11.2667  11.3082  11.3098  11.4645  11.4652
    11.5611  11.5634  11.6185  11.6224  11.6581  11.6624  11.8099  11.8106
    11.9291  11.9303  11.9463  11.9551  12.0503  12.0518  12.1206  12.1212
    12.1643  12.1676  12.1746  12.1756  12.1993  12.2039  12.3120  12.3124
    12.3476  12.3481  12.4027  12.4033  12.4435  12.4438  12.4952  12.4955
    12.5088  12.5101  12.5998  12.6022  12.6841  12.6853  12.7190  12.7218
    12.8195  12.8219  12.9563  12.9569  12.9573  12.9582  13.0318  13.0326
    13.0657  13.0659  13.1408  13.1415  13.2705  13.2715  13.3834  13.3845
    13.4066  13.4066  13.4548  13.4554  13.7589  13.7595  13.7817  13.7824
    13.8949  13.8951  13.8962  13.8967  14.0523  14.0526  14.0719  14.0727
    14.1138  14.1151  14.1917  14.1923  14.2492  14.2500  14.2954  14.2969
    14.3415  14.3422  14.4006  14.4014  14.5921  14.5921  14.7442  14.7452
    14.8244  14.8249  14.9128  14.9146  14.9707  14.9728  15.0718  15.0727
    15.1442  15.1450  15.2948  15.2949  15.6432  15.6434  15.6806  15.6812
    15.7287  15.7306  15.7330  15.7340  15.7752  15.7765  15.8702  15.8705
    15.9439  15.9444  16.0490  16.0491  16.6312  16.6314  16.7068  16.7074
    17.4106  17.4109  17.5061  17.5066  17.7360  17.7379  17.9789  17.9802
    18.8613  18.8618  18.9934  18.9938  20.8374  20.8403  21.0425  21.0452
    22.3580  22.3674  22.3806  22.3813  22.7331  22.7335  22.8012  22.8018
    23.0359  23.0419  23.9372  23.9382  24.0875  24.0888  24.5983  24.6006
    24.6513

          k =-0.5000 0.2357 0.0000 ( 17778 PWs)   bands (ev):

     9.6146   9.6185   9.6552   9.6559  10.0333  10.0337  10.1380  10.1390
    10.2299  10.2314  10.2352  10.2359  10.2929  10.2959  10.3474  10.3476
    10.5371  10.5382  10.7634  10.7684  11.0247  11.0252  11.1276  11.1288
    11.2774  11.2785  11.3669  11.3709  11.4331  11.4384  11.4734  11.4777
    11.4876  11.4924  11.5878  11.5885  11.7719  11.7759  11.8392  11.8471
    11.8501  11.8528  11.9925  11.9933  12.0233  12.0274  12.0403  12.0418
    12.0924  12.0939  12.1212  12.1247  12.1357  12.1360  12.2229  12.2236
    12.2760  12.2764  12.3105  12.3108  12.3858  12.3864  12.4802  12.4827
    12.5255  12.5267  12.5759  12.5768  12.6061  12.6082  12.6796  12.6811
    12.8708  12.8722  12.9475  12.9503  13.0033  13.0040  13.0445  13.0450
    13.1146  13.1153  13.1998  13.2001  13.2047  13.2050  13.2606  13.2612
    13.4120  13.4127  13.5011  13.5017  13.5108  13.5116  13.6954  13.6974
    13.7649  13.7658  13.7800  13.7801  13.8961  13.8961  13.9276  13.9284
    13.9846  13.9852  14.0330  14.0344  14.0440  14.0446  14.1395  14.1407
    14.1959  14.1964  14.2116  14.2132  14.5800  14.5813  14.6866  14.6870
    14.7047  14.7061  14.7158  14.7178  14.8641  14.8648  14.8810  14.8811
    14.9447  14.9452  15.3575  15.3577  15.5446  15.5450  15.6325  15.6331
    15.6562  15.6570  15.6990  15.6999  15.7182  15.7201  15.8934  15.8937
    16.0972  16.0973  16.1827  16.1832  16.9824  16.9827  17.0514  17.0520
    17.1061  17.1064  17.1947  17.1953  18.3096  18.3114  18.4148  18.4153
    18.5190  18.5195  18.5288  18.5299  20.3993  20.4018  20.5279  20.5304
    22.5225  22.5311  23.1241  23.1299  23.3861  23.3868  23.7802  23.7804
    23.8615  23.8620  24.0168  24.0208  24.1437  24.1466  25.0852  25.0863
    25.2336

          k =-0.5000 0.2946 0.0000 ( 17762 PWs)   bands (ev):

     9.6854   9.6881   9.6949   9.6960  10.1476  10.1479  10.1860  10.1869
    10.3029  10.3037  10.3325  10.3335  10.4911  10.4942  10.5528  10.5533
    10.7699  10.7711  10.9193  10.9208  10.9982  10.9986  10.9996  11.0029
    11.1584  11.1604  11.3682  11.3727  11.4739  11.4791  11.5628  11.5678
    11.6468  11.6489  11.7056  11.7068  11.8291  11.8305  11.8657  11.8697
    11.8790  11.8814  11.9397  11.9433  11.9942  11.9965  12.0155  12.0156
    12.0398  12.0416  12.1149  12.1170  12.1239  12.1260  12.1941  12.1949
    12.2041  12.2044  12.2713  12.2719  12.3181  12.3189  12.4457  12.4469
    12.5085  12.5103  12.5156  12.5186  12.6084  12.6094  12.6514  12.6516
    12.7284  12.7292  12.7500  12.7521  12.8950  12.8957  12.9420  12.9430
    13.0513  13.0537  13.2526  13.2534  13.3476  13.3485  13.3666  13.3677
    13.3995  13.4000  13.4384  13.4388  13.5050  13.5064  13.5531  13.5534
    13.6314  13.6319  13.7073  13.7085  13.7191  13.7198  13.8232  13.8241
    13.8357  13.8362  13.8601  13.8610  13.9047  13.9054  14.0744  14.0760
    14.2137  14.2144  14.3049  14.3052  14.4818  14.4832  14.4964  14.4978
    14.5473  14.5484  14.6223  14.6233  14.6779  14.6781  14.7624  14.7635
    15.1590  15.1593  15.4140  15.4142  15.4778  15.4782  15.5901  15.5904
    15.6191  15.6200  15.6398  15.6403  15.6889  15.6907  15.7133  15.7135
    16.3391  16.3392  16.4269  16.4275  16.8370  16.8372  16.9235  16.9241
    17.3331  17.3333  17.3939  17.3946  18.0324  18.0329  18.1103  18.1109
    18.8880  18.8897  19.0537  19.0548  19.9675  19.9691  20.0116  20.0133
    22.7627  22.7702  23.2641  23.2696  23.5160  23.5211  23.7615  23.7657
    24.4927  24.4934  24.9168  24.9170  24.9915  24.9921  26.0931  26.0937
    26.2593

          k =-0.5000-0.3536 0.0000 ( 17712 PWs)   bands (ev):

     9.7102   9.7102   9.7120   9.7120  10.1980  10.1980  10.1987  10.1987
    10.3457  10.3457  10.3466  10.3466  10.7163  10.7163  10.7194  10.7194
    10.7793  10.7793  10.7799  10.7799  10.9909  10.9909  10.9925  10.9925
    11.2134  11.2134  11.2173  11.2173  11.5819  11.5819  11.5889  11.5889
    11.7040  11.7040  11.7087  11.7087  11.8667  11.8667  11.8698  11.8698
    11.9263  11.9263  11.9302  11.9302  12.0132  12.0132  12.0141  12.0141
    12.1038  12.1038  12.1041  12.1041  12.2121  12.2121  12.2135  12.2135
    12.2775  12.2775  12.2789  12.2789  12.3457  12.3457  12.3473  12.3473
    12.3957  12.3957  12.3967  12.3967  12.4797  12.4797  12.4814  12.4814
    12.6404  12.6404  12.6428  12.6428  12.9351  12.9351  12.9362  12.9362
    13.1826  13.1826  13.1836  13.1836  13.3247  13.3247  13.3274  13.3274
    13.4823  13.4823  13.4832  13.4832  13.5961  13.5961  13.5967  13.5967
    13.6365  13.6365  13.6375  13.6375  13.6752  13.6752  13.6762  13.6762
    13.7566  13.7566  13.7569  13.7569  13.9265  13.9265  13.9276  13.9276
    14.3212  14.3212  14.3224  14.3224  14.4496  14.4496  14.4502  14.4502
    14.5214  14.5214  14.5222  14.5222  14.6425  14.6425  14.6441  14.6441
    15.4090  15.4090  15.4093  15.4093  15.4689  15.4689  15.4693  15.4693
    15.5930  15.5930  15.5937  15.5937  15.6693  15.6693  15.6706  15.6707
    16.5849  16.5849  16.5850  16.5850  16.6720  16.6720  16.6726  16.6726
    17.6801  17.6801  17.6804  17.6804  17.7418  17.7418  17.7424  17.7424
    19.4519  19.4519  19.4536  19.4537  19.5394  19.5394  19.5406  19.5406
    23.0931  23.0931  23.0994  23.0994  23.4728  23.4728  23.4778  23.4778
    25.6566  25.6566  25.6572  25.6572  26.0706  26.0707  26.0716  26.0716
    26.1522

     the Fermi energy is    17.6676 ev

!    total energy              =  -21703.38291684 Ry

     total all-electron energy =  -1064671.073466 Ry
     estimated scf accuracy    <          5.3E-09 Ry
     smearing contrib. (-TS)   =      -0.00331630 Ry
     internal energy E=F+TS    =  -21703.37960054 Ry

     The total energy is F=E-TS. E is the sum of the following terms:
     one-electron contribution =     449.60731506 Ry
     hartree contribution      =     200.02476574 Ry
     xc contribution           =    -901.62251677 Ry
     ewald contribution        =   -2060.19640456 Ry
     one-center paw contrib.   =  -19391.19276000 Ry

     convergence has been achieved in  16 iterations

     Forces acting on atoms (cartesian axes, Ry/au):

     atom    1 type  1   force =     0.07035301   -0.00000041   -0.00012898
     atom    2 type  1   force =     0.07035323    0.00000034   -0.00012952
     atom    3 type  1   force =    -0.01296847    0.00000076   -0.00043315
     atom    4 type  1   force =    -0.01296856   -0.00000076   -0.00043269
     atom    5 type  1   force =     0.00006942   -0.00000023    0.00064646
     atom    6 type  1   force =     0.00006939    0.00000026    0.00064986
     atom    7 type  1   force =    -0.00039964    0.00000022   -0.00046674
     atom    8 type  1   force =    -0.00039965   -0.00000020   -0.00046537
     atom    9 type  1   force =    -0.00038709    0.00000005    0.00089419
     atom   10 type  1   force =    -0.00038708   -0.00000000    0.00089908
     atom   11 type  1   force =     0.00009241   -0.00000093    0.00017322
     atom   12 type  1   force =     0.00009245    0.00000090    0.00017456
     atom   13 type  1   force =    -0.01291907    0.00000027   -0.00000133
     atom   14 type  1   force =    -0.01291865   -0.00000024   -0.00000056
     atom   15 type  1   force =     0.06976225   -0.00000182    0.00096455
     atom   16 type  1   force =     0.06976226    0.00000180    0.00096451
     atom   17 type  1   force =    -0.06981932    0.00000049    0.00037642
     atom   18 type  1   force =    -0.06981730   -0.00000048    0.00037220
     atom   19 type  1   force =     0.01306202    0.00000003   -0.00018524
     atom   20 type  1   force =     0.01306183   -0.00000007   -0.00018700
     atom   21 type  1   force =     0.00021920   -0.00000001    0.00006214
     atom   22 type  1   force =     0.00021919    0.00000001    0.00005819
     atom   23 type  1   force =     0.00022280    0.00000072   -0.00075606
     atom   24 type  1   force =     0.00022282   -0.00000072   -0.00075735
     atom   25 type  1   force =     0.01320194   -0.00000024   -0.00045192
     atom   26 type  1   force =     0.01320229    0.00000025   -0.00045339
     atom   27 type  1   force =    -0.07049080    0.00000116   -0.00069313
     atom   28 type  1   force =    -0.07049088   -0.00000112   -0.00069296

     Total force =     0.002843     Total SCF correction =     0.000423
     SCF correction compared to forces is large: reduce conv_thr to get better values
     Energy error            =      1.7E-05 Ry
     Gradient error          =      9.6E-04 Ry/Bohr

     bfgs converged in  10 scf cycles and   9 bfgs steps
     (criteria: energy <  1.0E-04 Ry, force <  1.0E-03 Ry/Bohr)

     End of BFGS Geometry Optimization

     Final energy             =  -21703.3829168408 Ry

     File ./pwscf.bfgs deleted, as requested
Begin final coordinates

ATOMIC_POSITIONS (angstrom)
Au            2.0400000000        1.4424978336        0.7393117904    0   0   1
Au            2.0400000000        4.3274935009        0.7393094890    0   0   1
Au            0.0000000000        0.0000000000        1.9798948730    0   0   1
Au            0.0000000000        2.8849956672        1.9798918964    0   0   1
Au            2.0400000000        1.4424978336        3.3784400065    0   0   1
Au            2.0400000000        4.3274935009        3.3784283377    0   0   1
Au            0.0000000000        0.0000000000        4.6701053179    0   0   1
Au            0.0000000000        2.8849956672        4.6701000286    0   0   1
Au            2.0400000000        1.4424978336        6.0431404003    0   0   1
Au            2.0400000000        4.3274935009        6.0431258099    0   0   1
Au            0.0000000000        0.0000000000        7.3343195217    0   0   1
Au            0.0000000000        2.8849956672        7.3343150931    0   0   1
Au            2.0400000000        1.4424978336        8.7355208876    0   0   1
Au            2.0400000000        4.3274935009        8.7355169009    0   0   1
Au            0.0000000000        0.0000000000        9.9749759235    0   0   1
Au            0.0000000000        2.8849956672        9.9749752516    0   0   1
Au            2.4480000000        1.4424978336       11.4517383259    0   0   1
Au            2.4480000000        4.3274935009       11.4517500988    0   0   1
Au            0.4080000000        0.0000000000       12.6874229688    0   0   1
Au            0.4080000000        2.8849956672       12.6874278399    0   0   1
Au            2.4480000000        1.4424978336       14.0998962405    0   0   1
Au            2.4480000000        4.3274935009       14.0999109680    0   0   1
Au            0.4080000000        0.0000000000       15.3713704227    0   0   1
Au            0.4080000000        2.8849956672       15.3713746321    0   0   1
Au            2.4480000000        1.4424978336       16.7831500489    0   0   1
Au            2.4480000000        4.3274935009       16.7831586464    0   0   1
Au            0.4080000000        0.0000000000       18.0180165708    0   0   1
Au            0.4080000000        2.8849956672       18.0180174278    0   0   1
End final coordinates



     Writing all to output data dir ./pwscf.save/
 
     init_run     :     19.73s CPU     20.78s WALL (       1 calls)
     electrons    :  32687.64s CPU  33238.16s WALL (      14 calls)
     update_pot   :      6.39s CPU      6.58s WALL (      13 calls)
     forces       :    122.24s CPU    123.21s WALL (      14 calls)

     Called by init_run:
     wfcinit      :     19.05s CPU     19.41s WALL (       1 calls)
     potinit      :      0.40s CPU      0.61s WALL (       1 calls)
     hinit0       :      0.16s CPU      0.42s WALL (       1 calls)

     Called by electrons:
     c_bands      :  29377.25s CPU  29866.07s WALL (     652 calls)
     sum_band     :   3068.06s CPU   3101.39s WALL (     652 calls)
     v_of_rho     :     18.21s CPU     35.85s WALL (     664 calls)
     newd         :     43.67s CPU     51.58s WALL (     664 calls)
     PAW_pot      :    182.60s CPU    183.10s WALL (     677 calls)
     mix_rho      :      3.86s CPU      3.90s WALL (     652 calls)

     Called by c_bands:
     init_us_2    :    274.99s CPU    277.17s WALL (   66600 calls)
     init_us_2:cp :    274.55s CPU    277.00s WALL (   66600 calls)
     cegterg      :  27921.29s CPU  28396.38s WALL (   32707 calls)

     Called by *egterg:
     cdiaghg      :   2686.35s CPU   2754.80s WALL (  111521 calls)
     h_psi        :  13859.17s CPU  14066.20s WALL (  112428 calls)
     s_psi        :   2587.95s CPU   2600.01s WALL (  112428 calls)
     g_psi        :     48.32s CPU     48.81s WALL (   79671 calls)

     Called by h_psi:
     h_psi:calbec :   2748.46s CPU   2757.19s WALL (  112428 calls)
     vloc_psi     :   8306.63s CPU   8412.05s WALL (  112428 calls)
     add_vuspsi   :   2735.86s CPU   2762.19s WALL (  112428 calls)

     General routines
     calbec       :   3931.79s CPU   3943.82s WALL (  148478 calls)
     fft          :     16.68s CPU     38.15s WALL (    8773 calls)
     ffts         :      0.83s CPU      0.92s WALL (    1316 calls)
     fftw         :   9321.43s CPU   9421.68s WALL (35700692 calls)
     interpolate  :      1.82s CPU      2.76s WALL (     664 calls)
 
     Parallel routines
 
     PWSCF        :      9h 7m CPU      9h17m WALL

 
   This run was terminated on:  19:11:41   8Mar2024            

=------------------------------------------------------------------------------=
   JOB DONE.
=------------------------------------------------------------------------------=
