MPI startup(): Warning: I_MPI_PMI_LIBRARY will be ignored since the hydra process manager was found
MPI startup(): Warning: I_MPI_PMI_LIBRARY will be ignored since the hydra process manager was found
MPI startup(): Warning: I_MPI_PMI_LIBRARY will be ignored since the hydra process manager was found
MPI startup(): Warning: I_MPI_PMI_LIBRARY will be ignored since the hydra process manager was found
MPI startup(): Warning: I_MPI_PMI_LIBRARY will be ignored since the hydra process manager was found
MPI startup(): Warning: I_MPI_PMI_LIBRARY will be ignored since the hydra process manager was found
MPI startup(): Warning: I_MPI_PMI_LIBRARY will be ignored since the hydra process manager was found
MPI startup(): Warning: I_MPI_PMI_LIBRARY will be ignored since the hydra process manager was found
MPI startup(): Warning: I_MPI_PMI_LIBRARY will be ignored since the hydra process manager was found
MPI startup(): Warning: I_MPI_PMI_LIBRARY will be ignored since the hydra process manager was found

     Program PWSCF v.7.0 starts on  2Mar2024 at  8:55:47 

     This program is part of the open-source Quantum ESPRESSO suite
     for quantum simulation of materials; please cite
         "P. Giannozzi et al., J. Phys.:Condens. Matter 21 395502 (2009);
         "P. Giannozzi et al., J. Phys.:Condens. Matter 29 465901 (2017);
         "P. Giannozzi et al., J. Chem. Phys. 152 154105 (2020);
          URL http://www.quantum-espresso.org", 
     in publications or presentations arising from this work. More details at
     http://www.quantum-espresso.org/quote

     Parallel version (MPI), running on    10 processors

     MPI processes distributed on     1 nodes
     R & G space division:  proc/nbgrp/npool/nimage =      10
     115240 MiB available memory on the printing compute node when the environment starts
 
     Reading input from GSF110_0.2.in
Warning: card &CELL ignored
Warning: card / ignored

     Current dimensions of program PWSCF are:
     Max number of different atomic species (ntypx) = 10
     Max number of k-points (npk) =  40000
     Max angular momentum in pseudopotentials (lmaxx) =  4

     File ./pwscf.bfgs deleted, as requested
     file Au.pbe-n-kjpaw_psl.1.0.0.UPF: wavefunction(s)  6S 5D renormalized
     Found identity + (  0.0000 -0.5000  0.0000) symmetry
     This is a supercell, fractional translations are disabled
     Message from routine setup:
     using ibrav=0 with symmetry is DISCOURAGED, use correct ibrav instead

     Subspace diagonalization in iterative solution of the eigenvalue problem:
     one sub-group per band group will be used
     scalapack distributed-memory algorithm (size of sub-group:  3*  3 procs)

 
     Parallelization info
     --------------------
     sticks:   dense  smooth     PW     G-vecs:    dense   smooth      PW
     Min         133     133     38                14227    14227    2178
     Max         134     134     39                14242    14242    2183
     Sum        1339    1339    389               142317   142317   21821
 
     Using Slab Decomposition
 


     bravais-lattice index     =            0
     lattice parameter (alat)  =       7.7101  a.u.
     unit-cell volume          =    2979.1368 (a.u.)^3
     number of atoms/cell      =           28
     number of atomic types    =            1
     number of electrons       =       308.00
     number of Kohn-Sham states=          185
     kinetic-energy cutoff     =      50.0000  Ry
     charge density cutoff     =     200.0000  Ry
     scf convergence threshold =      1.0E-06
     mixing beta               =       0.1000
     number of iterations used =            8  plain     mixing
     Exchange-correlation= SLA  PW   PBX  PBC
                           (   1   4   3   4   0   0   0)

     celldm(1)=   7.710083  celldm(2)=   0.000000  celldm(3)=   0.000000
     celldm(4)=   0.000000  celldm(5)=   0.000000  celldm(6)=   0.000000

     crystal axes: (cart. coord. in units of alat)
               a(1) = (   1.000000   0.000000   0.000000 )  
               a(2) = (   0.000000   1.414214   0.000000 )  
               a(3) = (   0.000000   0.000000   4.596194 )  

     reciprocal axes: (cart. coord. in units 2 pi/alat)
               b(1) = (  1.000000  0.000000  0.000000 )  
               b(2) = (  0.000000  0.707107  0.000000 )  
               b(3) = (  0.000000  0.000000  0.217571 )  


     PseudoPot. # 1 for Au read from file:
     ./Au.pbe-n-kjpaw_psl.1.0.0.UPF
     MD5 check sum: 4db85c736373c707a97ce4c36c2a9d23
     Pseudo is Projector augmented-wave + core cor, Zval = 11.0
     Generated using &quot;atomic&quot; code by A. Dal Corso  v.6.3
     Shape of augmentation charge: PSQ
     Using radial grid of 1279 points,  6 beta functions with: 
                l(1) =   0
                l(2) =   0
                l(3) =   1
                l(4) =   1
                l(5) =   2
                l(6) =   2
     Q(r) pseudized with 0 coefficients 


     atomic species   valence    mass     pseudopotential
        Au            11.00   196.96657     Au( 1.00)

      2 Sym. Ops. (no inversion) found



   Cartesian axes

     site n.     atom                  positions (alat units)
         1           Au  tau(   1) = (   0.5000000   0.3535534   0.0000000  )
         2           Au  tau(   2) = (   0.5000000   1.0606602   0.0000000  )
         3           Au  tau(   3) = (   0.0000000   0.0000000   0.3535534  )
         4           Au  tau(   4) = (   0.0000000   0.7071068   0.3535534  )
         5           Au  tau(   5) = (   0.5000000   0.3535534   0.7071068  )
         6           Au  tau(   6) = (   0.5000000   1.0606602   0.7071068  )
         7           Au  tau(   7) = (   0.0000000   0.0000000   1.0606602  )
         8           Au  tau(   8) = (   0.0000000   0.7071068   1.0606602  )
         9           Au  tau(   9) = (   0.5000000   0.3535534   1.4142136  )
        10           Au  tau(  10) = (   0.5000000   1.0606602   1.4142136  )
        11           Au  tau(  11) = (   0.0000000   0.0000000   1.7677670  )
        12           Au  tau(  12) = (   0.0000000   0.7071068   1.7677670  )
        13           Au  tau(  13) = (   0.5000000   0.3535534   2.1213203  )
        14           Au  tau(  14) = (   0.5000000   1.0606602   2.1213203  )
        15           Au  tau(  15) = (   0.0000000   0.0000000   2.4748737  )
        16           Au  tau(  16) = (   0.0000000   0.7071068   2.4748737  )
        17           Au  tau(  17) = (   0.7000000   0.3535534   2.8284271  )
        18           Au  tau(  18) = (   0.7000000   1.0606602   2.8284271  )
        19           Au  tau(  19) = (   0.2000000   0.0000000   3.1819805  )
        20           Au  tau(  20) = (   0.2000000   0.7071068   3.1819805  )
        21           Au  tau(  21) = (   0.7000000   0.3535534   3.5355339  )
        22           Au  tau(  22) = (   0.7000000   1.0606602   3.5355339  )
        23           Au  tau(  23) = (   0.2000000   0.0000000   3.8890873  )
        24           Au  tau(  24) = (   0.2000000   0.7071068   3.8890873  )
        25           Au  tau(  25) = (   0.7000000   0.3535534   4.2426407  )
        26           Au  tau(  26) = (   0.7000000   1.0606602   4.2426407  )
        27           Au  tau(  27) = (   0.2000000   0.0000000   4.5961941  )
        28           Au  tau(  28) = (   0.2000000   0.7071068   4.5961941  )

     number of k points=    35  Gaussian smearing, width (Ry)=  0.0200
                       cart. coord. in units 2pi/alat
        k(    1) = (   0.0000000   0.0000000   0.0000000), wk =   0.0208333
        k(    2) = (   0.0000000   0.0589256   0.0000000), wk =   0.0416667
        k(    3) = (   0.0000000   0.1178511   0.0000000), wk =   0.0416667
        k(    4) = (   0.0000000   0.1767767   0.0000000), wk =   0.0416667
        k(    5) = (   0.0000000   0.2357023   0.0000000), wk =   0.0416667
        k(    6) = (   0.0000000   0.2946278   0.0000000), wk =   0.0416667
        k(    7) = (   0.0000000  -0.3535534   0.0000000), wk =   0.0208333
        k(    8) = (   0.1250000   0.0000000   0.0000000), wk =   0.0416667
        k(    9) = (   0.1250000   0.0589256   0.0000000), wk =   0.0833333
        k(   10) = (   0.1250000   0.1178511   0.0000000), wk =   0.0833333
        k(   11) = (   0.1250000   0.1767767   0.0000000), wk =   0.0833333
        k(   12) = (   0.1250000   0.2357023   0.0000000), wk =   0.0833333
        k(   13) = (   0.1250000   0.2946278   0.0000000), wk =   0.0833333
        k(   14) = (   0.1250000  -0.3535534   0.0000000), wk =   0.0416667
        k(   15) = (   0.2500000   0.0000000   0.0000000), wk =   0.0416667
        k(   16) = (   0.2500000   0.0589256   0.0000000), wk =   0.0833333
        k(   17) = (   0.2500000   0.1178511   0.0000000), wk =   0.0833333
        k(   18) = (   0.2500000   0.1767767   0.0000000), wk =   0.0833333
        k(   19) = (   0.2500000   0.2357023   0.0000000), wk =   0.0833333
        k(   20) = (   0.2500000   0.2946278   0.0000000), wk =   0.0833333
        k(   21) = (   0.2500000  -0.3535534   0.0000000), wk =   0.0416667
        k(   22) = (   0.3750000   0.0000000   0.0000000), wk =   0.0416667
        k(   23) = (   0.3750000   0.0589256   0.0000000), wk =   0.0833333
        k(   24) = (   0.3750000   0.1178511   0.0000000), wk =   0.0833333
        k(   25) = (   0.3750000   0.1767767   0.0000000), wk =   0.0833333
        k(   26) = (   0.3750000   0.2357023   0.0000000), wk =   0.0833333
        k(   27) = (   0.3750000   0.2946278   0.0000000), wk =   0.0833333
        k(   28) = (   0.3750000  -0.3535534   0.0000000), wk =   0.0416667
        k(   29) = (  -0.5000000   0.0000000   0.0000000), wk =   0.0208333
        k(   30) = (  -0.5000000   0.0589256   0.0000000), wk =   0.0416667
        k(   31) = (  -0.5000000   0.1178511   0.0000000), wk =   0.0416667
        k(   32) = (  -0.5000000   0.1767767   0.0000000), wk =   0.0416667
        k(   33) = (  -0.5000000   0.2357023   0.0000000), wk =   0.0416667
        k(   34) = (  -0.5000000   0.2946278   0.0000000), wk =   0.0416667
        k(   35) = (  -0.5000000  -0.3535534   0.0000000), wk =   0.0208333

     Dense  grid:   142317 G-vectors     FFT dimensions: (  36,  50, 160)

     Estimated max dynamical RAM per process >     261.85 MB

     Estimated total dynamical RAM >       2.56 GB

     Initial potential from superposition of free atoms

     starting charge     307.9969, renormalised to     308.0000
     Starting wfcs are  252 randomized atomic wfcs
     Checking if some PAW data can be deallocated... 

     total cpu time spent up to now is       15.8 secs

     Self-consistent Calculation

     iteration #  1     ecut=    50.00 Ry     beta= 0.10
     Davidson diagonalization with overlap
     ethr =  1.00E-02,  avg # of iterations =  4.1

     total cpu time spent up to now is       57.5 secs

     total energy              =  -21690.49519534 Ry
     estimated scf accuracy    <      16.58340048 Ry

     iteration #  2     ecut=    50.00 Ry     beta= 0.10
     Davidson diagonalization with overlap
     ethr =  5.38E-03,  avg # of iterations =  2.9

     total cpu time spent up to now is       92.5 secs

     total energy              =  -21689.29842938 Ry
     estimated scf accuracy    <     192.58737285 Ry

     iteration #  3     ecut=    50.00 Ry     beta= 0.10
     Davidson diagonalization with overlap
     ethr =  5.38E-03,  avg # of iterations =  1.2

     total cpu time spent up to now is      122.0 secs

     total energy              =  -21693.31712880 Ry
     estimated scf accuracy    <       2.50713200 Ry

     iteration #  4     ecut=    50.00 Ry     beta= 0.10
     Davidson diagonalization with overlap
     ethr =  8.14E-04,  avg # of iterations =  3.9

     total cpu time spent up to now is      157.9 secs

     total energy              =  -21693.31620116 Ry
     estimated scf accuracy    <       0.86957315 Ry

     iteration #  5     ecut=    50.00 Ry     beta= 0.10
     Davidson diagonalization with overlap
     c_bands:  1 eigenvalues not converged
     ethr =  2.82E-04,  avg # of iterations =  7.8

     total cpu time spent up to now is      203.0 secs

     total energy              =  -21693.32810492 Ry
     estimated scf accuracy    <       0.97994373 Ry

     iteration #  6     ecut=    50.00 Ry     beta= 0.10
     Davidson diagonalization with overlap
     ethr =  2.82E-04,  avg # of iterations =  1.6

     total cpu time spent up to now is      234.2 secs

     total energy              =  -21693.31684988 Ry
     estimated scf accuracy    <       0.42667815 Ry

     iteration #  7     ecut=    50.00 Ry     beta= 0.10
     Davidson diagonalization with overlap
     ethr =  1.39E-04,  avg # of iterations =  3.2

     total cpu time spent up to now is      270.6 secs

     total energy              =  -21693.38041792 Ry
     estimated scf accuracy    <       0.11608955 Ry

     iteration #  8     ecut=    50.00 Ry     beta= 0.10
     Davidson diagonalization with overlap
     c_bands:  1 eigenvalues not converged
     ethr =  3.77E-05,  avg # of iterations =  9.2

     total cpu time spent up to now is      323.5 secs

     total energy              =  -21693.39600206 Ry
     estimated scf accuracy    <       0.04770797 Ry

     iteration #  9     ecut=    50.00 Ry     beta= 0.10
     Davidson diagonalization with overlap
     c_bands:  1 eigenvalues not converged
     c_bands:  1 eigenvalues not converged
     c_bands:  1 eigenvalues not converged
     ethr =  1.55E-05,  avg # of iterations =  9.3

     total cpu time spent up to now is      369.9 secs

     total energy              =  -21693.40520621 Ry
     estimated scf accuracy    <       0.01890453 Ry

     iteration # 10     ecut=    50.00 Ry     beta= 0.10
     Davidson diagonalization with overlap
     c_bands:  1 eigenvalues not converged
     c_bands:  1 eigenvalues not converged
     ethr =  6.14E-06,  avg # of iterations =  7.7

     total cpu time spent up to now is      421.4 secs

     total energy              =  -21693.40698501 Ry
     estimated scf accuracy    <       0.01933502 Ry

     iteration # 11     ecut=    50.00 Ry     beta= 0.10
     Davidson diagonalization with overlap
     ethr =  6.14E-06,  avg # of iterations =  1.1

     total cpu time spent up to now is      450.6 secs

     total energy              =  -21693.40765432 Ry
     estimated scf accuracy    <       0.00254420 Ry

     iteration # 12     ecut=    50.00 Ry     beta= 0.10
     Davidson diagonalization with overlap
     c_bands:  1 eigenvalues not converged
     c_bands:  2 eigenvalues not converged
     ethr =  8.26E-07,  avg # of iterations =  8.4

     total cpu time spent up to now is      498.4 secs

     total energy              =  -21693.40821198 Ry
     estimated scf accuracy    <       0.00092663 Ry

     iteration # 13     ecut=    50.00 Ry     beta= 0.10
     Davidson diagonalization with overlap
     ethr =  3.01E-07,  avg # of iterations =  3.6

     total cpu time spent up to now is      535.0 secs

     total energy              =  -21693.40822775 Ry
     estimated scf accuracy    <       0.00025561 Ry

     iteration # 14     ecut=    50.00 Ry     beta= 0.10
     Davidson diagonalization with overlap
     ethr =  8.30E-08,  avg # of iterations =  5.0

     total cpu time spent up to now is      591.8 secs

     total energy              =  -21693.40829738 Ry
     estimated scf accuracy    <       0.00017007 Ry

     iteration # 15     ecut=    50.00 Ry     beta= 0.10
     Davidson diagonalization with overlap
     ethr =  5.52E-08,  avg # of iterations =  3.5

     total cpu time spent up to now is      634.9 secs

     total energy              =  -21693.40833989 Ry
     estimated scf accuracy    <       0.00003137 Ry

     iteration # 16     ecut=    50.00 Ry     beta= 0.10
     Davidson diagonalization with overlap
     ethr =  1.02E-08,  avg # of iterations =  4.7

     total cpu time spent up to now is      678.1 secs

     total energy              =  -21693.40834053 Ry
     estimated scf accuracy    <       0.00001253 Ry

     iteration # 17     ecut=    50.00 Ry     beta= 0.10
     Davidson diagonalization with overlap
     ethr =  4.07E-09,  avg # of iterations =  3.5

     total cpu time spent up to now is      728.3 secs

     total energy              =  -21693.40834142 Ry
     estimated scf accuracy    <       0.00001226 Ry

     iteration # 18     ecut=    50.00 Ry     beta= 0.10
     Davidson diagonalization with overlap
     ethr =  3.98E-09,  avg # of iterations =  1.8

     total cpu time spent up to now is      760.7 secs

     total energy              =  -21693.40834217 Ry
     estimated scf accuracy    <       0.00000511 Ry

     iteration # 19     ecut=    50.00 Ry     beta= 0.10
     Davidson diagonalization with overlap
     ethr =  1.66E-09,  avg # of iterations =  2.0

     total cpu time spent up to now is      793.8 secs

     End of self-consistent calculation

          k = 0.0000 0.0000 0.0000 ( 17807 PWs)   bands (ev):

     1.5640   2.0955   2.0955   2.3004   2.8608   3.7861   4.4114   4.4661
     4.4668   5.0867   5.1710   5.1716   5.8383   6.3074   6.4821   6.4826
     7.9186   8.1608   8.2847   9.1101   9.1104   9.2622   9.4767   9.7275
    10.3318  10.4059  10.4105  10.5641  10.5696  10.5745  10.6687  10.9866
    11.0046  11.0076  11.1878  11.2217  11.2223  11.3109  11.3406  11.3433
    11.4017  11.4458  11.4512  11.5287  11.6082  11.6099  11.6398  11.6787
    11.7416  11.7915  11.7984  11.8132  11.9247  11.9440  12.0173  12.1219
    12.1609  12.1976  12.3410  12.3420  12.4112  12.4150  12.4461  12.4697
    12.5704  12.6340  12.6722  12.7057  12.8182  12.9543  12.9618  13.0394
    13.0395  13.0653  13.1283  13.1303  13.2817  13.2819  13.3462  13.4373
    13.4391  13.4577  13.5075  13.5734  13.5838  13.6923  13.7452  13.8852
    13.9047  13.9076  13.9557  14.0916  14.2294  14.2460  14.3276  14.3521
    14.3736  14.4066  14.4680  14.4716  14.4882  14.5382  14.5857  14.6713
    14.6753  14.7589  14.8294  14.8765  14.9416  14.9459  14.9499  14.9902
    15.0271  15.0467  15.1376  15.1692  15.1838  15.3428  15.3731  15.3942
    15.4623  15.4660  15.5323  15.5599  15.6329  15.6786  15.6900  15.7055
    15.7708  15.8435  15.8449  15.8539  15.9424  16.0077  16.0421  16.1390
    16.2114  16.2290  16.3003  16.3067  16.3923  16.4794  16.5461  16.7733
    16.8312  16.8363  17.4510  17.4529  17.6580  17.6706  17.8398  17.8493
    17.9689  17.9958  18.0158  18.3341  18.3345  18.6940  18.7564  18.7758
    18.9767  19.4330  20.0252  20.8352  21.0067  21.0084  21.4286  21.9749
    22.3836  22.8022  23.6065  23.9682  23.9850  23.9855  24.0133  24.5687
    24.5882  24.6292  25.1122  25.1423  25.2531  25.8150  26.0139  26.0152
    26.0706

          k = 0.0000 0.0589 0.0000 ( 17795 PWs)   bands (ev):

     1.5491   2.0253   2.1713   2.3327   2.9151   3.7426   4.3680   4.3997
     4.4074   5.0312   5.1199   5.4748   5.8663   6.3066   6.3740   6.6062
     7.9121   8.2022   8.3278   8.8761   9.1534   9.2867   9.5138   9.7428
    10.3682  10.4012  10.4453  10.5153  10.6063  10.6451  10.6796  10.9999
    11.0045  11.0244  11.2080  11.2091  11.2243  11.2913  11.3356  11.3476
    11.4184  11.4378  11.4627  11.5173  11.5935  11.6049  11.6069  11.6416
    11.6998  11.7738  11.8164  11.8439  11.9209  11.9759  12.0511  12.1436
    12.1879  12.1949  12.3044  12.4009  12.4225  12.4333  12.4567  12.5118
    12.5332  12.5580  12.6874  12.7340  12.7920  12.9139  12.9537  13.0188
    13.0340  13.0605  13.1176  13.1221  13.2561  13.3136  13.3618  13.4006
    13.4401  13.4663  13.5261  13.5381  13.6202  13.6822  13.7593  13.8679
    13.8990  13.9309  13.9877  14.0864  14.2115  14.2349  14.2680  14.3067
    14.3797  14.4211  14.4679  14.4854  14.5059  14.5532  14.5814  14.6649
    14.6890  14.7450  14.7853  14.8365  14.8949  14.9301  14.9464  14.9882
    14.9937  15.0522  15.1379  15.1955  15.2076  15.3188  15.3318  15.3777
    15.3932  15.4475  15.5021  15.5462  15.6121  15.6509  15.7118  15.7331
    15.8134  15.8365  15.8605  15.8778  15.9420  16.0169  16.0319  16.1076
    16.1379  16.2402  16.2872  16.3174  16.3897  16.4747  16.5342  16.7305
    16.8318  16.8829  16.9573  17.0802  17.2024  17.2868  17.7924  17.8451
    17.8966  18.0644  18.2821  18.4956  18.6833  18.7628  19.0228  19.1650
    19.2539  19.5438  20.1317  20.9123  21.1348  21.1690  21.4616  22.0203
    22.4296  22.8220  23.6153  23.6424  23.7623  23.9618  24.0054  24.4014
    24.6380  24.7499  25.1556  25.2546  25.3985  25.7027  25.8051  25.8236
    25.9881

          k = 0.0000 0.1179 0.0000 ( 17803 PWs)   bands (ev):

     1.5169   1.9505   2.2615   2.4275   3.0614   3.6228   4.1916   4.2092
     4.3985   5.0282   5.2201   5.8095   5.9407   6.2777   6.3029   6.7738
     7.9017   8.3247   8.4518   8.4877   9.0298   9.3417   9.6209   9.7838
    10.4236  10.4536  10.4736  10.5431  10.6796  10.7166  10.7288  10.9847
    11.0503  11.0618  11.1216  11.1661  11.2559  11.2784  11.3171  11.3391
    11.4038  11.4258  11.4682  11.4894  11.5686  11.5980  11.6080  11.6598
    11.6987  11.8002  11.8053  11.9350  11.9800  12.0154  12.1046  12.1571
    12.2053  12.2379  12.3082  12.3300  12.4190  12.4465  12.4625  12.5251
    12.5376  12.6136  12.6358  12.7061  12.7417  12.8324  12.9211  12.9592
    13.0107  13.0748  13.1077  13.1571  13.1843  13.2154  13.2962  13.4770
    13.4792  13.5210  13.5230  13.5898  13.6693  13.6786  13.7888  13.8118
    13.9456  13.9502  14.0077  14.0595  14.1281  14.1727  14.1942  14.3162
    14.3999  14.4551  14.4710  14.4833  14.5340  14.5374  14.5988  14.6115
    14.6439  14.6875  14.7271  14.7578  14.8127  14.9027  14.9027  14.9366
    15.0087  15.0635  15.0900  15.0921  15.2099  15.2204  15.2438  15.3258
    15.3710  15.4211  15.4930  15.5035  15.5795  15.6059  15.6935  15.7243
    15.7364  15.7721  15.8444  15.8493  15.9348  15.9635  16.0153  16.0643
    16.0651  16.2060  16.3318  16.3344  16.4360  16.4564  16.5214  16.5285
    16.5512  16.5704  16.6467  16.6805  16.8814  16.9238  17.5581  17.7450
    17.7601  17.9956  18.3153  18.9307  19.1378  19.1556  19.3371  19.8329
    20.0047  20.0642  20.4322  21.1353  21.3663  21.3848  21.5513  22.1473
    22.5589  22.8723  23.4041  23.5105  23.6361  23.9291  23.9931  24.0852
    24.4463  24.6605  25.1729  25.2074  25.2520  25.3719  25.5142  25.8146
    25.9442

          k = 0.0000 0.1768 0.0000 ( 17795 PWs)   bands (ev):

     1.4910   1.8641   2.3727   2.5780   3.2618   3.4514   3.9786   4.0286
     4.3949   5.0216   5.3878   6.0414   6.0608   6.2055   6.2929   7.0292
     7.9050   8.0228   8.5242   8.6478   8.8090   9.3496   9.7837   9.8626
    10.4127  10.4565  10.6083  10.6332  10.6532  10.7389  10.8718  10.9389
    10.9702  11.0791  11.1120  11.1139  11.1851  11.2035  11.3408  11.3644
    11.4259  11.4833  11.4853  11.5423  11.5776  11.6328  11.6767  11.7111
    11.7668  11.8393  11.8788  12.0309  12.0417  12.0841  12.1046  12.1447
    12.2326  12.2598  12.2650  12.3145  12.3523  12.4009  12.4515  12.5280
    12.5694  12.5787  12.6509  12.6606  12.6824  12.7483  12.8315  12.8729
    13.0386  13.0599  13.1009  13.1131  13.1238  13.1657  13.3586  13.5076
    13.5546  13.5554  13.5969  13.6635  13.6657  13.6958  13.7807  13.7989
    13.8527  13.9846  14.0007  14.0421  14.0882  14.1255  14.2103  14.3502
    14.3716  14.3764  14.4086  14.4799  14.4835  14.5069  14.5239  14.5587
    14.5964  14.6538  14.7211  14.7623  14.7740  14.7770  14.8482  14.8498
    14.9500  14.9856  15.0396  15.0439  15.1123  15.1628  15.1634  15.2283
    15.2563  15.3467  15.4100  15.4395  15.5117  15.5208  15.6044  15.6382
    15.6495  15.6999  15.7674  15.8779  15.8803  15.8818  15.9350  15.9447
    16.0246  16.0434  16.0502  16.0509  16.1406  16.2376  16.2505  16.4050
    16.4067  16.5172  16.6908  16.8719  16.9106  17.0021  17.5011  17.5577
    17.6142  17.9716  18.3943  19.1532  19.3596  19.9136  20.0736  20.2217
    20.7273  20.7875  20.8856  21.4728  21.5023  21.5253  21.6732  22.3283
    22.7341  22.9303  23.0674  23.6572  23.7948  23.8516  23.9833  24.0696
    24.1895  24.6710  24.7656  24.9902  25.0504  25.1448  25.2106  25.3269
    25.4092

          k = 0.0000 0.2357 0.0000 ( 17822 PWs)   bands (ev):

     1.4891   1.7667   2.5080   2.7734   3.2533   3.4706   3.7444   3.9008
     4.4177   4.9504   5.6208   6.1525   6.1722   6.1825   6.2734   7.2265
     7.7060   7.9386   8.5605   8.7923   8.9077   9.1972   9.9748  10.0280
    10.2463  10.3220  10.4736  10.6715  10.7986  10.8321  10.8484  10.9530
    11.0633  11.0908  11.1054  11.1263  11.1860  11.2180  11.3346  11.4507
    11.4682  11.5103  11.5430  11.5925  11.6360  11.6884  11.7248  11.8116
    11.8466  11.9340  11.9500  11.9983  12.0007  12.0443  12.0932  12.1614
    12.2295  12.2459  12.2668  12.3504  12.3573  12.4145  12.4348  12.4550
    12.4932  12.5334  12.6029  12.6485  12.6696  12.7448  12.8103  12.8764
    12.9984  13.0244  13.0893  13.1425  13.1487  13.2144  13.3980  13.4295
    13.6015  13.6036  13.6406  13.6448  13.6960  13.7049  13.7320  13.7811
    13.8642  13.9550  14.0026  14.0585  14.0807  14.1052  14.1195  14.2467
    14.2700  14.3360  14.3638  14.3698  14.3994  14.4386  14.4770  14.5450
    14.5703  14.5886  14.6952  14.7085  14.7299  14.7432  14.7600  14.7960
    14.9029  14.9198  14.9728  14.9965  14.9974  15.0376  15.0634  15.1297
    15.1350  15.2066  15.2219  15.3020  15.4006  15.4373  15.5149  15.5362
    15.5887  15.6158  15.6391  15.6745  15.7221  15.7696  15.7994  15.8371
    15.8628  16.0030  16.0467  16.0559  16.0658  16.1559  16.1959  16.3131
    16.4572  16.5223  16.7201  16.8711  16.9322  17.1178  17.3021  17.5576
    17.6321  17.8793  18.8848  19.4142  19.6160  20.6475  20.6861  20.7676
    20.8244  20.8661  21.4365  21.6393  21.9990  22.0052  22.1331  22.5139
    22.7515  22.7856  23.0568  23.6512  23.7028  23.7644  23.8925  24.2702
    24.4045  24.5012  24.5054  24.6139  24.7150  24.8551  24.8855  24.9335
    25.0989

          k = 0.0000 0.2946 0.0000 ( 17818 PWs)   bands (ev):

     1.5193   1.6679   2.6679   2.9993   3.0496   3.4977   3.6395   3.8175
     4.4969   4.8115   5.8985   6.1782   6.2013   6.2435   6.2797   6.8899
     8.0112   8.0164   8.3314   8.8649   9.1357   9.2227   9.9059   9.9449
    10.1837  10.2428  10.4610  10.6117  10.8419  10.8685  10.9555  11.0129
    11.0719  11.0828  11.1725  11.2419  11.2663  11.2865  11.3731  11.4773
    11.5054  11.5388  11.5884  11.6253  11.7080  11.7085  11.7709  11.8358
    11.8577  11.9395  11.9405  11.9527  12.0004  12.0234  12.0466  12.1057
    12.2053  12.2197  12.2467  12.3314  12.3393  12.3967  12.4229  12.4341
    12.5078  12.5321  12.6430  12.6791  12.7089  12.7558  12.8635  12.9346
    13.0179  13.0285  13.1379  13.1417  13.1916  13.2875  13.3965  13.4248
    13.4598  13.5886  13.6074  13.6908  13.6953  13.7192  13.7850  13.8187
    13.8429  13.9205  13.9820  13.9913  14.0085  14.0647  14.1116  14.1207
    14.1967  14.2149  14.2464  14.3094  14.3217  14.3588  14.3774  14.4194
    14.4871  14.5305  14.5771  14.6273  14.6311  14.7350  14.7558  14.8284
    14.8639  14.8771  14.8929  14.9272  15.0057  15.0123  15.0293  15.0661
    15.1434  15.1448  15.1652  15.2052  15.2440  15.3175  15.3998  15.4628
    15.4699  15.5166  15.5375  15.5940  15.6142  15.7354  15.8022  15.8471
    15.9481  15.9968  16.0178  16.0339  16.0349  16.1557  16.1878  16.2069
    16.5035  16.5337  16.7452  16.8174  16.9721  17.1524  17.2563  17.5462
    17.5782  17.7636  19.6386  19.7003  19.9096  20.5198  20.5526  21.0697
    21.3243  21.4326  21.5277  22.1005  22.1393  22.5198  22.6148  22.6444
    22.8412  23.0219  23.1962  23.4589  23.5001  23.6985  23.7097  23.8172
    23.9082  24.1625  24.4009  24.5632  24.6182  24.7936  24.8187  24.9860
    25.1002

          k = 0.0000-0.3536 0.0000 ( 17844 PWs)   bands (ev):

     1.5813   1.5813   2.8496   2.8496   3.2466   3.2466   3.7458   3.7458
     4.6414   4.6414   6.1224   6.1224   6.2079   6.2079   6.5057   6.5057
     8.1469   8.1469   8.4551   8.4551   9.5083   9.5083   9.5747   9.5747
    10.3692  10.3692  10.4478  10.4478  10.8526  10.8526  11.0433  11.0433
    11.0824  11.0824  11.2048  11.2048  11.3649  11.3649  11.4552  11.4552
    11.5312  11.5312  11.6409  11.6409  11.6884  11.6884  11.7914  11.7914
    11.8667  11.8667  11.9143  11.9143  12.0341  12.0341  12.0882  12.0882
    12.1690  12.1690  12.2878  12.2878  12.3522  12.3522  12.3937  12.3937
    12.5581  12.5581  12.7064  12.7064  12.7763  12.7763  12.8926  12.8926
    13.0318  13.0318  13.1596  13.1596  13.2398  13.2398  13.4499  13.4499
    13.5892  13.5892  13.6292  13.6292  13.6909  13.6909  13.7715  13.7715
    13.8251  13.8251  13.9564  13.9564  14.0289  14.0289  14.0783  14.0783
    14.1364  14.1364  14.2205  14.2205  14.3019  14.3019  14.3772  14.3772
    14.4505  14.4505  14.5348  14.5348  14.6864  14.6864  14.7975  14.7975
    14.8481  14.8481  14.9676  14.9676  14.9930  14.9930  15.0380  15.0380
    15.1390  15.1390  15.2285  15.2285  15.2492  15.2492  15.3163  15.3163
    15.4236  15.4236  15.5259  15.5259  15.6782  15.6782  15.8654  15.8654
    15.9884  15.9884  16.0040  16.0040  16.0775  16.0775  16.1866  16.1866
    16.5313  16.5313  16.7741  16.7741  17.0435  17.0435  17.4057  17.4057
    17.6550  17.6550  19.9520  19.9520  20.2276  20.2276  20.7211  20.7211
    21.4392  21.4392  22.1999  22.1999  22.3336  22.3336  22.8252  22.8252
    23.1137  23.1137  23.2296  23.2296  23.4604  23.4604  23.6198  23.6198
    23.9271  23.9271  24.4244  24.4244  24.6600  24.6600  24.8178  24.8178
    25.3537

          k = 0.1250 0.0000 0.0000 ( 17777 PWs)   bands (ev):

     1.5667   2.0939   2.0940   2.4260   2.9117   3.7753   4.3344   4.3350
     4.4105   5.2292   5.3608   5.3615   5.8576   6.2395   6.4739   6.4744
     7.9423   8.2948   8.4528   9.0116   9.0119   9.1522   9.6431   9.8230
    10.3152  10.3944  10.4921  10.4964  10.5963  10.5996  10.6936  10.9998
    11.0554  11.0725  11.1491  11.2261  11.2320  11.3008  11.3009  11.3515
    11.3874  11.4586  11.4857  11.4953  11.4975  11.5780  11.5785  11.6187
    11.6598  11.6998  11.7239  11.8211  11.8249  11.8425  11.9145  12.1847
    12.3395  12.3468  12.4133  12.4664  12.4763  12.5254  12.5814  12.7670
    12.8273  12.8370  12.8841  12.9033  12.9753  12.9860  13.0318  13.0643
    13.1131  13.1916  13.2351  13.3036  13.3387  13.3836  13.3865  13.4501
    13.4573  13.4646  13.4898  13.5422  13.5578  13.5597  13.6442  13.7410
    13.7927  13.8253  13.9043  13.9078  14.0914  14.1560  14.2012  14.2184
    14.2650  14.3031  14.3939  14.4495  14.4699  14.5277  14.5288  14.6834
    14.6985  14.7458  14.7601  14.8369  14.8685  14.8877  14.8928  14.9933
    15.0142  15.0553  15.0595  15.0696  15.1926  15.2938  15.3403  15.3780
    15.4374  15.4554  15.4826  15.5003  15.5484  15.5789  15.6388  15.6844
    15.7080  15.7910  15.8561  15.8692  15.9006  15.9845  15.9878  16.0547
    16.0977  16.1110  16.2816  16.3556  16.3570  16.3718  16.4932  16.7387
    16.8473  16.8574  17.3421  17.3422  17.7049  17.7078  17.9394  18.0058
    18.0077  18.0958  18.2524  18.2602  18.6759  18.6815  18.7120  18.8752
    19.2268  19.3380  19.3673  19.7670  20.9813  21.0164  21.0186  21.4654
    22.4007  22.9471  23.2217  23.2245  23.5504  24.0467  24.1763  24.2761
    24.3337  24.4795  24.5116  24.7825  24.8615  24.9434  24.9882  25.0967
    25.4473

          k = 0.1250 0.0589 0.0000 ( 17791 PWs)   bands (ev):

     1.5571   2.0226   2.1713   2.4464   2.9689   3.7326   4.1719   4.4080
     4.4269   5.1198   5.2617   5.6589   5.8846   6.2416   6.3601   6.6166
     7.9354   8.3353   8.4932   8.7430   9.1524   9.1778   9.6793   9.8433
    10.3511  10.4241  10.4637  10.5076  10.5546  10.6681  10.7084  11.0219
    11.0361  11.1004  11.1618  11.1657  11.2463  11.3025  11.3042  11.3498
    11.3576  11.4214  11.4767  11.4911  11.5374  11.5775  11.6231  11.6570
    11.6731  11.7152  11.7781  11.7878  11.8285  11.8976  11.9019  12.1832
    12.2776  12.3920  12.4034  12.4166  12.4821  12.4973  12.5882  12.7341
    12.7903  12.8560  12.8965  12.9192  12.9453  12.9811  13.0253  13.0603
    13.0853  13.1888  13.2166  13.2253  13.3003  13.3529  13.3752  13.4394
    13.4598  13.4859  13.5041  13.5200  13.5901  13.6121  13.6516  13.7550
    13.7952  13.8044  13.9297  13.9361  14.0348  14.1578  14.1742  14.2217
    14.2387  14.2912  14.4060  14.4274  14.4837  14.5181  14.5523  14.6376
    14.6875  14.7396  14.7796  14.8234  14.8765  14.8982  14.9129  14.9629
    14.9672  15.0279  15.0537  15.1041  15.1942  15.2443  15.2874  15.3447
    15.4232  15.4374  15.4562  15.5029  15.5289  15.5934  15.6508  15.6805
    15.7434  15.8011  15.8295  15.8783  15.8892  15.9590  15.9852  16.0107
    16.0678  16.1457  16.2106  16.2861  16.3802  16.4832  16.5219  16.7261
    16.7705  16.9187  16.9441  17.0685  17.3559  17.5361  17.5797  17.8410
    18.1478  18.2273  18.4402  18.5677  18.7572  18.9218  18.9484  18.9652
    19.2881  19.4883  19.6224  19.8249  21.0199  21.1733  21.1923  21.5018
    22.4454  22.6552  22.9988  23.5641  23.5945  23.7735  23.8590  24.0711
    24.1275  24.1831  24.3407  24.7750  24.8726  25.0755  25.2515  25.4553
    25.6486

          k = 0.1250 0.1179 0.0000 ( 17815 PWs)   bands (ev):

     1.5355   1.9483   2.2630   2.5158   3.1187   3.6150   3.9923   4.3819
     4.4025   4.9927   5.3596   5.9371   5.9568   6.2466   6.2681   6.8208
     7.9231   8.3862   8.4544   8.6100   9.1199   9.2419   9.7828   9.8970
    10.4470  10.4531  10.4816  10.5083  10.5615  10.7155  10.7431  11.0197
    11.0600  11.0735  11.1416  11.1629  11.2086  11.2456  11.2835  11.3765
    11.4069  11.4258  11.4837  11.5450  11.5528  11.6266  11.6849  11.6934
    11.7303  11.7657  11.8210  11.8546  11.8671  11.8915  11.9903  12.1634
    12.2373  12.3091  12.3975  12.4039  12.4343  12.4716  12.5278  12.6779
    12.7619  12.7859  12.8311  12.8805  12.9324  12.9742  12.9885  13.0546
    13.0622  13.1452  13.1458  13.2029  13.2679  13.2826  13.3302  13.4314
    13.4592  13.5220  13.5338  13.5535  13.6244  13.6638  13.6733  13.7258
    13.8039  13.8370  13.9019  13.9519  14.0258  14.1031  14.1293  14.1781
    14.2512  14.2982  14.3511  14.3719  14.4768  14.5197  14.5517  14.5749
    14.6868  14.6966  14.7749  14.7933  14.8122  14.8742  14.8818  14.9398
    14.9611  14.9965  15.0232  15.0885  15.1282  15.2128  15.2456  15.2746
    15.3400  15.3590  15.4674  15.4958  15.5156  15.5674  15.6229  15.6420
    15.7139  15.7691  15.8086  15.8409  15.8636  15.9152  15.9633  15.9832
    16.0192  16.1042  16.1881  16.2699  16.3515  16.4663  16.4910  16.5171
    16.6591  16.7178  16.7619  16.7874  16.8895  17.0328  17.5897  17.7019
    18.0361  18.4596  18.4623  18.6758  18.9658  19.1481  19.2926  19.4654
    19.4953  19.9951  20.2819  20.3763  21.1293  21.1898  21.4482  21.6013
    22.4127  22.5696  23.1507  23.1916  23.3627  23.4328  23.5519  23.6027
    24.1334  24.2054  24.2162  24.5184  24.9808  24.9909  25.5730  25.8831
    26.2046

          k = 0.1250 0.1768 0.0000 ( 17796 PWs)   bands (ev):

     1.5176   1.8651   2.3751   2.6411   3.3177   3.4466   3.8220   4.2247
     4.4020   4.9401   5.5234   6.0557   6.1113   6.2185   6.2506   7.1229
     7.9231   7.9759   8.6442   8.7920   8.9230   9.2943   9.9228   9.9906
    10.4224  10.4765  10.5518  10.5876  10.6405  10.6566  10.7882  10.9378
    11.0377  11.0947  11.1377  11.1732  11.2128  11.2334  11.2983  11.4095
    11.4479  11.5186  11.5203  11.5965  11.6036  11.6861  11.7296  11.7467
    11.7956  11.8111  11.9122  11.9653  11.9655  11.9747  12.0629  12.1284
    12.1961  12.2365  12.3525  12.3757  12.3771  12.4279  12.4798  12.6150
    12.6211  12.6784  12.7988  12.8306  12.8400  12.9345  12.9499  12.9836
    13.0109  13.0832  13.1408  13.1734  13.1972  13.2877  13.3441  13.4271
    13.4868  13.5500  13.5513  13.5912  13.6225  13.6415  13.7192  13.7324
    13.7911  13.8491  13.8957  13.9115  14.0583  14.0629  14.1101  14.1299
    14.2277  14.2279  14.3358  14.3557  14.3623  14.4456  14.5550  14.5817
    14.6013  14.6485  14.6845  14.7149  14.7584  14.7815  14.8511  14.8781
    14.9327  14.9463  14.9718  15.0246  15.0819  15.1300  15.1732  15.2209
    15.2416  15.3076  15.4147  15.4883  15.5228  15.5315  15.5684  15.5941
    15.6105  15.6739  15.7669  15.7791  15.8198  15.8870  15.8898  15.9421
    15.9725  15.9896  16.0437  16.0867  16.2141  16.2292  16.3186  16.3295
    16.4706  16.4839  16.6206  16.7814  16.8682  17.1273  17.6035  17.8468
    17.9048  18.1683  18.6127  18.7078  19.2671  19.4434  19.7447  20.1131
    20.2337  20.2654  20.7271  21.0992  21.2947  21.3507  21.4483  21.7382
    22.1391  22.7257  22.7404  23.0142  23.3715  23.3834  23.3874  23.6611
    24.1076  24.1844  24.2486  24.2514  24.7298  25.3005  25.5514  25.8926
    25.9666

          k = 0.1250 0.2357 0.0000 ( 17785 PWs)   bands (ev):

     1.5187   1.7738   2.5106   2.8153   3.2503   3.5238   3.6556   4.0514
     4.4233   4.8688   5.7465   6.1357   6.1655   6.2521   6.2534   7.3704
     7.6783   7.9546   8.6521   8.8701   9.0109   9.2714  10.0507  10.1802
    10.2778  10.3306  10.5486  10.6074  10.6965  10.7871  10.8697  10.8892
    11.0060  11.1347  11.1363  11.2195  11.2520  11.2838  11.3483  11.4569
    11.4996  11.5311  11.5770  11.6258  11.6670  11.7361  11.7921  11.8613
    11.8619  11.9053  11.9742  12.0198  12.0546  12.0706  12.0730  12.1608
    12.1633  12.1960  12.2908  12.3384  12.3720  12.4292  12.4602  12.5164
    12.5214  12.6093  12.6781  12.7572  12.7976  12.8440  12.9025  12.9715
    12.9845  13.0495  13.0883  13.1129  13.1926  13.3077  13.3170  13.3895
    13.4944  13.5096  13.5768  13.5899  13.6134  13.6817  13.7220  13.7442
    13.7765  13.8211  13.8519  13.9435  13.9665  14.0254  14.0755  14.1498
    14.1643  14.2194  14.2516  14.3000  14.3443  14.4028  14.4501  14.4654
    14.5505  14.5727  14.6516  14.6530  14.6870  14.7156  14.7555  14.7602
    14.8701  14.9171  14.9605  14.9848  15.0114  15.0415  15.0700  15.0766
    15.2508  15.2726  15.3076  15.3126  15.4034  15.4706  15.5064  15.5364
    15.5833  15.5884  15.6272  15.6306  15.7081  15.7664  15.8223  15.8843
    15.9392  15.9415  15.9743  16.0658  16.1200  16.1495  16.2515  16.2781
    16.3720  16.4407  16.6168  16.7716  16.8569  17.2375  17.5785  17.6848
    17.8993  17.9678  18.9555  19.1473  19.6084  19.8080  20.1106  20.2443
    20.6100  20.9164  20.9918  21.2230  21.5005  21.5108  21.8774  21.9622
    22.0334  22.2984  22.7150  22.7332  23.3766  23.5554  23.6158  23.7618
    24.1346  24.2478  24.2573  24.4025  24.4723  24.8377  25.5726  25.5940
    25.9900

          k = 0.1250 0.2946 0.0000 ( 17801 PWs)   bands (ev):

     1.5470   1.6827   2.6699   3.0187   3.0529   3.4663   3.6941   3.9173
     4.4903   4.7511   5.9867   6.1339   6.2311   6.2677   6.3343   7.0093
     8.0235   8.0338   8.3988   8.8208   9.2681   9.4104   9.9730  10.0379
    10.2301  10.3977  10.5336  10.6307  10.7773  10.8250  10.8468  10.9436
    11.0381  11.0979  11.2213  11.2964  11.3191  11.3538  11.4223  11.4759
    11.5221  11.5223  11.6269  11.6461  11.7455  11.7548  11.8594  11.8931
    11.9261  11.9516  11.9761  11.9984  12.0136  12.0823  12.0924  12.1761
    12.2103  12.2643  12.2690  12.2975  12.3785  12.4053  12.4305  12.4947
    12.5302  12.6099  12.6477  12.7203  12.7306  12.7788  12.8853  12.9290
    12.9558  13.0311  13.0805  13.1355  13.2227  13.2633  13.3393  13.3496
    13.4478  13.4955  13.4982  13.6015  13.6146  13.6494  13.7127  13.7364
    13.7913  13.8023  13.8448  13.8469  13.9517  13.9561  14.0256  14.0593
    14.1004  14.1248  14.1933  14.2424  14.2999  14.3500  14.3634  14.4154
    14.5390  14.5896  14.5911  14.6222  14.7031  14.7094  14.7115  14.7850
    14.7944  14.8640  14.8824  14.8983  14.9293  14.9627  15.0619  15.0744
    15.0956  15.1183  15.1385  15.2329  15.2425  15.3637  15.3941  15.4532
    15.4805  15.5786  15.6198  15.6396  15.6902  15.7793  15.8241  15.9140
    15.9628  15.9669  16.0053  16.0480  16.0953  16.1019  16.1500  16.2105
    16.3929  16.4196  16.6157  16.6824  17.0039  17.3731  17.4409  17.6211
    17.7162  17.8352  19.2169  19.7870  19.9605  20.1293  20.2113  20.5363
    20.6851  20.9859  21.0896  21.3983  21.6163  21.7124  21.9200  22.0330
    22.1156  22.2885  22.4988  22.7232  23.7013  23.7585  23.8439  23.8567
    23.9560  24.0279  24.4251  24.4931  24.6248  24.6959  25.2083  25.3763
    25.6574

          k = 0.1250-0.3536 0.0000 ( 17808 PWs)   bands (ev):

     1.6036   1.6036   2.8504   2.8504   3.2491   3.2491   3.8145   3.8145
     4.6101   4.6101   6.1164   6.1164   6.2472   6.2472   6.6106   6.6106
     8.1670   8.1670   8.4752   8.4752   9.6121   9.6121   9.7157   9.7157
    10.4220  10.4220  10.5703  10.5703  10.8001  10.8001  10.8879  10.8879
    11.0926  11.0926  11.2846  11.2846  11.3938  11.3938  11.4782  11.4782
    11.5181  11.5181  11.6469  11.6469  11.7929  11.7929  11.8561  11.8561
    11.9216  11.9216  11.9601  11.9601  12.0695  12.0695  12.1413  12.1413
    12.2246  12.2246  12.3020  12.3020  12.3696  12.3696  12.4789  12.4789
    12.5980  12.5980  12.6808  12.6808  12.7361  12.7361  12.8974  12.8974
    13.0197  13.0197  13.0697  13.0697  13.2111  13.2111  13.4078  13.4078
    13.4864  13.4864  13.5459  13.5459  13.6232  13.6232  13.6839  13.6839
    13.7461  13.7461  13.8357  13.8357  13.8875  13.8875  13.9980  13.9980
    14.0827  14.0827  14.1663  14.1663  14.2997  14.2997  14.4833  14.4833
    14.5287  14.5287  14.6410  14.6410  14.6888  14.6888  14.7647  14.7647
    14.7966  14.7967  14.8178  14.8178  14.9326  14.9326  14.9677  14.9677
    15.0480  15.0480  15.2078  15.2078  15.2741  15.2741  15.3905  15.3905
    15.4980  15.4980  15.6241  15.6241  15.7401  15.7401  15.9271  15.9271
    15.9650  15.9650  16.0264  16.0264  16.0757  16.0757  16.1490  16.1490
    16.4098  16.4098  16.6313  16.6313  17.2058  17.2058  17.5355  17.5355
    17.7123  17.7123  19.5061  19.5061  20.3111  20.3111  20.6267  20.6267
    20.8907  20.8907  21.1529  21.1529  21.4933  21.4933  21.9695  21.9695
    22.2054  22.2054  23.1064  23.1064  23.2554  23.2554  23.9365  23.9365
    24.0793  24.0793  24.6182  24.6182  24.9222  24.9224  25.1905  25.1907
    25.3405

          k = 0.2500 0.0000 0.0000 ( 17793 PWs)   bands (ev):

     1.5825   2.0887   2.0887   2.7566   3.0402   3.7485   4.1380   4.1386
     4.4081   5.5816   5.6985   5.6993   5.8958   6.0827   6.4700   6.4704
     8.0046   8.5709   8.7740   8.7741   8.8603   9.2331   9.8477  10.0734
    10.1586  10.3114  10.5841  10.5873  10.5950  10.6818  10.6942  10.9026
    10.9893  11.0603  11.1335  11.1396  11.2306  11.2457  11.2490  11.3518
    11.3990  11.4062  11.4205  11.4832  11.4847  11.5537  11.6429  11.6441
    11.7986  11.8861  11.8884  11.8951  11.9671  12.0713  12.0774  12.1749
    12.3929  12.4937  12.5130  12.5287  12.5959  12.7212  12.7590  12.8555
    13.0007  13.0107  13.0401  13.0497  13.1390  13.1411  13.1478  13.1777
    13.2361  13.2714  13.3220  13.3771  13.3993  13.4260  13.4389  13.4829
    13.4894  13.4957  13.5526  13.6344  13.6548  13.6614  13.6666  13.7114
    13.7951  13.8358  13.8593  13.9223  13.9780  13.9854  14.0116  14.0363
    14.1545  14.2006  14.2122  14.2718  14.2844  14.3865  14.4381  14.4420
    14.5210  14.5536  14.5630  14.5832  14.7260  14.7710  14.7822  14.8236
    14.9279  14.9302  15.0142  15.0554  15.0689  15.1388  15.1681  15.2544
    15.2983  15.3079  15.3179  15.4946  15.5824  15.5840  15.6264  15.7428
    15.7674  15.7997  15.8521  15.8623  15.8674  15.8705  15.9600  15.9966
    16.0151  16.0299  16.1068  16.1411  16.2264  16.5173  16.5193  16.5611
    16.7050  16.8601  17.1325  17.2249  17.2292  17.3598  17.8032  17.8200
    17.8938  17.9933  18.2449  18.2528  18.8394  18.8895  18.9504  19.1811
    19.2741  19.3614  19.5937  19.7622  20.4511  20.5014  20.9717  20.9956
    21.7118  22.1066  22.1169  22.4769  22.9108  22.9155  23.0274  23.0446
    23.3328  23.3425  23.3776  23.7157  23.7249  23.9172  24.4200  24.4373
    25.2984

          k = 0.2500 0.0589 0.0000 ( 17783 PWs)   bands (ev):

     1.5817   2.0169   2.1682   2.7452   3.1085   3.7075   3.9970   4.2553
     4.4073   5.4335   5.6158   5.9184   5.9304   6.0956   6.3339   6.6738
     7.9961   8.5084   8.6028   8.8964   9.0031   9.2662   9.8848  10.1017
    10.1947  10.3474  10.5348  10.5937  10.6096  10.6645  10.7102  10.8939
    10.9404  11.1177  11.1241  11.1625  11.1773  11.2668  11.3200  11.3875
    11.3899  11.4239  11.4568  11.4917  11.5165  11.5767  11.6219  11.6818
    11.8007  11.8074  11.8665  11.9699  11.9704  12.0384  12.1273  12.1785
    12.3430  12.4514  12.4965  12.5458  12.5964  12.6429  12.8096  12.8478
    12.9748  12.9903  13.0223  13.0383  13.0822  13.1086  13.1383  13.1739
    13.2165  13.2716  13.3520  13.3816  13.3911  13.4007  13.4481  13.4604
    13.4901  13.5200  13.5601  13.5661  13.6207  13.6521  13.6736  13.7550
    13.7596  13.8259  13.8560  13.8848  13.9283  13.9383  14.0158  14.0237
    14.1230  14.1865  14.2313  14.2687  14.3125  14.3294  14.4297  14.4538
    14.4992  14.5202  14.5366  14.5605  14.6857  14.7662  14.8038  14.8366
    14.9033  14.9130  14.9854  15.0606  15.1006  15.1292  15.2137  15.2727
    15.2795  15.3259  15.3935  15.5099  15.5313  15.5484  15.6385  15.7191
    15.7457  15.7495  15.8128  15.8166  15.8598  15.8968  15.9468  15.9798
    16.0450  16.0468  16.0699  16.1205  16.2757  16.2913  16.5422  16.7224
    16.7357  16.8816  16.9268  17.0799  17.1891  17.3150  17.3991  17.8200
    17.8592  18.0457  18.2221  18.5023  18.7167  18.9032  18.9205  19.2285
    19.6558  19.7636  19.8231  19.9072  20.1289  20.2684  20.8842  21.2951
    21.7284  21.9638  22.2080  22.3211  22.4824  22.5812  22.8110  23.0526
    23.4246  23.7724  23.8978  23.9600  24.0265  24.2180  24.2962  24.7017
    25.2292

          k = 0.2500 0.1179 0.0000 ( 17763 PWs)   bands (ev):

     1.5800   1.9462   2.2621   2.7544   3.2639   3.5945   3.8544   4.3186
     4.4061   5.1741   5.7157   5.9800   6.0913   6.1325   6.2522   6.9576
     7.9778   8.2225   8.6929   9.0021   9.1569   9.3608   9.9927  10.1732
    10.2968  10.4510  10.4764  10.5134  10.5612  10.6510  10.7114  10.8453
    11.0174  11.0707  11.1508  11.2115  11.2131  11.3422  11.3531  11.4156
    11.4680  11.4977  11.5270  11.5516  11.5713  11.6077  11.6472  11.7007
    11.7839  11.8345  11.8410  11.9767  12.0176  12.0487  12.1682  12.1740
    12.2691  12.3387  12.4512  12.5549  12.5893  12.5986  12.7968  12.8192
    12.9054  12.9260  12.9764  12.9932  13.0257  13.0604  13.0898  13.1526
    13.1860  13.2744  13.3180  13.3371  13.3569  13.3819  13.4372  13.4446
    13.4698  13.5222  13.5487  13.5823  13.5942  13.6294  13.6740  13.7090
    13.7176  13.7443  13.7955  13.8658  13.8766  13.8968  13.9490  13.9806
    14.0425  14.1166  14.2069  14.2386  14.2789  14.2939  14.4018  14.4102
    14.4331  14.4610  14.5376  14.5692  14.6360  14.7415  14.7449  14.7962
    14.8480  14.9562  15.0193  15.0224  15.1022  15.1520  15.2456  15.2535
    15.2928  15.3391  15.4677  15.4982  15.5191  15.5604  15.5753  15.6461
    15.6919  15.7292  15.7393  15.7669  15.8161  15.8374  15.8697  15.9334
    15.9942  16.0374  16.0836  16.0954  16.1121  16.3048  16.3711  16.5141
    16.5635  16.6918  16.8913  17.0292  17.2898  17.3854  17.4525  17.5387
    17.7260  17.7986  18.1821  18.3469  19.0754  19.2187  19.3554  19.4305
    19.6961  19.8399  19.8856  20.0001  20.3081  20.6120  20.9361  21.3427
    21.5016  21.7771  21.8318  22.1368  22.4984  22.6263  22.8403  23.2337
    23.5602  23.8301  23.9638  24.0893  24.8015  24.9160  25.1232  25.3699
    25.4004

          k = 0.2500 0.1768 0.0000 ( 17751 PWs)   bands (ev):

     1.5810   1.8726   2.3753   2.8193   3.4195   3.4640   3.7212   4.3022
     4.4087   4.9532   5.8688   6.0659   6.1463   6.1940   6.2512   7.3047
     7.9218   7.9678   8.8185   9.1556   9.1690   9.5012  10.1491  10.2135
    10.3322  10.4159  10.4312  10.5383  10.5785  10.6135  10.7058  10.9310
    11.0352  11.1322  11.1720  11.2470  11.3098  11.3728  11.4356  11.4602
    11.5152  11.5682  11.6077  11.6323  11.6713  11.6819  11.7270  11.7647
    11.7879  11.8536  11.9242  12.0044  12.0457  12.0886  12.1550  12.1608
    12.2365  12.3056  12.3870  12.5328  12.5654  12.5737  12.7212  12.7545
    12.8148  12.8195  12.9218  12.9301  12.9621  12.9734  13.0381  13.0933
    13.1492  13.2068  13.2469  13.2687  13.2945  13.3540  13.3952  13.4233
    13.4365  13.4614  13.5152  13.5360  13.5651  13.6016  13.6337  13.6660
    13.6850  13.7248  13.7844  13.8147  13.8311  13.8394  13.8863  13.9659
    13.9837  14.0455  14.1124  14.1404  14.2044  14.2077  14.3220  14.3446
    14.4399  14.4657  14.5415  14.5614  14.6000  14.6554  14.7235  14.7559
    14.8033  14.9464  14.9593  15.0388  15.0524  15.1339  15.1551  15.2451
    15.2866  15.3953  15.4012  15.4456  15.4522  15.5046  15.5379  15.5824
    15.6382  15.6611  15.7028  15.7092  15.7547  15.7937  15.8023  15.8322
    15.8548  15.9311  15.9547  15.9942  16.0874  16.1246  16.2278  16.3979
    16.5783  16.6191  16.7800  16.9931  17.1548  17.2211  17.3940  17.6820
    17.8972  17.9516  18.3807  18.3842  19.0310  19.0833  19.3056  19.5431
    19.7398  20.1351  20.2764  20.3352  20.4793  20.6802  21.0395  21.2136
    21.4384  21.8567  21.9918  22.1860  22.5234  22.7399  23.0065  23.3207
    23.5301  23.7526  24.3047  24.7224  25.3566  25.4372  25.5410  25.8024
    25.9092

          k = 0.2500 0.2357 0.0000 ( 17768 PWs)   bands (ev):

     1.5914   1.7968   2.5106   2.9390   3.2399   3.5918   3.6434   4.2082
     4.4242   4.7845   6.0270   6.1402   6.1552   6.2924   6.3174   7.5831
     7.6977   7.9886   8.9148   8.9532   9.3815   9.6574  10.1113  10.2234
    10.3387  10.3836  10.4702  10.5360  10.6954  10.7115  10.8048  11.0242
    11.0540  11.1632  11.2579  11.2627  11.3858  11.4056  11.4852  11.5280
    11.5674  11.5732  11.6483  11.6798  11.7438  11.7647  11.8339  11.8682
    11.8894  11.9635  11.9769  12.0974  12.1071  12.1218  12.1592  12.1874
    12.2362  12.2905  12.4049  12.4786  12.5139  12.5491  12.6379  12.6519
    12.7024  12.7073  12.8271  12.8484  12.8664  12.9052  12.9651  13.0451
    13.0752  13.0957  13.1332  13.1678  13.1955  13.2871  13.3378  13.3379
    13.3924  13.4369  13.4422  13.4813  13.5313  13.5641  13.5674  13.6422
    13.6583  13.7028  13.7341  13.7464  13.7942  13.8058  13.8887  13.9150
    13.9660  13.9948  14.0107  14.0948  14.1531  14.2265  14.2946  14.3092
    14.4024  14.4856  14.4865  14.5758  14.5909  14.6146  14.6552  14.7750
    14.8173  14.8651  14.8932  14.9198  14.9803  15.0275  15.0953  15.1455
    15.1963  15.2365  15.2875  15.3198  15.3964  15.4203  15.4321  15.4699
    15.5103  15.5632  15.6227  15.7199  15.7417  15.7458  15.7700  15.8424
    15.8447  15.8977  15.9495  15.9685  16.0594  16.1193  16.1383  16.3416
    16.3929  16.5648  16.6940  16.8684  17.0492  17.4107  17.5198  17.7968
    17.9378  18.2237  18.2258  18.6351  18.6355  19.0773  19.5343  19.7440
    19.7976  20.0015  20.2313  20.5150  20.6296  20.7168  21.1174  21.6850
    21.8563  21.9692  22.2262  22.2819  22.5573  22.7973  22.9235  23.7176
    23.8205  23.8903  24.5957  25.0393  25.4218  25.5897  25.8490  25.9313
    26.0094

          k = 0.2500 0.2946 0.0000 ( 17790 PWs)   bands (ev):

     1.6176   1.7244   2.6683   3.0301   3.1120   3.4482   3.8104   4.0799
     4.4664   4.6526   6.1113   6.1390   6.2302   6.3055   6.5662   7.2531
     8.0234   8.0573   8.7016   8.8615   9.6210   9.8229  10.0992  10.1386
    10.2090  10.3463  10.5995  10.6703  10.7002  10.8784  10.9750  11.0162
    11.1061  11.1525  11.2301  11.3701  11.3709  11.4639  11.5163  11.5493
    11.5978  11.6086  11.6500  11.7281  11.8024  11.8436  11.9062  11.9473
    11.9532  12.0135  12.0755  12.1285  12.1694  12.2029  12.2141  12.3026
    12.3032  12.3222  12.3722  12.4270  12.4653  12.5202  12.5702  12.5842
    12.6458  12.6598  12.7018  12.7337  12.7789  12.8365  12.9151  12.9702
    12.9743  13.0215  13.0335  13.1180  13.1182  13.2238  13.2657  13.3072
    13.3084  13.3966  13.4049  13.4297  13.4481  13.4871  13.5028  13.5466
    13.5744  13.6318  13.6959  13.7113  13.7504  13.8067  13.8406  13.8788
    13.9757  14.0113  14.0482  14.1729  14.1783  14.2460  14.3242  14.3550
    14.3657  14.5004  14.5367  14.5823  14.5843  14.6078  14.6469  14.6668
    14.7552  14.7673  14.7864  14.8055  14.8588  14.9214  14.9929  15.0160
    15.0349  15.1430  15.1534  15.1973  15.2352  15.2957  15.4411  15.4519
    15.4703  15.5449  15.6384  15.7302  15.7605  15.7661  15.8269  15.8340
    15.8626  15.9215  15.9571  16.0069  16.0193  16.0936  16.1479  16.2452
    16.3650  16.4736  16.5058  16.6634  17.3529  17.6011  17.6644  17.8425
    17.9348  18.0376  18.2570  18.6136  18.7219  18.9418  19.4504  19.6849
    19.7512  20.1032  20.2209  20.7696  20.9440  21.0362  21.0396  21.8397
    21.9470  22.1177  22.5824  22.5965  22.7197  22.7842  23.0504  23.2258
    24.6284  24.7569  24.7773  24.8992  25.0378  25.2692  25.6926  25.7679
    25.9879

          k = 0.2500-0.3536 0.0000 ( 17788 PWs)   bands (ev):

     1.6627   1.6627   2.8456   2.8456   3.2813   3.2813   3.9504   3.9504
     4.5443   4.5443   6.1363   6.1363   6.2836   6.2836   6.8982   6.8982
     8.1437   8.1437   8.6817   8.6817   9.8730   9.8730  10.0264  10.0264
    10.2441  10.2441  10.6990  10.6990  10.8305  10.8305  11.0113  11.0113
    11.1735  11.1735  11.2611  11.2611  11.4189  11.4189  11.5817  11.5817
    11.6149  11.6149  11.6927  11.6927  11.8839  11.8839  11.9246  11.9246
    12.0293  12.0293  12.0951  12.0951  12.1766  12.1766  12.2967  12.2967
    12.3349  12.3349  12.4370  12.4370  12.4788  12.4788  12.5793  12.5793
    12.6404  12.6404  12.6732  12.6732  12.7560  12.7560  12.9154  12.9154
    12.9397  12.9397  13.0422  13.0422  13.1691  13.1691  13.2484  13.2484
    13.3076  13.3076  13.3984  13.3984  13.4439  13.4439  13.5021  13.5021
    13.5700  13.5700  13.6070  13.6070  13.8213  13.8213  13.9004  13.9004
    13.9616  13.9616  14.0817  14.0817  14.3235  14.3235  14.4026  14.4026
    14.4521  14.4521  14.5308  14.5308  14.5992  14.5992  14.6349  14.6349
    14.6620  14.6620  14.7217  14.7217  14.8043  14.8043  14.9749  14.9749
    15.0563  15.0563  15.1626  15.1626  15.2198  15.2198  15.4492  15.4492
    15.4854  15.4854  15.6968  15.6968  15.7652  15.7652  15.8449  15.8449
    15.9266  15.9266  15.9541  15.9541  16.0628  16.0628  16.2233  16.2233
    16.3410  16.3410  16.5358  16.5358  17.6457  17.6457  17.7331  17.7331
    17.9243  17.9244  18.3592  18.3592  19.0255  19.0255  19.2949  19.2949
    19.9812  19.9812  20.4300  20.4300  21.3663  21.3663  21.4606  21.4606
    22.1022  22.1022  22.4143  22.4143  22.7175  22.7175  23.8061  23.8061
    24.0145  24.0145  25.3419  25.3419  25.4884  25.4884  25.6643  25.6645
    25.8247

          k = 0.3750 0.0000 0.0000 ( 17794 PWs)   bands (ev):

     1.6053   2.0815   2.0815   3.1757   3.1782   3.7199   4.0075   4.0080
     4.3469   5.7373   5.9515   5.9524   6.0111   6.0852   6.5164   6.5167
     8.0781   8.5295   8.5296   8.6880   9.3829   9.6316   9.9656  10.1592
    10.2445  10.4247  10.5068  10.5183  10.5338  10.5688  10.7615  10.7832
    10.7971  10.8535  11.0422  11.1645  11.1681  11.2289  11.2368  11.3647
    11.4369  11.5321  11.5894  11.7288  11.7388  11.7694  11.8606  11.8760
    11.9602  11.9976  12.0545  12.1026  12.1223  12.2347  12.2505  12.2914
    12.3311  12.4210  12.4993  12.5668  12.6559  12.6948  12.7159  12.8975
    12.9399  12.9799  12.9895  13.1026  13.1080  13.1303  13.1698  13.2211
    13.2880  13.2968  13.3051  13.3400  13.3645  13.4151  13.4604  13.4639
    13.4641  13.4872  13.5215  13.5460  13.5577  13.5738  13.6787  13.6910
    13.7058  13.8099  13.8352  13.8512  13.8603  13.8656  13.9335  13.9632
    13.9677  14.0505  14.1485  14.1595  14.2140  14.2972  14.3576  14.4177
    14.5516  14.5624  14.6889  14.6982  14.7356  14.7473  14.7825  14.7968
    14.9817  14.9910  15.0347  15.0571  15.1148  15.1715  15.2724  15.2963
    15.3085  15.3126  15.4151  15.4919  15.5824  15.6129  15.6366  15.6506
    15.6711  15.7246  15.7274  15.8047  15.8257  15.8387  15.8685  15.8783
    15.9433  15.9719  16.0245  16.0268  16.1082  16.1192  16.2872  16.5383
    16.5735  16.6939  16.8730  17.0013  17.1290  17.2205  17.2270  17.3945
    17.8504  17.8726  18.0320  18.0638  18.4541  18.4662  18.5729  19.4496
    19.5187  19.8268  19.8977  19.9409  20.5352  20.5368  20.8516  21.3627
    21.3690  21.4642  21.4836  21.8287  21.8423  21.9980  22.0030  22.1440
    22.1788  22.2878  22.7913  22.8314  23.5614  24.0216  24.1686  24.1987
    24.7711

          k = 0.3750 0.0589 0.0000 ( 17796 PWs)   bands (ev):

     1.6102   2.0129   2.1600   3.0938   3.2900   3.6809   3.9004   4.1011
     4.3509   5.7636   5.7697   6.0420   6.0599   6.1074   6.3246   6.7885
     8.0639   8.3089   8.7176   8.7794   9.4199   9.6624   9.9986  10.1937
    10.2829  10.4436  10.4706  10.4734  10.5609  10.6154  10.7177  10.8183
    10.8465  10.8980  11.0761  11.1689  11.2062  11.2366  11.2741  11.3705
    11.4057  11.4984  11.5657  11.6954  11.7404  11.8159  11.8469  11.8858
    11.9698  12.0056  12.0541  12.1023  12.1533  12.2258  12.2579  12.3003
    12.3014  12.4286  12.5203  12.5798  12.6653  12.6936  12.7178  12.8914
    12.9284  12.9543  12.9802  13.0678  13.1002  13.1305  13.1744  13.2186
    13.2635  13.2690  13.3029  13.3214  13.3452  13.3764  13.4151  13.4348
    13.4358  13.4815  13.4901  13.5512  13.5729  13.5745  13.6695  13.6710
    13.7278  13.7282  13.8071  13.8279  13.8514  13.9053  13.9415  13.9831
    13.9971  14.0495  14.1383  14.1694  14.1817  14.2752  14.3376  14.3536
    14.5514  14.5663  14.6468  14.6688  14.7391  14.7437  14.7966  14.8093
    14.8660  14.9747  15.0229  15.0339  15.0797  15.1718  15.1771  15.2339
    15.2616  15.2858  15.4236  15.4972  15.5674  15.5736  15.6110  15.6312
    15.6689  15.6904  15.7424  15.7759  15.8007  15.8368  15.8609  15.9005
    15.9402  16.0038  16.0053  16.0598  16.1039  16.1299  16.2809  16.3734
    16.6742  16.7888  16.8184  16.9656  17.0479  17.2167  17.2797  17.4545
    17.4662  17.8224  17.9078  18.1174  18.5797  18.7010  18.8400  19.0935
    19.1983  19.8020  19.9710  19.9806  20.6423  20.8767  20.8784  21.1225
    21.1595  21.2673  21.3703  21.5014  21.8791  22.1493  22.2619  22.3837
    22.6341  22.8107  23.1095  23.4190  23.5854  23.8142  24.0400  24.1720
    24.7143

          k = 0.3750 0.1179 0.0000 ( 17793 PWs)   bands (ev):

     1.6236   1.9493   2.2534   3.0526   3.4170   3.5778   3.7932   4.1633
     4.3623   5.4894   5.8575   6.0992   6.1248   6.2029   6.2462   7.0776
     8.0284   8.1209   8.8052   9.0428   9.5276   9.7402  10.0854  10.2713
    10.3397  10.4009  10.4425  10.5618  10.5715  10.6674  10.7217  10.8766
    10.9087  11.0053  11.1127  11.1718  11.2168  11.2844  11.3112  11.3771
    11.3988  11.5043  11.5977  11.7264  11.7290  11.8347  11.8471  11.9124
    11.9722  11.9897  12.0610  12.1360  12.1922  12.2025  12.2633  12.2777
    12.3536  12.4647  12.5550  12.5950  12.6732  12.6780  12.7197  12.7752
    12.9025  12.9426  12.9777  13.0423  13.0602  13.1063  13.1392  13.1876
    13.2061  13.2184  13.2264  13.2657  13.3112  13.3341  13.3692  13.3731
    13.3850  13.4687  13.4741  13.5373  13.5486  13.5843  13.5850  13.6420
    13.6993  13.7244  13.7543  13.7770  13.8066  13.9089  13.9525  13.9850
    14.0065  14.0600  14.0665  14.1596  14.1871  14.2200  14.2631  14.3364
    14.4770  14.4973  14.5491  14.5649  14.6424  14.6534  14.7706  14.7789
    14.8620  14.8637  14.9345  14.9664  15.0292  15.0967  15.1250  15.1738
    15.2017  15.2223  15.3733  15.4272  15.4397  15.4897  15.5614  15.5785
    15.6562  15.6667  15.7291  15.7315  15.7729  15.8121  15.8129  15.8450
    15.8819  15.9545  15.9854  16.0353  16.0960  16.1585  16.2754  16.4742
    16.5364  16.6498  16.7012  16.9068  17.0137  17.1856  17.4334  17.4962
    17.6189  17.7472  17.9151  18.0573  18.3137  18.5609  18.9011  19.0379
    19.1404  19.6249  20.0396  20.0904  20.5005  20.7332  20.7908  20.9649
    21.0922  21.2344  21.7942  21.8978  22.1538  22.1667  22.7180  23.1048
    23.2475  23.3665  23.6571  23.8849  23.9422  24.0928  24.0946  24.3669
    24.7338

          k = 0.3750 0.1768 0.0000 ( 17788 PWs)   bands (ev):

     1.6426   1.8881   2.3660   3.0614   3.3973   3.5835   3.6922   4.1816
     4.3810   5.1905   5.9750   6.1501   6.1544   6.2500   6.3897   7.3439
     7.9672   7.9898   8.9443   9.2847   9.6947   9.7785  10.1468  10.2936
    10.2986  10.4392  10.4609  10.5753  10.6728  10.7173  10.7888  10.8833
    11.0355  11.0914  11.1460  11.2465  11.2827  11.3147  11.4362  11.4462
    11.5165  11.5478  11.6606  11.7174  11.7733  11.8205  11.8798  11.8831
    11.9507  12.0280  12.0987  12.1414  12.2091  12.2367  12.2510  12.3333
    12.4151  12.5341  12.5493  12.5898  12.6307  12.6703  12.7060  12.7193
    12.8207  12.8645  12.9634  12.9743  13.0102  13.0367  13.0708  13.0823
    13.1373  13.1555  13.1677  13.2215  13.2598  13.2767  13.3034  13.3490
    13.3897  13.3982  13.4659  13.4752  13.5360  13.5476  13.5754  13.6234
    13.6407  13.6777  13.7095  13.7318  13.8236  13.8493  13.8813  13.9299
    13.9669  14.0329  14.0423  14.0971  14.1688  14.2071  14.2192  14.2544
    14.2917  14.3457  14.4351  14.4957  14.5296  14.6075  14.6915  14.6919
    14.7369  14.7502  14.8532  14.8645  14.9385  14.9591  15.0929  15.1033
    15.1605  15.2440  15.2460  15.2878  15.3325  15.3811  15.4190  15.5171
    15.5501  15.5867  15.6311  15.6610  15.6709  15.7376  15.7675  15.7753
    15.8641  15.9475  15.9676  15.9941  15.9985  16.1730  16.3436  16.4531
    16.4805  16.5917  16.7095  16.7907  17.1730  17.4589  17.4944  17.5079
    17.6600  17.7704  17.9104  17.9356  18.1782  18.3003  18.5576  18.8229
    19.4942  19.6385  19.7488  20.1827  20.2483  20.4284  20.6711  21.1277
    21.6131  21.7531  22.0463  22.2005  22.2032  22.8388  23.3019  23.4749
    23.7744  23.7767  23.8517  24.1826  24.3491  24.4343  24.8343  25.0667
    25.0787

          k = 0.3750 0.2357 0.0000 ( 17756 PWs)   bands (ev):

     1.6658   1.8296   2.5001   3.1139   3.2275   3.5925   3.7221   4.1523
     4.4112   4.9185   6.0875   6.1706   6.1985   6.2789   6.6447   7.5098
     7.8889   7.9706   9.1117   9.4288   9.6523   9.8802   9.9054  10.2680
    10.4267  10.4526  10.6263  10.6771  10.7636  10.7921  10.9193  11.0788
    11.1454  11.1726  11.2087  11.2927  11.3266  11.4631  11.4818  11.5339
    11.5852  11.6710  11.6968  11.7683  11.7737  11.8051  11.8364  11.8431
    12.0655  12.0672  12.1133  12.1681  12.2609  12.3024  12.3143  12.3819
    12.4457  12.5037  12.5357  12.5734  12.6274  12.6631  12.6637  12.7150
    12.7555  12.7620  12.8415  12.8479  12.9313  12.9568  12.9848  13.0237
    13.0706  13.0806  13.1394  13.1698  13.1816  13.2205  13.2798  13.3281
    13.3470  13.3590  13.3869  13.4240  13.4821  13.4893  13.5596  13.5809
    13.6035  13.6436  13.6737  13.7475  13.7771  13.7989  13.8228  13.8478
    13.8955  13.9154  13.9665  13.9711  14.0515  14.1444  14.2067  14.2281
    14.2434  14.3125  14.3931  14.4343  14.4664  14.4926  14.5330  14.5893
    14.6477  14.7162  14.7209  14.7877  14.8265  14.8798  14.9116  15.0087
    15.0515  15.0839  15.1556  15.1786  15.2150  15.3095  15.3676  15.3755
    15.4741  15.4919  15.5463  15.5803  15.6422  15.6425  15.7138  15.7609
    15.8350  15.8844  15.9098  15.9696  16.0955  16.1467  16.3837  16.4755
    16.5052  16.6614  16.7720  16.8774  17.3484  17.3669  17.3930  17.4922
    17.5480  17.8586  17.9497  18.0293  18.1849  18.2112  18.4295  18.6189
    19.2662  19.4164  19.7185  20.0040  20.2351  20.4330  21.1796  21.3870
    21.5875  21.8191  22.2586  22.6714  22.8500  23.2247  23.3938  23.9007
    23.9443  24.2970  24.3086  24.4719  25.0464  25.1868  25.2253  25.4765
    25.6198

          k = 0.3750 0.2946 0.0000 ( 17761 PWs)   bands (ev):

     1.6943   1.7762   2.6556   3.0146   3.2381   3.4832   3.8580   4.0812
     4.4636   4.7035   6.1610   6.1846   6.2457   6.2946   6.9386   7.4407
     7.9564   7.9838   9.2162   9.3134   9.5544   9.7063  10.1203  10.3930
    10.4572  10.6054  10.6618  10.7528  10.7537  11.0162  11.0339  11.1353
    11.2100  11.2568  11.3146  11.3686  11.4236  11.4537  11.5416  11.6107
    11.6448  11.6610  11.7260  11.7489  11.8082  11.8217  11.8377  11.9043
    12.0337  12.0926  12.1551  12.2791  12.2982  12.3670  12.3943  12.4173
    12.4288  12.4481  12.5263  12.5672  12.6122  12.6138  12.6839  12.6917
    12.7172  12.7531  12.7726  12.7762  12.8548  12.9048  12.9189  13.0059
    13.0106  13.0483  13.0852  13.0907  13.1511  13.1773  13.2011  13.2576
    13.2788  13.3255  13.3272  13.3735  13.4012  13.4034  13.4601  13.4926
    13.5392  13.5426  13.5880  13.6355  13.6977  13.7261  13.8278  13.8316
    13.8869  13.9220  13.9438  14.0549  14.0709  14.0741  14.1787  14.1813
    14.2657  14.3053  14.3419  14.3829  14.4321  14.4398  14.4813  14.5033
    14.5744  14.6024  14.6477  14.7038  14.7169  14.7974  14.8540  14.8639
    14.9332  14.9645  14.9715  15.1428  15.1614  15.2281  15.2798  15.3623
    15.4257  15.4723  15.4916  15.5571  15.6039  15.6959  15.7037  15.7424
    15.7499  15.8268  15.8303  15.9187  16.1453  16.2866  16.3645  16.4240
    16.6286  16.7742  16.9175  17.0995  17.1079  17.1665  17.2658  17.4925
    17.6600  17.7354  17.8727  18.1012  18.2361  18.3723  18.5093  18.9070
    18.9861  19.0720  19.2808  19.8031  20.5253  20.6423  21.2147  21.4562
    21.7478  22.1371  22.3521  22.6944  23.0484  23.7737  23.9367  24.1561
    24.3638  24.6033  24.6799  24.7758  25.2542  25.4410  25.7585  25.8422
    25.9977

          k = 0.3750-0.3536 0.0000 ( 17776 PWs)   bands (ev):

     1.7306   1.7306   2.8297   2.8297   3.3601   3.3601   3.9799   3.9799
     4.5550   4.5550   6.1868   6.1868   6.2834   6.2834   7.2230   7.2230
     8.0038   8.0038   9.2023   9.2023   9.6308   9.6308  10.2950  10.2950
    10.6058  10.6058  10.7103  10.7103  10.8653  10.8654  11.1738  11.1738
    11.2997  11.2997  11.3869  11.3869  11.4590  11.4590  11.5335  11.5335
    11.6825  11.6825  11.7417  11.7417  11.8417  11.8417  11.9438  11.9438
    11.9786  11.9786  12.2301  12.2301  12.3320  12.3320  12.3664  12.3664
    12.4622  12.4622  12.6019  12.6019  12.6491  12.6491  12.7025  12.7025
    12.7362  12.7362  12.7594  12.7594  12.8671  12.8671  12.9497  12.9497
    12.9979  12.9979  13.0623  13.0623  13.0979  13.0979  13.1898  13.1898
    13.2647  13.2647  13.3211  13.3211  13.3538  13.3538  13.3944  13.3944
    13.4661  13.4662  13.6221  13.6221  13.7261  13.7261  13.8307  13.8307
    13.8875  13.8875  14.0043  14.0043  14.1533  14.1533  14.2011  14.2011
    14.2710  14.2710  14.3277  14.3277  14.3563  14.3563  14.4746  14.4746
    14.5441  14.5441  14.6628  14.6628  14.7183  14.7183  14.8364  14.8364
    14.8661  14.8661  15.0172  15.0172  15.2073  15.2073  15.2919  15.2919
    15.4376  15.4376  15.5003  15.5003  15.6695  15.6695  15.7164  15.7164
    15.7561  15.7561  15.8707  15.8707  16.1964  16.1964  16.4311  16.4311
    16.8231  16.8231  16.9547  16.9547  17.0710  17.0710  17.4213  17.4213
    17.6746  17.6746  17.8494  17.8494  18.5734  18.5734  18.7390  18.7390
    18.8633  18.8633  19.3844  19.3844  20.8948  20.8948  21.0232  21.0232
    22.1899  22.1899  22.4725  22.4725  23.5429  23.5429  24.3955  24.3955
    24.6276  24.6276  24.9113  24.9113  25.0999  25.0999  26.0703  26.0703
    26.2547

          k =-0.5000 0.0000 0.0000 ( 17814 PWs)   bands (ev):

     1.6158   2.0779   2.0780   3.2389   3.4193   3.7069   3.9638   3.9643
     4.2546   5.6834   6.0213   6.0280   6.0289   6.2655   6.5665   6.5667
     8.1137   8.4226   8.4227   8.8475   9.4087   9.6513  10.1751  10.2259
    10.3495  10.4585  10.4714  10.5930  10.6608  10.6998  10.7301  10.7468
    10.7707  10.7955  10.8213  10.9218  11.0002  11.2106  11.3568  11.4438
    11.5909  11.6389  11.6473  11.7420  11.8129  11.8190  11.8487  11.9221
    12.1096  12.1266  12.1849  12.1986  12.2875  12.3043  12.3074  12.3944
    12.3970  12.4877  12.5139  12.5597  12.6172  12.6537  12.6654  12.8012
    12.8837  12.8946  12.9199  13.0069  13.0889  13.1073  13.1730  13.1810
    13.1893  13.2013  13.2359  13.2487  13.2941  13.2996  13.3347  13.3852
    13.3945  13.4327  13.5158  13.5358  13.5454  13.5515  13.5964  13.6229
    13.7174  13.7211  13.8136  13.8162  13.8733  13.8740  14.0223  14.0519
    14.0607  14.0676  14.1574  14.1678  14.2977  14.3068  14.3124  14.3909
    14.4234  14.4264  14.5716  14.6562  14.6627  14.7008  14.7682  14.8087
    15.0189  15.0602  15.1765  15.2541  15.3596  15.3768  15.3882  15.4017
    15.4144  15.4811  15.5253  15.5376  15.5977  15.6036  15.6614  15.7045
    15.7050  15.7057  15.7457  15.8373  15.8755  15.9128  15.9299  15.9305
    15.9374  15.9689  15.9721  16.0014  16.0151  16.0722  16.1145  16.2970
    16.4267  16.4529  16.6839  16.6936  16.8772  16.8792  17.2350  17.2923
    17.2930  17.7289  17.8688  18.2282  18.2560  18.5680  18.5719  19.3378
    19.3737  19.4992  20.2575  20.2654  20.7017  20.7255  21.0600  21.0736
    21.0964  21.1294  21.2600  21.2738  21.4516  21.5132  21.6584  22.3454
    22.4055  22.4215  22.5405  22.9287  23.0252  23.3439  23.7752  23.7950
    24.5872

          k =-0.5000 0.0589 0.0000 ( 17814 PWs)   bands (ev):

     1.6226   2.0119   2.1548   3.2293   3.4351   3.6720   3.8728   4.0430
     4.2689   5.7194   5.9174   6.0499   6.0703   6.2949   6.3325   6.8463
     8.0944   8.2337   8.6740   8.8835   9.4292   9.6885  10.1952  10.2621
    10.3266  10.4410  10.5057  10.6207  10.6946  10.7350  10.7681  10.7762
    10.7844  10.8333  10.8396  10.9554  11.0367  11.2193  11.3531  11.3803
    11.4590  11.5961  11.6970  11.7948  11.8132  11.8472  11.8717  11.9319
    12.1076  12.1198  12.1468  12.2319  12.2732  12.3343  12.3352  12.3964
    12.4006  12.4581  12.5588  12.5666  12.6201  12.6663  12.6697  12.7691
    12.8590  12.9094  12.9270  12.9943  13.0696  13.1004  13.1716  13.1855
    13.1891  13.1932  13.2055  13.2369  13.2854  13.3040  13.3059  13.3585
    13.3850  13.4273  13.5124  13.5151  13.5365  13.5531  13.5783  13.6167
    13.6865  13.7301  13.7918  13.8128  13.8613  13.8756  13.9724  14.0132
    14.0471  14.1104  14.1435  14.1677  14.2724  14.3103  14.3322  14.3610
    14.4216  14.4512  14.5764  14.6127  14.6522  14.7331  14.7453  14.8104
    14.8814  15.0568  15.1788  15.2126  15.2678  15.3129  15.3335  15.3671
    15.3838  15.4379  15.4452  15.4788  15.5146  15.5708  15.5813  15.5955
    15.6626  15.6725  15.7289  15.7450  15.7990  15.8191  15.8569  15.9013
    15.9523  15.9908  16.0271  16.0709  16.0819  16.1358  16.1782  16.2020
    16.5381  16.5984  16.6395  16.7120  16.7843  17.0119  17.2029  17.2742
    17.5905  17.7941  17.8245  17.9482  18.0343  18.4615  18.4828  19.2295
    19.4668  19.5154  20.0308  20.1123  20.4310  20.5151  20.9891  21.1374
    21.2956  21.3928  21.6184  21.7002  21.7583  21.9037  22.0617  22.3206
    22.4246  22.4686  22.5523  22.7057  23.0978  23.3555  23.8523  24.3384
    24.5246

          k =-0.5000 0.1179 0.0000 ( 17794 PWs)   bands (ev):

     1.6414   1.9525   2.2471   3.2126   3.4598   3.5964   3.7816   4.0950
     4.3052   5.6538   5.8178   6.1081   6.1143   6.2461   6.3961   7.0985
     8.0437   8.1011   8.9745   8.9931   9.4755   9.7966  10.1754  10.3478
    10.3741  10.4399  10.5537  10.7005  10.7918  10.7976  10.8343  10.8545
    10.8794  10.8934  10.9428  11.0004  11.0483  11.1380  11.2453  11.3597
    11.4970  11.5744  11.7085  11.7415  11.8604  11.9032  11.9530  11.9606
    12.0728  12.1036  12.1527  12.2699  12.2797  12.3480  12.3617  12.4023
    12.4157  12.4578  12.5642  12.5822  12.6206  12.6810  12.6861  12.7417
    12.8168  12.8970  12.9490  12.9640  13.0538  13.0716  13.1137  13.1245
    13.1492  13.2002  13.2198  13.2310  13.2546  13.2873  13.3027  13.3094
    13.3674  13.4174  13.4429  13.4971  13.4978  13.5185  13.5360  13.6333
    13.6829  13.7029  13.7627  13.7762  13.8162  13.8574  13.8869  13.9063
    14.0227  14.0862  14.1055  14.1934  14.2632  14.2859  14.3032  14.3590
    14.3914  14.5114  14.5378  14.5876  14.6021  14.6506  14.7013  14.7529
    14.8523  14.9206  14.9471  15.0579  15.0846  15.1467  15.2164  15.2262
    15.2281  15.2493  15.3262  15.3593  15.4184  15.4417  15.4809  15.5536
    15.5885  15.6039  15.6471  15.6613  15.7294  15.7460  15.8212  15.8225
    15.8607  15.9000  15.9174  15.9805  16.0882  16.2634  16.2934  16.4419
    16.5503  16.5914  16.7147  16.8370  17.0973  17.1001  17.2045  17.2864
    17.5179  17.6492  17.6740  17.9309  18.0852  18.1870  18.2435  19.0512
    19.0910  19.5596  19.5729  19.8060  20.1855  20.7231  21.3166  21.5754
    21.7893  21.8258  21.9042  21.9841  22.0714  22.2039  22.3833  22.4834
    22.5895  22.8553  23.0286  23.2208  23.3916  23.4205  24.3811  24.9414
    25.0018

          k =-0.5000 0.1768 0.0000 ( 17756 PWs)   bands (ev):

     1.6676   1.8975   2.3587   3.2128   3.3670   3.6196   3.6953   4.1095
     4.3526   5.3288   5.9511   6.1530   6.1761   6.2392   6.5862   7.3082
     7.9796   8.0104   9.1803   9.2882   9.4965   9.9652  10.1013  10.4308
    10.4736  10.4856  10.5337  10.5973  10.8232  10.8394  10.9357  10.9807
    10.9908  11.0543  11.0638  11.1087  11.1754  11.2591  11.2769  11.3076
    11.5326  11.5908  11.7044  11.7617  11.8643  11.9473  11.9887  12.0343
    12.0353  12.0875  12.1964  12.2582  12.2748  12.2768  12.3872  12.4324
    12.4542  12.4898  12.5672  12.6025  12.6225  12.6756  12.6808  12.7359
    12.7782  12.8430  12.9126  12.9444  12.9930  13.0344  13.0470  13.1139
    13.1225  13.1630  13.1754  13.2090  13.2336  13.2825  13.3170  13.3225
    13.3628  13.3920  13.3980  13.4355  13.4370  13.4980  13.5084  13.6138
    13.6176  13.6496  13.6660  13.7645  13.7663  13.7760  13.8691  13.8960
    13.9653  13.9783  14.0889  14.0980  14.2082  14.2352  14.2420  14.2931
    14.4050  14.4601  14.4666  14.5043  14.5351  14.5849  14.6367  14.6639
    14.6836  14.7503  14.7833  14.8515  14.8691  14.9012  14.9804  14.9862
    15.0419  15.0984  15.2108  15.2264  15.3115  15.3933  15.4210  15.4333
    15.4881  15.5000  15.5889  15.6300  15.6520  15.6731  15.7510  15.7543
    15.7770  15.8374  15.8476  15.8919  16.0314  16.3631  16.4775  16.4806
    16.6632  16.8281  16.8504  16.8991  16.9512  17.0512  17.1934  17.3057
    17.3730  17.5227  17.6785  17.8382  18.0721  18.2684  18.6145  18.6442
    18.7262  19.0192  19.2801  19.6233  20.5366  20.9021  21.1975  21.4357
    21.7846  22.0349  22.1746  22.5850  22.6587  22.7582  22.7879  23.0119
    23.1707  23.4560  23.7949  23.9954  24.1462  24.3381  24.3912  24.6620
    24.9358

          k =-0.5000 0.2357 0.0000 ( 17778 PWs)   bands (ev):

     1.6970   1.8467   2.4918   3.1938   3.2482   3.6103   3.7158   4.0835
     4.4094   5.0254   6.0830   6.1988   6.2213   6.2501   6.8500   7.4605
     7.9235   7.9485   9.4361   9.4492   9.5482   9.9729  10.0758  10.1752
    10.5117  10.6097  10.6255  10.7427  10.8943  10.9711  11.0319  11.0789
    11.1216  11.1587  11.2432  11.2618  11.2961  11.3441  11.3462  11.4226
    11.5498  11.6594  11.7131  11.7847  11.8627  11.8642  11.9658  12.0254
    12.0591  12.1044  12.1591  12.2707  12.3019  12.3482  12.4342  12.4376
    12.4990  12.5437  12.5664  12.5845  12.6248  12.6398  12.6634  12.6672
    12.7919  12.7993  12.8218  12.9246  12.9323  12.9987  13.0044  13.0687
    13.1005  13.1210  13.1369  13.1616  13.2087  13.2395  13.2679  13.3118
    13.3311  13.3342  13.3953  13.4150  13.4403  13.4894  13.5158  13.5373
    13.5490  13.5903  13.6546  13.6985  13.7670  13.8210  13.8212  13.8970
    13.9008  13.9411  13.9594  13.9907  14.0538  14.0657  14.1531  14.1927
    14.2702  14.2819  14.3131  14.3521  14.4396  14.4598  14.4924  14.5125
    14.6088  14.6227  14.7174  14.7189  14.7657  14.7696  14.8302  14.8848
    14.9706  14.9958  15.0163  15.0442  15.1857  15.2418  15.2664  15.3597
    15.4322  15.4912  15.4953  15.5381  15.6111  15.6678  15.6736  15.6959
    15.7203  15.8041  15.9542  15.9860  15.9969  16.3832  16.3979  16.5406
    16.6531  16.7261  16.9714  17.0060  17.0162  17.0812  17.1589  17.2091
    17.3480  17.5017  17.5627  17.9424  18.2227  18.2650  18.4097  18.5478
    18.7117  18.8441  19.2623  19.7012  20.2607  20.6002  21.0433  21.1003
    22.0579  22.3259  22.7237  22.7795  23.1099  23.5553  23.7405  23.7667
    23.8781  24.0590  24.1021  24.2545  24.4083  24.6146  25.0480  25.1648
    25.4507

          k =-0.5000 0.2946 0.0000 ( 17762 PWs)   bands (ev):

     1.7280   1.8012   2.6462   3.0051   3.3211   3.5184   3.8259   4.0214
     4.4862   4.7793   6.1829   6.2347   6.2475   6.2555   7.1454   7.5101
     7.8909   7.9076   9.3362   9.4699   9.7948   9.8935  10.0712  10.3946
    10.5087  10.5797  10.6772  10.7791  10.9701  10.9897  11.0748  11.1892
    11.1938  11.3291  11.3688  11.3754  11.4262  11.4832  11.5343  11.5826
    11.6298  11.6332  11.6550  11.7577  11.7749  11.8170  11.8971  12.0164
    12.0431  12.1409  12.2417  12.2890  12.3590  12.3663  12.4121  12.4482
    12.5162  12.5238  12.5750  12.6039  12.6206  12.6441  12.6854  12.7302
    12.7475  12.7654  12.8325  12.8371  12.9168  12.9475  12.9815  13.0562
    13.0754  13.0840  13.0860  13.1401  13.1794  13.1993  13.2026  13.2212
    13.2648  13.3007  13.3703  13.3952  13.4775  13.4926  13.5069  13.5160
    13.5608  13.5760  13.5818  13.6504  13.6767  13.6808  13.7386  13.7865
    13.8505  13.8845  13.9025  13.9746  13.9966  14.0081  14.0179  14.0718
    14.1777  14.2135  14.2519  14.2695  14.2848  14.2973  14.3253  14.4596
    14.5010  14.5538  14.5834  14.6390  14.6411  14.7755  14.7953  14.8337
    14.9019  14.9442  15.0118  15.0506  15.0582  15.1457  15.2640  15.2762
    15.3320  15.3693  15.3736  15.4725  15.5318  15.5865  15.6706  15.6711
    15.8823  15.8895  15.9757  16.0513  16.1264  16.2540  16.3075  16.4890
    16.4959  16.8042  16.8088  16.9874  16.9931  17.1133  17.2863  17.3639
    17.4636  17.6544  17.7876  17.8175  17.9119  17.9549  18.1527  18.4714
    18.9791  19.2291  19.7567  19.8118  20.0490  20.0728  20.4244  20.6945
    22.6925  22.8779  22.9310  22.9860  23.5350  23.6040  23.6968  23.8882
    23.9905  24.5716  25.0052  25.0622  25.2109  25.3889  25.6442  26.0287
    26.2076

          k =-0.5000-0.3536 0.0000 ( 17712 PWs)   bands (ev):

     1.7621   1.7621   2.8192   2.8192   3.4179   3.4179   3.9320   3.9320
     4.6026   4.6026   6.2382   6.2382   6.2522   6.2522   7.3976   7.3976
     7.8869   7.8869   9.3144   9.3144  10.0159  10.0159  10.1861  10.1861
    10.5880  10.5880  10.6447  10.6447  11.0361  11.0361  11.2093  11.2093
    11.3172  11.3172  11.4306  11.4306  11.4992  11.4992  11.5122  11.5122
    11.6541  11.6541  11.7730  11.7730  11.8570  11.8570  11.9442  11.9442
    11.9573  11.9573  12.2657  12.2657  12.4002  12.4002  12.4701  12.4701
    12.5089  12.5089  12.5198  12.5198  12.6938  12.6938  12.7258  12.7258
    12.7947  12.7947  12.8761  12.8761  12.9647  12.9647  12.9740  12.9740
    13.0471  13.0471  13.1108  13.1108  13.1482  13.1482  13.1754  13.1754
    13.2583  13.2583  13.3140  13.3140  13.4038  13.4038  13.4498  13.4498
    13.5882  13.5883  13.6194  13.6194  13.6737  13.6737  13.7171  13.7172
    13.8357  13.8357  13.9439  13.9439  14.0157  14.0157  14.0912  14.0912
    14.1109  14.1109  14.1861  14.1861  14.2545  14.2545  14.3584  14.3584
    14.4640  14.4640  14.5824  14.5824  14.6700  14.6700  14.8141  14.8141
    14.8928  14.8928  15.0420  15.0420  15.1641  15.1641  15.1782  15.1782
    15.3164  15.3164  15.3797  15.3797  15.5405  15.5405  15.6622  15.6622
    15.9344  15.9344  16.0870  16.0870  16.1617  16.1617  16.2948  16.2948
    16.6326  16.6326  16.9107  16.9107  16.9933  16.9933  17.5587  17.5587
    17.6261  17.6261  17.7293  17.7293  17.8410  17.8410  18.1332  18.1332
    19.5321  19.5321  19.7997  19.7997  19.9084  19.9084  20.2573  20.2573
    23.0323  23.0323  23.1263  23.1263  23.2706  23.2706  23.8782  23.8782
    24.6346  24.6346  25.5107  25.5108  26.1221  26.1221  26.1818  26.1820
    26.3576

     the Fermi energy is    18.0049 ev

!    total energy              =  -21693.40834194 Ry

     total all-electron energy =  -1064661.098891 Ry
     estimated scf accuracy    <       0.00000091 Ry
     smearing contrib. (-TS)   =      -0.02944909 Ry
     internal energy E=F+TS    =  -21693.37889285 Ry

     The total energy is F=E-TS. E is the sum of the following terms:
     one-electron contribution =      57.23614290 Ry
     hartree contribution      =     394.56891254 Ry
     xc contribution           =    -906.97728925 Ry
     ewald contribution        =   -1844.70824080 Ry
     one-center paw contrib.   =  -19393.49841824 Ry

     convergence has been achieved in  19 iterations

     Forces acting on atoms (cartesian axes, Ry/au):

     atom    1 type  1   force =     0.16450269   -0.00000311    3.19969499
     atom    2 type  1   force =     0.16450269    0.00000311    3.19969499
     atom    3 type  1   force =    -1.91774042    0.00000000    3.38601694
     atom    4 type  1   force =    -1.91773402    0.00000000    3.38602913
     atom    5 type  1   force =     0.01070014    0.00000424    0.03997123
     atom    6 type  1   force =     0.01070014   -0.00000424    0.03997123
     atom    7 type  1   force =    -0.00312207    0.00000000    0.00793909
     atom    8 type  1   force =    -0.00312155    0.00000000    0.00793294
     atom    9 type  1   force =    -0.00086404   -0.00000052    0.00176368
     atom   10 type  1   force =    -0.00086404    0.00000052    0.00176368
     atom   11 type  1   force =     0.00071547    0.00000000   -0.00080208
     atom   12 type  1   force =     0.00071687    0.00000000   -0.00080609
     atom   13 type  1   force =    -0.01364059   -0.00000281    0.00370741
     atom   14 type  1   force =    -0.01364059    0.00000281    0.00370741
     atom   15 type  1   force =     0.20539014    0.00000000   -0.20269364
     atom   16 type  1   force =     0.20539890    0.00000000   -0.20268317
     atom   17 type  1   force =    -0.20577770    0.00000787    0.20295830
     atom   18 type  1   force =    -0.20577770   -0.00000787    0.20295830
     atom   19 type  1   force =     0.01497612    0.00000000   -0.00644276
     atom   20 type  1   force =     0.01497400    0.00000000   -0.00644103
     atom   21 type  1   force =     0.00269383    0.00000394   -0.00625835
     atom   22 type  1   force =     0.00269383   -0.00000394   -0.00625835
     atom   23 type  1   force =    -0.01106570    0.00000000   -0.03950926
     atom   24 type  1   force =    -0.01106348    0.00000000   -0.03951544
     atom   25 type  1   force =     1.91732809   -0.00000349   -3.38685245
     atom   26 type  1   force =     1.91732809    0.00000349   -3.38685245
     atom   27 type  1   force =    -0.16410291    0.00000000   -3.19950438
     atom   28 type  1   force =    -0.16410620    0.00000000   -3.19948985

     Total force =    10.098455     Total SCF correction =     0.002209

     Writing all to output data dir ./pwscf.save/
 
     init_run     :     14.97s CPU     15.42s WALL (       1 calls)
     electrons    :    769.29s CPU    778.22s WALL (       1 calls)
     forces       :      6.61s CPU      6.67s WALL (       1 calls)

     Called by init_run:
     wfcinit      :     14.29s CPU     14.60s WALL (       1 calls)
     potinit      :      0.41s CPU      0.46s WALL (       1 calls)
     hinit0       :      0.14s CPU      0.18s WALL (       1 calls)

     Called by electrons:
     c_bands      :    693.15s CPU    701.12s WALL (      19 calls)
     sum_band     :     69.20s CPU     69.83s WALL (      19 calls)
     v_of_rho     :      0.37s CPU      0.51s WALL (      20 calls)
     newd         :      0.66s CPU      0.77s WALL (      20 calls)
     PAW_pot      :      6.22s CPU      6.24s WALL (      20 calls)
     mix_rho      :      0.08s CPU      0.08s WALL (      19 calls)

     Called by c_bands:
     init_us_2    :      3.97s CPU      3.99s WALL (    1400 calls)
     init_us_2:cp :      3.96s CPU      3.99s WALL (    1400 calls)
     cegterg      :    662.31s CPU    670.03s WALL (     665 calls)

     Called by *egterg:
     cdiaghg      :     79.42s CPU     80.21s WALL (    3622 calls)
     h_psi        :    316.95s CPU    321.07s WALL (    3657 calls)
     s_psi        :     64.14s CPU     64.44s WALL (    3657 calls)
     g_psi        :      1.00s CPU      1.00s WALL (    2957 calls)

     Called by h_psi:
     h_psi:calbec :     72.04s CPU     72.29s WALL (    3657 calls)
     vloc_psi     :    175.09s CPU    177.25s WALL (    3657 calls)
     add_vuspsi   :     68.69s CPU     69.27s WALL (    3657 calls)

     General routines
     calbec       :    103.89s CPU    104.24s WALL (    4462 calls)
     fft          :      0.36s CPU      0.56s WALL (     231 calls)
     ffts         :      0.01s CPU      0.01s WALL (      19 calls)
     fftw         :    193.87s CPU    196.04s WALL (  734775 calls)
 
     Parallel routines
 
     PWSCF        :  13m18.14s CPU  13m39.90s WALL

 
   This run was terminated on:   9: 9:27   2Mar2024            

=------------------------------------------------------------------------------=
   JOB DONE.
=------------------------------------------------------------------------------=
