MPI startup(): Warning: I_MPI_PMI_LIBRARY will be ignored since the hydra process manager was found
MPI startup(): Warning: I_MPI_PMI_LIBRARY will be ignored since the hydra process manager was found
MPI startup(): Warning: I_MPI_PMI_LIBRARY will be ignored since the hydra process manager was found
MPI startup(): Warning: I_MPI_PMI_LIBRARY will be ignored since the hydra process manager was found
MPI startup(): Warning: I_MPI_PMI_LIBRARY will be ignored since the hydra process manager was found
MPI startup(): Warning: I_MPI_PMI_LIBRARY will be ignored since the hydra process manager was found
MPI startup(): Warning: I_MPI_PMI_LIBRARY will be ignored since the hydra process manager was found
MPI startup(): Warning: I_MPI_PMI_LIBRARY will be ignored since the hydra process manager was found
MPI startup(): Warning: I_MPI_PMI_LIBRARY will be ignored since the hydra process manager was found
MPI startup(): Warning: I_MPI_PMI_LIBRARY will be ignored since the hydra process manager was found

     Program PWSCF v.7.0 starts on  2Mar2024 at  7:56:32 

     This program is part of the open-source Quantum ESPRESSO suite
     for quantum simulation of materials; please cite
         "P. Giannozzi et al., J. Phys.:Condens. Matter 21 395502 (2009);
         "P. Giannozzi et al., J. Phys.:Condens. Matter 29 465901 (2017);
         "P. Giannozzi et al., J. Chem. Phys. 152 154105 (2020);
          URL http://www.quantum-espresso.org", 
     in publications or presentations arising from this work. More details at
     http://www.quantum-espresso.org/quote

     Parallel version (MPI), running on    10 processors

     MPI processes distributed on     1 nodes
     R & G space division:  proc/nbgrp/npool/nimage =      10
     117042 MiB available memory on the printing compute node when the environment starts
 
     Reading input from GSF110_0.0.in
Warning: card &CELL ignored
Warning: card / ignored

     Current dimensions of program PWSCF are:
     Max number of different atomic species (ntypx) = 10
     Max number of k-points (npk) =  40000
     Max angular momentum in pseudopotentials (lmaxx) =  4
     file Au.pbe-n-kjpaw_psl.1.0.0.UPF: wavefunction(s)  6S 5D renormalized
     Found identity + (  0.0000 -0.5000  0.0000) symmetry
     This is a supercell, fractional translations are disabled
     Message from routine setup:
     using ibrav=0 with symmetry is DISCOURAGED, use correct ibrav instead

     Subspace diagonalization in iterative solution of the eigenvalue problem:
     one sub-group per band group will be used
     scalapack distributed-memory algorithm (size of sub-group:  3*  3 procs)

 
     Parallelization info
     --------------------
     sticks:   dense  smooth     PW     G-vecs:    dense   smooth      PW
     Min         133     133     38                14227    14227    2178
     Max         134     134     39                14242    14242    2183
     Sum        1339    1339    389               142317   142317   21821
 
     Using Slab Decomposition
 


     bravais-lattice index     =            0
     lattice parameter (alat)  =       7.7101  a.u.
     unit-cell volume          =    2979.1368 (a.u.)^3
     number of atoms/cell      =           28
     number of atomic types    =            1
     number of electrons       =       308.00
     number of Kohn-Sham states=          185
     kinetic-energy cutoff     =      50.0000  Ry
     charge density cutoff     =     200.0000  Ry
     scf convergence threshold =      1.0E-06
     mixing beta               =       0.1000
     number of iterations used =            8  plain     mixing
     Exchange-correlation= SLA  PW   PBX  PBC
                           (   1   4   3   4   0   0   0)

     celldm(1)=   7.710083  celldm(2)=   0.000000  celldm(3)=   0.000000
     celldm(4)=   0.000000  celldm(5)=   0.000000  celldm(6)=   0.000000

     crystal axes: (cart. coord. in units of alat)
               a(1) = (   1.000000   0.000000   0.000000 )  
               a(2) = (   0.000000   1.414214   0.000000 )  
               a(3) = (   0.000000   0.000000   4.596194 )  

     reciprocal axes: (cart. coord. in units 2 pi/alat)
               b(1) = (  1.000000  0.000000  0.000000 )  
               b(2) = (  0.000000  0.707107  0.000000 )  
               b(3) = (  0.000000  0.000000  0.217571 )  


     PseudoPot. # 1 for Au read from file:
     ./Au.pbe-n-kjpaw_psl.1.0.0.UPF
     MD5 check sum: 4db85c736373c707a97ce4c36c2a9d23
     Pseudo is Projector augmented-wave + core cor, Zval = 11.0
     Generated using &quot;atomic&quot; code by A. Dal Corso  v.6.3
     Shape of augmentation charge: PSQ
     Using radial grid of 1279 points,  6 beta functions with: 
                l(1) =   0
                l(2) =   0
                l(3) =   1
                l(4) =   1
                l(5) =   2
                l(6) =   2
     Q(r) pseudized with 0 coefficients 


     atomic species   valence    mass     pseudopotential
        Au            11.00   196.96657     Au( 1.00)

      4 Sym. Ops. (no inversion) found



   Cartesian axes

     site n.     atom                  positions (alat units)
         1           Au  tau(   1) = (   0.5000000   0.3535534   0.0000000  )
         2           Au  tau(   2) = (   0.5000000   1.0606602   0.0000000  )
         3           Au  tau(   3) = (   0.0000000   0.0000000   0.3535534  )
         4           Au  tau(   4) = (   0.0000000   0.7071068   0.3535534  )
         5           Au  tau(   5) = (   0.5000000   0.3535534   0.7071068  )
         6           Au  tau(   6) = (   0.5000000   1.0606602   0.7071068  )
         7           Au  tau(   7) = (   0.0000000   0.0000000   1.0606602  )
         8           Au  tau(   8) = (   0.0000000   0.7071068   1.0606602  )
         9           Au  tau(   9) = (   0.5000000   0.3535534   1.4142136  )
        10           Au  tau(  10) = (   0.5000000   1.0606602   1.4142136  )
        11           Au  tau(  11) = (   0.0000000   0.0000000   1.7677670  )
        12           Au  tau(  12) = (   0.0000000   0.7071068   1.7677670  )
        13           Au  tau(  13) = (   0.5000000   0.3535534   2.1213203  )
        14           Au  tau(  14) = (   0.5000000   1.0606602   2.1213203  )
        15           Au  tau(  15) = (   0.0000000   0.0000000   2.4748737  )
        16           Au  tau(  16) = (   0.0000000   0.7071068   2.4748737  )
        17           Au  tau(  17) = (   0.5000000   0.3535534   2.8284271  )
        18           Au  tau(  18) = (   0.5000000   1.0606602   2.8284271  )
        19           Au  tau(  19) = (   0.0000000   0.0000000   3.1819805  )
        20           Au  tau(  20) = (   0.0000000   0.7071068   3.1819805  )
        21           Au  tau(  21) = (   0.5000000   0.3535534   3.5355339  )
        22           Au  tau(  22) = (   0.5000000   1.0606602   3.5355339  )
        23           Au  tau(  23) = (   0.0000000   0.0000000   3.8890873  )
        24           Au  tau(  24) = (   0.0000000   0.7071068   3.8890873  )
        25           Au  tau(  25) = (   0.5000000   0.3535534   4.2426407  )
        26           Au  tau(  26) = (   0.5000000   1.0606602   4.2426407  )
        27           Au  tau(  27) = (   0.0000000   0.0000000   4.5961941  )
        28           Au  tau(  28) = (   0.0000000   0.7071068   4.5961941  )

     number of k points=    35  Gaussian smearing, width (Ry)=  0.0200
                       cart. coord. in units 2pi/alat
        k(    1) = (   0.0000000   0.0000000   0.0000000), wk =   0.0208333
        k(    2) = (   0.0000000   0.0589256   0.0000000), wk =   0.0416667
        k(    3) = (   0.0000000   0.1178511   0.0000000), wk =   0.0416667
        k(    4) = (   0.0000000   0.1767767   0.0000000), wk =   0.0416667
        k(    5) = (   0.0000000   0.2357023   0.0000000), wk =   0.0416667
        k(    6) = (   0.0000000   0.2946278   0.0000000), wk =   0.0416667
        k(    7) = (   0.0000000  -0.3535534   0.0000000), wk =   0.0208333
        k(    8) = (   0.1250000   0.0000000   0.0000000), wk =   0.0416667
        k(    9) = (   0.1250000   0.0589256   0.0000000), wk =   0.0833333
        k(   10) = (   0.1250000   0.1178511   0.0000000), wk =   0.0833333
        k(   11) = (   0.1250000   0.1767767   0.0000000), wk =   0.0833333
        k(   12) = (   0.1250000   0.2357023   0.0000000), wk =   0.0833333
        k(   13) = (   0.1250000   0.2946278   0.0000000), wk =   0.0833333
        k(   14) = (   0.1250000  -0.3535534   0.0000000), wk =   0.0416667
        k(   15) = (   0.2500000   0.0000000   0.0000000), wk =   0.0416667
        k(   16) = (   0.2500000   0.0589256   0.0000000), wk =   0.0833333
        k(   17) = (   0.2500000   0.1178511   0.0000000), wk =   0.0833333
        k(   18) = (   0.2500000   0.1767767   0.0000000), wk =   0.0833333
        k(   19) = (   0.2500000   0.2357023   0.0000000), wk =   0.0833333
        k(   20) = (   0.2500000   0.2946278   0.0000000), wk =   0.0833333
        k(   21) = (   0.2500000  -0.3535534   0.0000000), wk =   0.0416667
        k(   22) = (   0.3750000   0.0000000   0.0000000), wk =   0.0416667
        k(   23) = (   0.3750000   0.0589256   0.0000000), wk =   0.0833333
        k(   24) = (   0.3750000   0.1178511   0.0000000), wk =   0.0833333
        k(   25) = (   0.3750000   0.1767767   0.0000000), wk =   0.0833333
        k(   26) = (   0.3750000   0.2357023   0.0000000), wk =   0.0833333
        k(   27) = (   0.3750000   0.2946278   0.0000000), wk =   0.0833333
        k(   28) = (   0.3750000  -0.3535534   0.0000000), wk =   0.0416667
        k(   29) = (  -0.5000000   0.0000000   0.0000000), wk =   0.0208333
        k(   30) = (  -0.5000000   0.0589256   0.0000000), wk =   0.0416667
        k(   31) = (  -0.5000000   0.1178511   0.0000000), wk =   0.0416667
        k(   32) = (  -0.5000000   0.1767767   0.0000000), wk =   0.0416667
        k(   33) = (  -0.5000000   0.2357023   0.0000000), wk =   0.0416667
        k(   34) = (  -0.5000000   0.2946278   0.0000000), wk =   0.0416667
        k(   35) = (  -0.5000000  -0.3535534   0.0000000), wk =   0.0208333

     Dense  grid:   142317 G-vectors     FFT dimensions: (  36,  50, 160)

     Estimated max dynamical RAM per process >     261.85 MB

     Estimated total dynamical RAM >       2.56 GB

     Initial potential from superposition of free atoms

     starting charge     307.9969, renormalised to     308.0000
     Starting wfcs are  252 randomized atomic wfcs
     Checking if some PAW data can be deallocated... 

     total cpu time spent up to now is       17.2 secs

     Self-consistent Calculation

     iteration #  1     ecut=    50.00 Ry     beta= 0.10
     Davidson diagonalization with overlap
     ethr =  1.00E-02,  avg # of iterations =  4.4

     total cpu time spent up to now is       62.1 secs

     total energy              =  -21681.02822988 Ry
     estimated scf accuracy    <      37.47825060 Ry

     iteration #  2     ecut=    50.00 Ry     beta= 0.10
     Davidson diagonalization with overlap
     ethr =  1.00E-02,  avg # of iterations =  3.2

     total cpu time spent up to now is       99.7 secs

     total energy              =  -21677.28181459 Ry
     estimated scf accuracy    <     499.93402747 Ry

     iteration #  3     ecut=    50.00 Ry     beta= 0.10
     Davidson diagonalization with overlap
     ethr =  1.00E-02,  avg # of iterations =  1.5

     total cpu time spent up to now is      131.0 secs

     total energy              =  -21687.03176428 Ry
     estimated scf accuracy    <       3.94212839 Ry

     iteration #  4     ecut=    50.00 Ry     beta= 0.10
     Davidson diagonalization with overlap
     ethr =  1.28E-03,  avg # of iterations =  5.1

     total cpu time spent up to now is      168.9 secs

     total energy              =  -21686.85876572 Ry
     estimated scf accuracy    <       1.23468556 Ry

     iteration #  5     ecut=    50.00 Ry     beta= 0.10
     Davidson diagonalization with overlap
     ethr =  4.01E-04,  avg # of iterations =  7.2

     total cpu time spent up to now is      213.9 secs

     total energy              =  -21686.93318618 Ry
     estimated scf accuracy    <       0.59681350 Ry

     iteration #  6     ecut=    50.00 Ry     beta= 0.10
     Davidson diagonalization with overlap
     ethr =  1.94E-04,  avg # of iterations =  4.5

     total cpu time spent up to now is      254.8 secs

     total energy              =  -21687.03248425 Ry
     estimated scf accuracy    <       0.11077456 Ry

     iteration #  7     ecut=    50.00 Ry     beta= 0.10
     Davidson diagonalization with overlap
     c_bands:  2 eigenvalues not converged
     c_bands:  2 eigenvalues not converged
     c_bands:  1 eigenvalues not converged
     c_bands:  1 eigenvalues not converged
     c_bands:  3 eigenvalues not converged
     ethr =  3.60E-05,  avg # of iterations = 14.1

     total cpu time spent up to now is      326.0 secs

     total energy              =  -21687.06831583 Ry
     estimated scf accuracy    <       0.10188498 Ry

     iteration #  8     ecut=    50.00 Ry     beta= 0.10
     Davidson diagonalization with overlap
     ethr =  3.31E-05,  avg # of iterations =  2.2

     total cpu time spent up to now is      359.2 secs

     total energy              =  -21687.05784180 Ry
     estimated scf accuracy    <       0.06959248 Ry

     iteration #  9     ecut=    50.00 Ry     beta= 0.10
     Davidson diagonalization with overlap
     ethr =  2.26E-05,  avg # of iterations =  4.6

     total cpu time spent up to now is      396.9 secs

     total energy              =  -21687.06718802 Ry
     estimated scf accuracy    <       0.06416718 Ry

     iteration # 10     ecut=    50.00 Ry     beta= 0.10
     Davidson diagonalization with overlap
     ethr =  2.08E-05,  avg # of iterations =  2.0

     total cpu time spent up to now is      430.1 secs

     total energy              =  -21687.07272877 Ry
     estimated scf accuracy    <       0.00479809 Ry

     iteration # 11     ecut=    50.00 Ry     beta= 0.10
     Davidson diagonalization with overlap
     c_bands:  2 eigenvalues not converged
     c_bands:  2 eigenvalues not converged
     c_bands:  2 eigenvalues not converged
     c_bands:  1 eigenvalues not converged
     c_bands:  1 eigenvalues not converged
     c_bands:  1 eigenvalues not converged
     c_bands:  1 eigenvalues not converged
     c_bands:  1 eigenvalues not converged
     ethr =  1.56E-06,  avg # of iterations = 12.0

     total cpu time spent up to now is      496.0 secs

     total energy              =  -21687.07436462 Ry
     estimated scf accuracy    <       0.00197745 Ry

     iteration # 12     ecut=    50.00 Ry     beta= 0.10
     Davidson diagonalization with overlap
     ethr =  6.42E-07,  avg # of iterations =  3.3

     total cpu time spent up to now is      531.3 secs

     total energy              =  -21687.07448040 Ry
     estimated scf accuracy    <       0.00090848 Ry

     iteration # 13     ecut=    50.00 Ry     beta= 0.10
     Davidson diagonalization with overlap
     ethr =  2.95E-07,  avg # of iterations =  2.1

     total cpu time spent up to now is      566.3 secs

     total energy              =  -21687.07448187 Ry
     estimated scf accuracy    <       0.00038606 Ry

     iteration # 14     ecut=    50.00 Ry     beta= 0.10
     Davidson diagonalization with overlap
     ethr =  1.25E-07,  avg # of iterations =  4.7

     total cpu time spent up to now is      617.4 secs

     total energy              =  -21687.07461631 Ry
     estimated scf accuracy    <       0.00008427 Ry

     iteration # 15     ecut=    50.00 Ry     beta= 0.10
     Davidson diagonalization with overlap
     ethr =  2.74E-08,  avg # of iterations =  5.4

     total cpu time spent up to now is      675.0 secs

     total energy              =  -21687.07456868 Ry
     estimated scf accuracy    <       0.00013140 Ry

     iteration # 16     ecut=    50.00 Ry     beta= 0.10
     Davidson diagonalization with overlap
     ethr =  2.74E-08,  avg # of iterations =  3.4

     total cpu time spent up to now is      718.7 secs

     total energy              =  -21687.07459129 Ry
     estimated scf accuracy    <       0.00001883 Ry

     iteration # 17     ecut=    50.00 Ry     beta= 0.10
     Davidson diagonalization with overlap
     ethr =  6.11E-09,  avg # of iterations =  3.9

     total cpu time spent up to now is      761.7 secs

     total energy              =  -21687.07459316 Ry
     estimated scf accuracy    <       0.00000881 Ry

     iteration # 18     ecut=    50.00 Ry     beta= 0.10
     Davidson diagonalization with overlap
     ethr =  2.86E-09,  avg # of iterations =  3.0

     total cpu time spent up to now is      802.2 secs

     total energy              =  -21687.07459395 Ry
     estimated scf accuracy    <       0.00000529 Ry

     iteration # 19     ecut=    50.00 Ry     beta= 0.10
     Davidson diagonalization with overlap
     ethr =  1.72E-09,  avg # of iterations =  2.4

     total cpu time spent up to now is      837.8 secs

     total energy              =  -21687.07459459 Ry
     estimated scf accuracy    <       0.00000185 Ry

     iteration # 20     ecut=    50.00 Ry     beta= 0.10
     Davidson diagonalization with overlap
     ethr =  6.01E-10,  avg # of iterations =  4.4

     total cpu time spent up to now is      889.6 secs

     End of self-consistent calculation

          k = 0.0000 0.0000 0.0000 ( 17807 PWs)   bands (ev):

    -0.3175   0.2647   0.2790   0.2791   0.5631   0.5632   0.7655   1.3703
     1.4295   1.8382   2.3570   2.3571   3.5907   4.4128   5.0491   5.0492
     6.0727   6.3559   6.3559   6.5475   8.4316   8.4804   8.9153   9.7485
     9.7851  10.4221  10.7710  10.7711  10.8738  10.9280  10.9280  11.0180
    11.1865  11.2386  11.2386  11.3215  11.3216  11.4251  11.4698  11.4698
    11.5320  11.5753  11.6191  11.6445  11.6445  11.7126  11.7126  11.8041
    11.9045  11.9883  12.0057  12.0057  12.0449  12.0449  12.0880  12.0880
    12.1374  12.3107  12.3107  12.3181  12.3792  12.3792  12.6212  12.7025
    12.7683  12.7701  12.7701  12.7847  12.8905  12.9406  12.9567  12.9567
    13.1450  13.1450  13.1783  13.3047  13.3432  13.3678  13.4010  13.4153
    13.5074  13.5278  13.6671  13.6696  13.7513  13.7532  13.8853  13.9448
    14.1054  14.1054  14.2099  14.3364  14.3385  14.3433  14.3901  14.3901
    14.4117  14.4925  14.5441  14.5441  14.7166  14.7185  14.7359  14.7978
    14.7978  14.9058  14.9114  14.9227  14.9227  14.9666  14.9709  15.0498
    15.1587  15.2419  15.2420  15.2650  15.3113  15.3114  15.3260  15.5551
    15.5959  15.6650  15.6651  15.6699  15.6699  15.8354  15.9333  15.9566
    15.9881  15.9881  16.0575  16.0576  16.0854  16.0855  16.2345  16.3294
    16.3294  16.3985  16.3986  16.4377  16.6406  17.0077  17.0077  17.0592
    17.0593  17.0716  17.1227  17.1630  17.6068  17.6068  17.8239  17.9455
    17.9455  18.0409  18.0957  18.0957  18.4393  18.4393  18.8696  18.8696
    19.9631  20.2125  20.3463  20.6386  21.2055  21.6009  21.6010  22.4396
    22.8454  22.9240  22.9241  23.1564  23.2488  23.7408  24.2987  24.7982
    24.7982  24.9743  24.9743  25.0719  25.0719  25.4068  25.7247  25.7516
    25.8983

          k = 0.0000 0.0589 0.0000 ( 17795 PWs)   bands (ev):

    -0.3098   0.2595   0.2908   0.3208   0.4507   0.6744   0.7581   1.3639
     1.3903   1.8841   2.2253   2.4568   3.6120   4.4108   4.8575   5.2813
     6.0903   6.1373   6.5086   6.5757   8.4686   8.5203   8.8319   9.7819
     9.8214  10.4539  10.6398  10.7178  10.8638  10.9057  10.9346  11.0429
    11.1449  11.2149  11.2327  11.2905  11.3649  11.4484  11.4790  11.4956
    11.5457  11.5619  11.5978  11.6485  11.6525  11.6777  11.7475  11.8304
    11.8451  11.8466  12.0150  12.0213  12.0230  12.0681  12.0988  12.1602
    12.2255  12.3341  12.3354  12.3584  12.4490  12.5767  12.6413  12.7063
    12.7115  12.7450  12.7722  12.7983  12.8479  12.8742  12.9109  13.0039
    13.1580  13.1792  13.2369  13.2785  13.2836  13.3011  13.3628  13.4407
    13.5091  13.5475  13.6105  13.6574  13.7216  13.7571  13.8623  13.9864
    14.0528  14.1283  14.2822  14.3509  14.3595  14.3878  14.3908  14.4746
    14.4787  14.5064  14.5331  14.5562  14.6986  14.7548  14.7594  14.7780
    14.7795  14.8195  14.8693  14.8711  14.9321  14.9745  15.0020  15.0335
    15.1522  15.2229  15.2369  15.2440  15.2771  15.3131  15.3306  15.5625
    15.5881  15.6160  15.6565  15.6914  15.6971  15.8361  15.8607  15.9241
    15.9616  15.9739  16.0150  16.0567  16.0825  16.1097  16.1660  16.2919
    16.3237  16.3457  16.3887  16.4066  16.6367  16.6820  17.0454  17.0504
    17.0668  17.1041  17.1655  17.2476  17.2539  17.3195  17.3699  17.4925
    17.8341  18.0284  18.1727  18.3479  18.6673  18.8085  19.3517  19.3977
    20.0021  20.3112  20.3574  20.6152  21.2787  21.4351  21.9689  22.4573
    22.6991  22.8734  23.2053  23.2314  23.3845  23.7167  24.2265  24.2934
    24.3125  24.3273  25.4014  25.5307  25.5775  25.7024  25.7344  25.8393
    25.8993

          k = 0.0000 0.1179 0.0000 ( 17803 PWs)   bands (ev):

    -0.2870   0.2615   0.3391   0.3643   0.3843   0.7400   0.7824   1.2998
     1.3448   1.9923   2.0623   2.5244   3.6775   4.4052   4.7044   5.5544
     5.8580   6.1404   6.5973   6.6620   8.5783   8.6001   8.6392   9.8796
     9.9280  10.0006  10.5470  10.7043  10.8547  10.9908  10.9947  11.1206
    11.1705  11.2043  11.2750  11.2926  11.4294  11.4996  11.5109  11.5195
    11.5237  11.5545  11.5982  11.6409  11.6678  11.7028  11.7056  11.7247
    11.7497  11.8926  11.9050  12.0331  12.0657  12.1051  12.1715  12.2471
    12.3221  12.3883  12.3973  12.4384  12.5558  12.6500  12.6580  12.6752
    12.7033  12.7044  12.7151  12.7330  12.7659  12.8430  12.9919  13.0236
    13.1151  13.1270  13.2223  13.2531  13.2904  13.3651  13.3777  13.4289
    13.4365  13.5455  13.6044  13.6170  13.7624  13.7812  13.8528  13.9897
    14.0550  14.0930  14.3201  14.3475  14.3590  14.4094  14.4303  14.5235
    14.5805  14.6046  14.6166  14.6228  14.6386  14.6629  14.7724  14.7864
    14.7968  14.7993  14.8394  14.8424  14.9771  14.9891  14.9976  14.9980
    15.0512  15.1143  15.1449  15.2430  15.3406  15.3434  15.3795  15.4708
    15.5198  15.5501  15.6596  15.6687  15.6953  15.7533  15.8309  15.8350
    15.8600  15.8734  15.9381  15.9741  16.0711  16.0768  16.0944  16.1241
    16.2252  16.3907  16.3944  16.3954  16.4661  16.6365  16.6714  16.6958
    16.7682  16.7933  17.0018  17.0254  17.0431  17.0534  17.1813  17.5829
    17.8075  17.8628  18.3033  18.4773  19.3403  19.5056  20.1157  20.1663
    20.1725  20.3604  20.5647  20.6011  21.3313  21.4945  22.4213  22.5120
    22.7961  22.9493  23.1761  23.3503  23.4809  23.6360  23.7210  23.8726
    24.1644  24.4129  25.0841  25.2240  25.4212  25.4418  25.7097  25.7568
    25.9015

          k = 0.0000 0.1768 0.0000 ( 17795 PWs)   bands (ev):

    -0.2495   0.2306   0.2833   0.4622   0.4678   0.7319   0.8851   1.1872
     1.3132   1.8708   2.1256   2.5604   3.7927   4.3985   4.5874   5.5314
     5.8677   6.2155   6.6293   6.8121   8.2628   8.7571   8.8339   9.3326
    10.0334  10.0985  10.6509  10.6946  10.7298  11.0953  11.0970  11.1617
    11.2102  11.2534  11.2596  11.2731  11.2896  11.3983  11.5265  11.5296
    11.6028  11.6083  11.6414  11.6435  11.7317  11.7951  11.7957  11.7999
    11.8102  11.8562  12.0159  12.0273  12.0823  12.1877  12.2495  12.2506
    12.3960  12.4191  12.4530  12.5041  12.5675  12.5695  12.5822  12.5826
    12.6187  12.6521  12.6772  12.7546  12.7641  12.7861  12.7946  13.0621
    13.0850  13.1970  13.2175  13.2318  13.2689  13.2720  13.4052  13.5326
    13.5655  13.5730  13.6008  13.6902  13.8313  13.8355  13.8580  13.9069
    13.9077  14.2284  14.2762  14.3096  14.3259  14.4024  14.4276  14.4617
    14.4891  14.5478  14.5868  14.6036  14.6232  14.6673  14.7045  14.8084
    14.8107  14.8280  14.9118  14.9248  14.9415  15.0001  15.0262  15.0330
    15.0969  15.1098  15.1118  15.1758  15.2293  15.3413  15.3645  15.3722
    15.4011  15.4409  15.4923  15.6887  15.6891  15.6913  15.6997  15.7016
    15.7747  15.8180  15.8291  15.9149  15.9217  15.9896  16.0701  16.0813
    16.1030  16.1965  16.2068  16.2802  16.2995  16.3778  16.4014  16.4256
    16.4304  16.6731  16.9214  16.9483  16.9879  17.0327  17.2110  17.6567
    17.7656  17.9042  18.2612  18.8594  20.0763  20.2228  20.2299  20.2941
    20.5841  20.8581  20.9475  21.0601  21.3792  21.8424  22.5205  22.6025
    22.6654  22.8690  23.0409  23.0828  23.4741  23.5860  23.9956  23.9958
    24.4687  24.5552  24.6630  24.8171  25.0572  25.3998  25.4283  25.6525
    25.7270

          k = 0.0000 0.2357 0.0000 ( 17822 PWs)   bands (ev):

    -0.1978   0.1273   0.3220   0.5126   0.5686   0.8021   0.9810   1.0640
     1.2693   1.6561   2.2611   2.5645   3.9644   4.3944   4.5028   5.1778
     6.2188   6.3054   6.6146   7.0329   7.8644   8.7156   8.9985   9.0993
    10.2293  10.3212  10.3420  10.6638  10.7926  10.8855  11.0589  11.1990
    11.2167  11.3193  11.3469  11.3601  11.3614  11.4418  11.5077  11.5414
    11.5957  11.7141  11.7551  11.7593  11.8226  11.8325  11.8822  11.9269
    11.9338  11.9382  11.9878  12.1198  12.1521  12.1724  12.2295  12.2617
    12.3380  12.3805  12.3862  12.4181  12.4777  12.5053  12.5223  12.5281
    12.6596  12.6694  12.6810  12.7153  12.7297  12.8762  12.9386  12.9442
    12.9744  13.0563  13.2767  13.3029  13.3197  13.4161  13.4521  13.5378
    13.5750  13.6039  13.7003  13.7007  13.7872  13.8367  13.8559  13.9301
    14.0121  14.1642  14.1887  14.2018  14.2596  14.3445  14.3504  14.4056
    14.4362  14.4546  14.4691  14.5290  14.6231  14.6356  14.7198  14.7237
    14.7936  14.8387  14.8645  14.8829  14.9408  14.9504  14.9613  15.0210
    15.0574  15.1107  15.1135  15.1309  15.1425  15.2277  15.2467  15.2473
    15.2904  15.2977  15.3783  15.3981  15.5147  15.6199  15.6720  15.6808
    15.7683  15.7921  15.7933  15.8190  15.8291  15.8341  15.8764  15.9484
    16.0716  16.0821  16.0999  16.2998  16.3727  16.3857  16.3902  16.3963
    16.4455  16.7340  16.7971  16.8333  16.9400  17.0036  17.2533  17.5451
    17.9071  17.9502  18.3037  19.3043  19.9345  20.5243  20.6723  20.8174
    20.8976  20.9837  21.5127  21.6524  21.8711  21.9702  22.3061  22.4687
    22.7146  22.8015  22.8982  23.1488  23.1944  23.8482  23.9046  24.3791
    24.5361  24.7459  24.7537  24.7686  24.8367  24.9559  25.2268  25.3218
    25.3263

          k = 0.0000 0.2946 0.0000 ( 17818 PWs)   bands (ev):

    -0.1330   0.0310   0.3732   0.4851   0.6831   0.9357   0.9755   1.0684
     1.2134   1.4264   2.3815   2.5363   4.1971   4.3975   4.4463   4.8214
     6.3999   6.5643   6.6034   7.3307   7.4400   8.1720   9.2933   9.4275
     9.9868  10.2259  10.4478  10.5773  10.8712  10.8903  11.0708  11.1039
    11.1734  11.2894  11.4035  11.4078  11.5354  11.5574  11.5869  11.5899
    11.5935  11.7538  11.8541  11.8960  11.8985  11.9045  11.9147  12.0110
    12.0140  12.0923  12.0931  12.1111  12.1287  12.1287  12.1424  12.1944
    12.1979  12.2298  12.3108  12.3993  12.4095  12.4405  12.4836  12.5368
    12.6186  12.6815  12.7013  12.7175  12.7871  12.8754  12.9597  13.0566
    13.1569  13.1700  13.2153  13.2414  13.3103  13.4032  13.4350  13.5730
    13.7123  13.7333  13.7894  13.7986  13.8342  13.8549  13.8636  13.8834
    13.9679  14.0724  14.1159  14.1387  14.2215  14.2501  14.2743  14.3024
    14.3623  14.3642  14.4143  14.4966  14.5348  14.5693  14.5809  14.5879
    14.6442  14.6794  14.6937  14.7467  14.8737  14.8753  14.9062  14.9743
    15.0030  15.0220  15.0371  15.0408  15.1405  15.1573  15.2192  15.2530
    15.2657  15.3237  15.3509  15.4633  15.4797  15.4845  15.4923  15.5455
    15.5752  15.7085  15.7093  15.8088  15.8137  15.8348  15.9131  16.0490
    16.0578  16.0985  16.1764  16.3534  16.3859  16.3998  16.4128  16.5059
    16.6234  16.6620  16.7122  16.7867  16.8857  16.9572  17.3077  17.4531
    17.9910  17.9977  18.5441  19.5076  19.8260  20.7762  20.7900  20.9308
    21.1201  21.2450  21.5653  21.7965  22.3422  22.4882  22.6351  22.7422
    22.7711  22.8357  22.8605  22.8668  23.1826  23.3346  23.9157  24.2077
    24.2967  24.4800  24.8088  24.9979  25.0068  25.1279  25.2331  25.2600
    25.4014

          k = 0.0000-0.3536 0.0000 ( 17844 PWs)   bands (ev):

    -0.0563  -0.0563   0.4308   0.4308   0.8071   0.8071   1.1462   1.1462
     1.1939   1.1939   2.4750   2.4750   4.4130   4.4130   4.4873   4.4874
     6.4894   6.4894   7.0141   7.0141   7.7098   7.7098   9.6286   9.6286
     9.8077   9.8077  10.6669  10.6669  10.8400  10.8400  11.0189  11.0189
    11.3218  11.3218  11.3612  11.3612  11.5539  11.5539  11.6141  11.6141
    11.8185  11.8185  11.8418  11.8418  11.9784  11.9784  12.0146  12.0146
    12.0175  12.0175  12.0522  12.0522  12.0571  12.0571  12.2624  12.2624
    12.2663  12.2663  12.2843  12.2843  12.3290  12.3290  12.4980  12.4980
    12.5605  12.5605  12.8707  12.8707  12.9026  12.9026  12.9354  12.9354
    13.1018  13.1018  13.2832  13.2832  13.4357  13.4357  13.4877  13.4877
    13.7364  13.7364  13.8542  13.8542  13.8777  13.8777  14.0060  14.0060
    14.0391  14.0391  14.0759  14.0759  14.1015  14.1015  14.2576  14.2576
    14.2577  14.2577  14.3687  14.3687  14.4085  14.4085  14.5488  14.5488
    14.5612  14.5612  14.7816  14.7816  14.8419  14.8419  14.9017  14.9017
    14.9148  14.9148  15.1029  15.1030  15.1417  15.1417  15.2906  15.2906
    15.3155  15.3155  15.3925  15.3925  15.4082  15.4082  15.5328  15.5328
    15.5730  15.5730  15.6801  15.6801  15.8074  15.8074  16.0343  16.0343
    16.1353  16.1353  16.3227  16.3227  16.3820  16.3820  16.4490  16.4490
    16.5988  16.5988  16.8338  16.8338  16.8650  16.8650  17.3743  17.3743
    18.0141  18.0141  19.0011  19.0011  20.4331  20.4331  20.8683  20.8683
    21.0651  21.0651  22.2186  22.2186  22.2526  22.2526  22.7521  22.7521
    23.0272  23.0272  23.0785  23.0785  23.1028  23.1028  23.5062  23.5062
    24.7518  24.7519  24.7793  24.7793  25.0226  25.0227  25.3112  25.3849
    25.3849

          k = 0.1250 0.0000 0.0000 ( 17777 PWs)   bands (ev):

    -0.2709   0.1170   0.1171   0.3892   0.7380   0.7380   0.7888   1.2612
     1.4020   1.8680   2.2863   2.2864   3.7028   4.5694   4.8167   4.8167
     6.1790   6.4637   6.7144   6.7144   8.5863   8.6549   8.7574   9.8212
     9.8952  10.4551  10.7338  10.7339  10.8721  10.9798  11.0655  11.0655
    11.2421  11.3067  11.3067  11.3193  11.4079  11.4080  11.4922  11.5597
    11.5597  11.5768  11.5923  11.6286  11.6287  11.7603  11.7603  11.7621
    11.7734  11.7735  11.7818  11.7851  11.7852  11.9087  12.0687  12.0687
    12.1111  12.2090  12.4523  12.4523  12.6428  12.6751  12.7566  12.7566
    12.8794  12.9401  13.0681  13.0682  13.1264  13.1264  13.1695  13.1984
    13.2061  13.2382  13.2535  13.3758  13.3792  13.3792  13.4426  13.5053
    13.5279  13.5674  13.6507  13.6987  13.7166  13.7261  13.7356  13.8057
    13.9734  14.0116  14.0116  14.0810  14.1241  14.1242  14.1673  14.2973
    14.3494  14.3494  14.4545  14.5042  14.5042  14.6204  14.7275  14.8091
    14.8291  14.8322  14.8723  14.8777  14.8777  14.9058  14.9614  15.0052
    15.1044  15.1293  15.1293  15.2622  15.2847  15.3676  15.3676  15.4469
    15.4469  15.5245  15.6531  15.7170  15.7170  15.7799  15.8420  15.8421
    15.8859  15.9002  15.9002  16.0295  16.1175  16.1175  16.2449  16.3192
    16.3200  16.3200  16.3361  16.3361  16.4696  16.8649  16.8650  17.0765
    17.0765  17.0800  17.0806  17.1472  17.2181  17.8381  17.8967  17.8967
    18.0631  18.0632  18.3249  18.3249  18.8172  18.8172  19.0276  19.4825
    19.4825  19.9099  20.1476  20.2846  21.1923  21.1923  21.3501  21.8046
    21.9124  22.3128  22.3129  23.5514  23.6836  23.8552  23.9409  24.5364
    24.5364  24.6924  24.6924  25.0724  25.0953  25.0954  25.2162  25.2175
    25.3826

          k = 0.1250 0.0589 0.0000 ( 17791 PWs)   bands (ev):

    -0.2647   0.0784   0.1711   0.4123   0.6545   0.7833   0.8263   1.2318
     1.3957   1.9047   2.1578   2.3889   3.7236   4.5615   4.6874   4.9679
     6.2016   6.4929   6.5339   6.8450   8.6222   8.6677   8.6941   9.8562
     9.9317  10.4880  10.6718  10.7411  10.8082  10.9103  11.0008  11.0446
    11.2268  11.2703  11.3135  11.3502  11.3976  11.4374  11.4999  11.5213
    11.5699  11.5866  11.5972  11.6181  11.6211  11.6586  11.7667  11.7832
    11.7858  11.7975  11.8454  11.8706  11.8884  11.9046  11.9685  12.1309
    12.2218  12.3297  12.3935  12.5542  12.6448  12.6812  12.7156  12.7550
    12.8661  12.9206  13.0603  13.0699  13.0748  13.1438  13.1735  13.1764
    13.1839  13.2133  13.2181  13.3358  13.3729  13.3915  13.4810  13.4903
    13.5382  13.5807  13.6331  13.6673  13.6943  13.7334  13.8290  13.8370
    13.9677  14.0193  14.0292  14.0635  14.1324  14.1586  14.1592  14.3119
    14.3354  14.3437  14.4286  14.4825  14.5779  14.5836  14.6838  14.7990
    14.8127  14.8346  14.8411  14.8858  14.8872  14.9050  14.9520  14.9937
    15.0801  15.1132  15.1683  15.2767  15.2814  15.3408  15.4201  15.4272
    15.4706  15.5214  15.6387  15.6900  15.7064  15.7829  15.7943  15.8367
    15.8746  15.8858  15.9284  15.9688  16.0617  16.1259  16.2076  16.2334
    16.2714  16.2953  16.2997  16.3329  16.4864  16.6849  16.8875  16.9023
    17.0788  17.1358  17.2102  17.2320  17.2838  17.3169  17.4316  17.6917
    17.8654  17.9549  18.6196  18.6278  19.0085  19.0651  19.1102  19.7022
    19.8223  19.9647  20.1913  20.3119  20.8012  21.3719  21.7131  21.8108
    21.9175  22.2611  22.6990  23.5507  23.7312  23.8685  23.9178  23.9556
    23.9941  24.3838  24.4159  24.7570  25.0223  25.0621  25.2402  25.4096
    25.5358

          k = 0.1250 0.1179 0.0000 ( 17815 PWs)   bands (ev):

    -0.2465   0.0507   0.2424   0.4756   0.5816   0.7723   0.9150   1.1549
     1.3794   1.9982   2.0055   2.4633   3.7879   4.5401   4.5858   5.1176
     6.2665   6.3358   6.5815   6.9173   8.4215   8.7303   8.8104   9.9583
    10.0305  10.0388  10.5838  10.6848  10.8721  10.9618  11.0209  11.0594
    11.2619  11.3234  11.3336  11.3450  11.4078  11.4382  11.4531  11.4970
    11.5794  11.5965  11.6220  11.6588  11.6776  11.6945  11.7261  11.7615
    11.8412  11.9001  11.9254  11.9309  11.9504  12.0407  12.0648  12.1945
    12.2512  12.3423  12.3868  12.5672  12.6060  12.6285  12.6962  12.7358
    12.7463  12.8588  12.9349  13.0436  13.0458  13.1317  13.1380  13.1425
    13.1554  13.2376  13.2498  13.3435  13.3684  13.4330  13.4766  13.5074
    13.5201  13.5772  13.6307  13.6531  13.7307  13.7518  13.9127  13.9164
    13.9177  13.9614  13.9780  14.1015  14.1450  14.1810  14.2540  14.3004
    14.3152  14.3699  14.3826  14.4925  14.5503  14.6523  14.6662  14.7009
    14.7493  14.7802  14.8075  14.8706  14.8764  14.9349  14.9907  15.0276
    15.0299  15.1286  15.1994  15.2458  15.3389  15.3676  15.3740  15.4203
    15.4648  15.4756  15.5118  15.5996  15.7011  15.7419  15.7656  15.7719
    15.8478  15.8592  15.8813  15.9061  15.9973  16.0379  16.1154  16.1488
    16.2367  16.2396  16.2596  16.2720  16.4824  16.5197  16.7051  16.7183
    16.7775  16.9517  17.0527  17.0945  17.1380  17.2125  17.3734  17.4497
    17.6503  17.9557  18.5113  18.7793  19.3519  19.4634  19.7267  20.1222
    20.3111  20.3164  20.3908  20.4994  20.5736  21.4349  21.8297  21.9035
    22.2454  22.4394  23.1192  23.5344  23.5575  23.6952  23.7179  23.7775
    23.8470  23.9299  24.0001  24.1706  24.8166  25.0054  25.0220  25.5748
    25.6942

          k = 0.1250 0.1768 0.0000 ( 17796 PWs)   bands (ev):

    -0.2172   0.0268   0.3309   0.5269   0.5506   0.7823   1.0009   1.0501
     1.3544   1.8322   2.1199   2.5076   3.9003   4.5104   4.5123   5.1932
     6.2081   6.3651   6.7338   6.9335   8.0737   8.9047   9.0000   9.3322
    10.1186  10.2089  10.6839  10.7071  10.7344  11.0345  11.0603  11.1364
    11.1952  11.3130  11.3379  11.3877  11.4002  11.4410  11.5482  11.5640
    11.5642  11.6428  11.6964  11.7067  11.7635  11.7638  11.7676  11.8429
    11.9343  11.9791  12.0023  12.0445  12.0557  12.1059  12.1834  12.2712
    12.3062  12.3199  12.3889  12.4858  12.5200  12.5659  12.5741  12.6862
    12.7134  12.7555  12.8231  12.8958  12.9608  12.9688  13.0614  13.0979
    13.1496  13.2194  13.3312  13.3494  13.3892  13.4627  13.4854  13.5468
    13.5549  13.6116  13.6175  13.7008  13.7855  13.7858  13.8068  13.8176
    13.9308  13.9510  13.9808  14.0361  14.0824  14.2380  14.2494  14.2501
    14.2523  14.3513  14.4195  14.5287  14.6112  14.6510  14.6550  14.7127
    14.7716  14.8116  14.8191  14.8235  14.8723  14.9068  14.9333  14.9704
    15.0441  15.0799  15.1763  15.1764  15.2551  15.2671  15.3052  15.3619
    15.3813  15.4452  15.5406  15.6071  15.6430  15.6732  15.6778  15.6897
    15.7660  15.8175  15.8537  15.8935  15.9315  15.9705  16.0007  16.0258
    16.1559  16.1749  16.2112  16.2619  16.2704  16.2705  16.4256  16.4742
    16.5580  16.8561  16.8721  16.9807  17.1442  17.1761  17.2601  17.6043
    17.7124  18.1147  18.2787  18.6392  19.7259  19.9710  20.3561  20.3641
    20.4509  20.5075  20.5143  21.2411  21.2425  21.5315  21.7796  21.8622
    22.2390  22.3228  23.1028  23.1545  23.6023  23.6209  23.7453  23.7704
    23.9244  24.0734  24.1029  24.1255  24.7118  24.8238  24.8894  25.1146
    25.5985

          k = 0.1250 0.2357 0.0000 ( 17785 PWs)   bands (ev):

    -0.1784  -0.0016   0.4347   0.4976   0.5750   0.8725   0.9304   1.0815
     1.3197   1.6415   2.2463   2.5202   4.0664   4.4651   4.4791   5.0896
     6.2759   6.4841   6.9007   6.9573   7.6746   8.6899   9.1387   9.2563
    10.3231  10.3972  10.4274  10.6786  10.7652  10.9277  11.1313  11.1975
    11.2573  11.3276  11.3991  11.4285  11.4313  11.4829  11.5332  11.6292
    11.6603  11.6713  11.7953  11.8090  11.8353  11.8652  11.9297  11.9429
    11.9651  12.0439  12.1015  12.1043  12.1539  12.1650  12.2453  12.2584
    12.2890  12.3528  12.4203  12.4322  12.4637  12.5222  12.5963  12.6159
    12.6198  12.6850  12.6952  12.7680  12.8251  12.9200  13.0482  13.0702
    13.1546  13.1615  13.3284  13.3434  13.3793  13.5051  13.5139  13.5448
    13.5543  13.5742  13.6231  13.6496  13.7467  13.7748  13.7836  13.8266
    13.8885  13.9313  13.9457  14.0079  14.0230  14.1395  14.1469  14.1947
    14.2165  14.3664  14.5361  14.5829  14.5906  14.6085  14.6495  14.6504
    14.7177  14.7439  14.7876  14.8400  14.8432  14.8618  14.8763  14.9055
    14.9446  15.0450  15.0614  15.0656  15.1669  15.2254  15.2502  15.2907
    15.3750  15.4227  15.4328  15.4612  15.5058  15.5885  15.6061  15.6511
    15.7174  15.7653  15.7674  15.7872  15.8162  15.9091  15.9582  16.0321
    16.0407  16.0542  16.2175  16.2213  16.2685  16.2706  16.2824  16.5002
    16.6030  16.6373  16.8072  16.8815  17.1648  17.2200  17.3511  17.7026
    17.8048  18.0495  18.3140  18.5771  19.8039  20.1805  20.6643  20.6747
    20.7450  21.0749  21.0827  21.4186  21.5962  21.6765  21.7772  21.9079
    22.0359  22.1891  22.5933  22.7897  23.7142  23.7189  23.9912  24.0225
    24.1524  24.1638  24.3581  24.4626  24.4674  24.5945  24.7894  25.3961
    25.4316

          k = 0.1250 0.2946 0.0000 ( 17801 PWs)   bands (ev):

    -0.1329  -0.0393   0.4965   0.5508   0.5511   0.8035   1.0371   1.1549
     1.2747   1.4390   2.3591   2.4998   4.2878   4.4417   4.4534   4.8422
     6.5253   6.6093   6.8286   7.2603   7.2636   8.1260   9.4217   9.5692
    10.0722  10.3031  10.5515  10.6661  10.8341  10.9820  11.1462  11.1536
    11.2103  11.3780  11.4259  11.4949  11.5794  11.5795  11.5851  11.6276
    11.6428  11.7376  11.8748  11.8935  11.9044  11.9886  11.9981  11.9985
    12.0084  12.0114  12.1517  12.1595  12.1710  12.2270  12.2273  12.2557
    12.3447  12.3822  12.3881  12.4214  12.4628  12.4722  12.5089  12.5566
    12.5785  12.6335  12.7232  12.7875  12.8056  12.9096  13.0025  13.1661
    13.1792  13.1821  13.1949  13.2509  13.2560  13.3698  13.5392  13.5499
    13.6209  13.6601  13.6878  13.6898  13.7445  13.7486  13.7977  13.8240
    13.8470  13.8880  13.8924  13.9169  13.9706  14.0164  14.0855  14.1009
    14.2845  14.3016  14.3615  14.4309  14.4663  14.6073  14.6170  14.6542
    14.6928  14.7701  14.7745  14.7749  14.8271  14.8543  14.8812  14.9377
    14.9542  14.9836  15.0469  15.0568  15.0590  15.1476  15.1524  15.1804
    15.1918  15.2453  15.2471  15.2569  15.4816  15.4982  15.5075  15.5256
    15.7081  15.7235  15.7328  15.8654  15.9482  15.9731  16.0275  16.0458
    16.0947  16.1159  16.1474  16.2580  16.2596  16.2639  16.2682  16.4110
    16.5705  16.6502  16.7552  16.7745  17.2052  17.2767  17.4811  17.7792
    17.8373  17.8723  18.5142  18.6477  19.7900  20.5667  20.8737  20.9596
    20.9829  21.0169  21.3388  21.3865  21.5710  21.5842  21.8291  21.9625
    22.1006  22.1528  22.4852  23.0108  23.8358  23.9197  24.0305  24.0360
    24.1984  24.2362  24.2577  24.3347  24.5593  24.7541  25.0999  25.3105
    25.5162

          k = 0.1250-0.3536 0.0000 ( 17808 PWs)   bands (ev):

    -0.0848  -0.0848   0.5183   0.5183   0.6753   0.6753   1.2196   1.2196
     1.2332   1.2332   2.4456   2.4456   4.4392   4.4392   4.5554   4.5554
     6.7279   6.7279   6.8705   6.8706   7.6490   7.6490   9.7391   9.7391
     9.9245   9.9245  10.7789  10.7789  10.8480  10.8480  11.1006  11.1006
    11.3535  11.3535  11.4824  11.4824  11.5599  11.5599  11.6458  11.6458
    11.7546  11.7546  11.8622  11.8622  11.9205  11.9205  12.0461  12.0461
    12.0730  12.0730  12.1772  12.1772  12.1878  12.1878  12.2960  12.2960
    12.3676  12.3676  12.3740  12.3740  12.3908  12.3908  12.5154  12.5154
    12.5939  12.5939  12.8773  12.8773  12.9379  12.9379  12.9787  12.9787
    13.0140  13.0140  13.2910  13.2910  13.3672  13.3672  13.4448  13.4448
    13.7035  13.7035  13.7405  13.7405  13.7645  13.7645  13.8721  13.8721
    13.8861  13.8861  13.9170  13.9170  13.9286  13.9286  13.9894  13.9894
    14.1126  14.1126  14.2645  14.2645  14.6268  14.6268  14.7209  14.7209
    14.7318  14.7318  14.7879  14.7879  14.8604  14.8604  14.9081  14.9081
    14.9679  14.9679  14.9885  14.9885  15.0393  15.0393  15.0530  15.0530
    15.0613  15.0613  15.3076  15.3076  15.3616  15.3616  15.6192  15.6192
    15.6484  15.6484  15.8906  15.8906  15.9743  15.9743  16.0778  16.0778
    16.1536  16.1536  16.1542  16.1542  16.2554  16.2554  16.2855  16.2855
    16.6575  16.6575  16.7106  16.7106  17.2557  17.2557  17.6456  17.6456
    17.8456  17.8456  18.6591  18.6591  20.1517  20.1517  21.0973  21.0973
    21.2538  21.2538  21.2673  21.2673  21.3051  21.3051  22.0014  22.0014
    22.0201  22.0201  23.1291  23.1291  23.6534  23.6534  24.0126  24.0126
    24.2155  24.2155  24.2892  24.2892  24.9772  24.9772  25.3147  25.3155
    25.6202

          k = 0.2500 0.0000 0.0000 ( 17793 PWs)   bands (ev):

    -0.1326  -0.0878  -0.0877   0.7232   0.8558   0.9744   0.9744   1.0072
     1.3248   1.8844   2.1151   2.1152   4.0238   4.4928   4.4928   5.0247
     6.1535   6.5635   7.3502   7.3502   8.2790   9.0211   9.1648  10.0116
    10.2005  10.5437  10.6821  10.6821  10.7064  10.9458  10.9712  11.2518
    11.2518  11.2991  11.3158  11.3471  11.3471  11.4491  11.5166  11.5166
    11.5546  11.5547  11.5877  11.6134  11.6135  11.6388  11.6590  11.6590
    11.7843  11.8089  11.9251  11.9602  11.9602  12.0798  12.1241  12.1242
    12.2064  12.2064  12.4438  12.8095  12.8191  12.8303  12.8867  12.8867
    13.0032  13.0032  13.1042  13.1879  13.2582  13.2583  13.2629  13.2745
    13.3172  13.4722  13.5141  13.5504  13.5504  13.5738  13.6620  13.6700
    13.6700  13.6755  13.6918  13.7063  13.7063  13.7294  13.7332  13.7614
    13.7725  13.8517  13.9699  13.9803  13.9803  14.0812  14.0812  14.1274
    14.1997  14.1997  14.2247  14.2251  14.3118  14.3954  14.5255  14.5255
    14.5347  14.5950  14.6392  14.6459  14.6459  14.8105  14.8279  14.9217
    14.9217  15.0620  15.0620  15.0752  15.1194  15.1290  15.1351  15.3110
    15.3210  15.5433  15.5433  15.5565  15.6443  15.6776  15.7757  15.7757
    15.8294  15.9728  16.0002  16.0188  16.0500  16.0500  16.1619  16.1619
    16.2098  16.2158  16.3010  16.3010  16.3437  16.3438  16.8493  16.8494
    16.9305  17.1812  17.1812  17.2881  17.3238  17.4315  17.6535  17.9812
    17.9812  18.2500  18.4664  18.4665  19.0743  19.0744  19.3293  19.3293
    19.4993  19.7909  20.2249  20.2249  20.3399  20.7510  20.7510  20.7892
    21.9574  21.9575  22.0362  22.0692  23.2690  23.2691  23.2706  23.2962
    23.2962  23.6840  23.6840  23.7869  23.7869  24.5973  24.6272  24.6282
    24.9384

          k = 0.2500 0.0589 0.0000 ( 17783 PWs)   bands (ev):

    -0.1307  -0.1176  -0.0401   0.7328   0.8619   0.9110   0.9792   1.0382
     1.3287   1.9107   2.0075   2.2123   4.0434   4.4349   4.5744   4.9924
     6.1930   6.6005   7.1595   7.4824   8.1747   9.0553   9.2017  10.0526
    10.2375  10.5794  10.6402  10.7128  10.7419  10.8964  10.9895  11.0003
    11.2252  11.2857  11.3294  11.3522  11.4121  11.4855  11.4931  11.5097
    11.5377  11.5935  11.6249  11.6298  11.6640  11.6648  11.6781  11.7116
    11.7860  11.8264  11.8272  11.9062  12.0406  12.0456  12.0987  12.1491
    12.2231  12.4331  12.4994  12.7597  12.8164  12.8307  12.8872  12.9081
    12.9184  13.0952  13.0961  13.1642  13.2325  13.2501  13.3005  13.3064
    13.3393  13.4508  13.4677  13.4790  13.5706  13.5983  13.6236  13.6604
    13.6989  13.7037  13.7038  13.7098  13.7208  13.7347  13.7646  13.7720
    13.7738  13.8174  13.9225  13.9811  13.9839  14.0527  14.0741  14.0835
    14.1193  14.1435  14.2071  14.2454  14.2687  14.3074  14.4673  14.5146
    14.5387  14.5950  14.6246  14.6248  14.6621  14.7798  14.8412  14.8770
    14.9804  15.0460  15.0492  15.0555  15.1063  15.1517  15.2075  15.2988
    15.4012  15.5252  15.5260  15.5630  15.5777  15.6732  15.6855  15.8245
    15.8701  15.9012  15.9801  16.0521  16.0971  16.1163  16.1386  16.1560
    16.2031  16.2271  16.2567  16.2966  16.3046  16.3101  16.6263  16.9503
    16.9826  17.0462  17.2797  17.2857  17.2944  17.3136  17.4755  17.7147
    17.7551  18.3135  18.4526  18.6987  18.7353  19.2202  19.4253  19.5377
    19.8212  19.8395  19.9768  20.3811  20.5584  20.7335  20.8117  21.0083
    22.0059  22.0442  22.0750  22.3029  22.4635  22.5929  22.9284  23.1665
    23.3065  23.7722  24.1771  24.2540  24.4259  24.6427  24.6586  24.6874
    25.1949

          k = 0.2500 0.1179 0.0000 ( 17763 PWs)   bands (ev):

    -0.1317  -0.1255   0.0259   0.7464   0.8509   0.8945   0.9060   1.0996
     1.3348   1.8923   1.9821   2.2937   4.1034   4.4010   4.6753   4.9089
     6.3063   6.7040   6.9256   7.5519   7.9049   9.1556   9.3102  10.1491
    10.1685  10.3453  10.6803  10.6808  10.7180  10.8433  11.0818  11.1019
    11.1104  11.1333  11.4148  11.4464  11.4876  11.5502  11.5557  11.6109
    11.6124  11.6167  11.6335  11.7239  11.7432  11.7504  11.7551  11.7865
    11.7929  11.8608  11.8759  11.9259  12.0247  12.0543  12.1400  12.2014
    12.2877  12.3827  12.6002  12.7285  12.7476  12.7997  12.8663  12.8734
    12.9527  13.0731  13.0949  13.1112  13.1621  13.1640  13.2888  13.3150
    13.3326  13.3844  13.4701  13.4980  13.5709  13.5858  13.6215  13.6263
    13.6491  13.7062  13.7335  13.7395  13.7408  13.7780  13.7881  13.7957
    13.8104  13.8324  13.8475  13.8703  13.9194  13.9620  13.9914  14.0173
    14.0721  14.0830  14.1083  14.1160  14.3019  14.3684  14.3825  14.4512
    14.4802  14.5416  14.5857  14.6093  14.6232  14.7252  14.7355  14.9510
    15.0130  15.0194  15.0251  15.0382  15.0474  15.1563  15.2557  15.3396
    15.4857  15.5063  15.5374  15.5502  15.5827  15.6842  15.7442  15.7830
    15.8312  15.9031  15.9054  16.0191  16.0286  16.0633  16.0676  16.0828
    16.1515  16.1837  16.1877  16.2227  16.2550  16.4310  16.5286  16.6788
    16.7922  16.9867  17.0323  17.2875  17.2878  17.3239  17.3709  17.6016
    17.8757  17.8882  18.3044  18.4838  18.8343  19.5775  19.6104  19.6426
    19.9655  19.9875  20.2416  20.5054  20.7953  20.8900  21.2294  21.7007
    21.7418  21.8424  22.0700  22.0939  22.2314  22.2788  22.9731  23.0316
    23.2736  23.3979  24.2712  24.7760  25.1345  25.1763  25.1822  25.2557
    25.4958

          k = 0.2500 0.1768 0.0000 ( 17751 PWs)   bands (ev):

    -0.1334  -0.1185   0.1094   0.7429   0.7979   0.8050   0.9728   1.1566
     1.3355   1.7705   2.0807   2.3532   4.2059   4.3906   4.7803   4.8000
     6.4866   6.6832   6.8570   7.5504   7.5598   9.3156   9.4151   9.4840
    10.3465  10.5126  10.6438  10.6883  10.8361  10.9518  10.9904  11.1242
    11.1963  11.2520  11.4648  11.5381  11.5615  11.5925  11.6284  11.6335
    11.6789  11.6965  11.7222  11.7726  11.8462  11.8601  11.8862  11.8919
    11.9178  11.9544  11.9604  12.0268  12.0274  12.0582  12.1964  12.2930
    12.3236  12.3671  12.5515  12.6156  12.7586  12.7774  12.8043  12.8141
    12.9819  12.9849  13.0182  13.0444  13.0592  13.1481  13.2444  13.2468
    13.2951  13.3146  13.4019  13.4318  13.4980  13.5253  13.5338  13.5470
    13.5958  13.6216  13.6815  13.6945  13.7307  13.7415  13.7435  13.7673
    13.7942  13.8252  13.8569  13.8872  13.9129  13.9289  13.9379  13.9605
    13.9775  14.0051  14.1240  14.1632  14.2289  14.3326  14.3393  14.3891
    14.4436  14.4801  14.4922  14.5844  14.6055  14.6171  14.6685  14.9109
    14.9819  14.9934  15.0632  15.0936  15.1073  15.2215  15.2771  15.3819
    15.3974  15.4224  15.4743  15.4907  15.5958  15.5971  15.6643  15.7997
    15.8036  15.8216  15.9161  15.9522  15.9539  15.9835  16.0427  16.0436
    16.0483  16.0695  16.0817  16.0929  16.1566  16.3206  16.4806  16.5860
    16.6246  16.7672  16.9768  17.1354  17.3086  17.4421  17.4435  17.7362
    17.8003  17.9791  18.1582  18.5812  18.7254  19.3048  19.4493  19.7918
    20.1187  20.5935  20.6620  20.7107  21.0513  21.1246  21.2424  21.4422
    21.4705  22.1194  22.1310  22.1655  22.2191  22.8215  22.9640  23.1082
    23.4121  23.4261  24.3318  24.5959  24.9847  25.3602  25.5866  25.7074
    25.8331

          k = 0.2500 0.2357 0.0000 ( 17768 PWs)   bands (ev):

    -0.1271  -0.1123   0.2085   0.6887   0.7288   0.7555   1.0871   1.2074
     1.3280   1.6416   2.1860   2.3846   4.3507   4.4038   4.6876   4.8518
     6.4950   6.7291   7.0447   7.1768   7.5101   8.7288   9.5244   9.7116
    10.4826  10.5720  10.6968  10.7111  10.7943  11.0315  11.1250  11.1984
    11.3248  11.4013  11.4121  11.6035  11.6492  11.6502  11.6646  11.6708
    11.6918  11.7806  11.7911  11.8481  11.8861  11.9571  11.9916  12.0062
    12.0194  12.0298  12.1156  12.1255  12.1451  12.2125  12.2652  12.3694
    12.3754  12.4342  12.5173  12.5378  12.7098  12.7277  12.7601  12.8046
    12.8643  12.8826  12.9125  12.9317  13.0454  13.0862  13.1441  13.1842
    13.2048  13.2496  13.3027  13.3647  13.3947  13.3985  13.4356  13.5033
    13.5153  13.5396  13.5701  13.5713  13.6216  13.6732  13.6748  13.7224
    13.7229  13.7559  13.7835  13.8183  13.8452  13.9382  13.9644  13.9986
    14.0438  14.0866  14.0995  14.1447  14.1665  14.2418  14.3161  14.3324
    14.3435  14.4392  14.5538  14.5913  14.6509  14.6515  14.6863  14.8770
    14.9304  15.0194  15.0381  15.1094  15.1539  15.1619  15.1910  15.2595
    15.2780  15.2987  15.3059  15.3736  15.4352  15.5371  15.5491  15.6010
    15.6286  15.7021  15.7904  15.8987  15.9143  15.9216  15.9975  16.0491
    16.0629  16.0727  16.0997  16.1124  16.3152  16.3221  16.3750  16.4746
    16.5327  16.9207  16.9322  16.9690  17.1370  17.3581  17.6773  17.7350
    17.9234  18.0440  18.5102  18.6839  18.9628  19.0130  19.2714  19.9688
    20.2546  20.4122  20.4332  20.8915  20.9815  21.0862  21.3116  21.8127
    22.0072  22.1833  22.1973  22.1974  22.5474  22.9355  23.1139  23.1350
    23.7304  23.7832  24.3964  24.7174  25.2283  25.5175  25.8096  25.8814
    25.9489

          k = 0.2500 0.2946 0.0000 ( 17790 PWs)   bands (ev):

    -0.1183  -0.1093   0.3202   0.5652   0.7165   0.7270   1.2216   1.2507
     1.3114   1.5055   2.2796   2.3836   4.4410   4.5282   4.5857   4.8337
     6.4441   6.8338   7.0097   7.2789   7.4064   8.1266   9.7664   9.9756
    10.2673  10.5131  10.8082  10.8234  10.8600  11.2148  11.2490  11.2659
    11.3217  11.4807  11.5258  11.5280  11.6510  11.6643  11.6644  11.7469
    11.7619  11.8226  11.8277  11.8347  11.8777  12.0076  12.0088  12.0664
    12.1059  12.1107  12.2585  12.3063  12.3159  12.3585  12.4268  12.4484
    12.4561  12.5286  12.5922  12.5958  12.6559  12.6905  12.7174  12.7254
    12.7546  12.7602  12.8416  12.8545  12.9006  12.9611  13.0532  13.0808
    13.0937  13.2400  13.2609  13.2628  13.2683  13.3188  13.3762  13.3911
    13.4441  13.5032  13.5136  13.5221  13.5283  13.5865  13.6236  13.6644
    13.6766  13.6783  13.7306  13.7505  13.7970  13.8337  13.8585  13.8602
    13.9308  13.9857  14.1874  14.2083  14.3101  14.3110  14.3881  14.4775
    14.5067  14.5786  14.6541  14.6637  14.7098  14.7169  14.7340  14.8386
    14.8734  14.8968  14.9139  14.9271  14.9533  15.0232  15.0500  15.0561
    15.0998  15.1388  15.2182  15.2434  15.3146  15.3472  15.3684  15.4755
    15.6669  15.7798  15.8088  15.8574  15.8593  15.9783  16.0426  16.0695
    16.0847  16.0857  16.1052  16.1453  16.2079  16.3992  16.4338  16.5468
    16.5552  16.8371  16.8590  16.9254  17.0828  17.4409  17.5159  17.7380
    17.9733  18.2989  18.6268  18.7498  18.9209  19.3328  19.6211  20.0513
    20.0716  20.1695  20.3717  20.6652  20.7455  21.2849  21.6329  21.8644
    21.8982  22.0995  22.3185  22.4210  22.8175  22.8611  22.9792  23.3388
    24.6586  24.6743  24.7860  24.9608  25.2098  25.5186  25.6326  25.6506
    25.9494

          k = 0.2500-0.3536 0.0000 ( 17788 PWs)   bands (ev):

    -0.1114  -0.1114   0.4406   0.4406   0.7144   0.7144   1.2855   1.2855
     1.3639   1.3639   2.3479   2.3479   4.5021   4.5021   4.7084   4.7084
     6.5701   6.5701   7.2463   7.2463   7.6320   7.6320  10.0214  10.0214
    10.2523  10.2523  10.8654  10.8654  11.0686  11.0686  11.3708  11.3708
    11.4233  11.4233  11.5080  11.5080  11.6121  11.6121  11.7165  11.7165
    11.8076  11.8076  11.8575  11.8576  11.9522  11.9522  12.0505  12.0505
    12.1434  12.1434  12.2993  12.2993  12.5136  12.5136  12.5417  12.5417
    12.5761  12.5761  12.6081  12.6081  12.6245  12.6245  12.6707  12.6707
    12.6781  12.6781  12.8102  12.8102  12.9141  12.9141  12.9610  12.9610
    13.1740  13.1740  13.1877  13.1877  13.2470  13.2470  13.3171  13.3171
    13.4730  13.4730  13.5190  13.5190  13.5359  13.5359  13.6066  13.6066
    13.6624  13.6624  13.7143  13.7143  13.7461  13.7461  13.8569  13.8569
    13.8807  13.8807  14.1759  14.1759  14.5647  14.5647  14.5686  14.5686
    14.6004  14.6004  14.7056  14.7056  14.7110  14.7110  14.7854  14.7854
    14.7993  14.7993  14.8295  14.8295  14.8442  14.8442  14.9369  14.9369
    14.9882  14.9882  15.1377  15.1377  15.3655  15.3655  15.3896  15.3896
    15.7282  15.7282  15.8209  15.8209  15.9930  15.9930  16.0215  16.0215
    16.0864  16.0864  16.1088  16.1088  16.3163  16.3163  16.5122  16.5122
    16.7188  16.7188  16.8343  16.8343  17.2827  17.2827  17.5620  17.5620
    18.2957  18.2957  18.5436  18.5436  19.3586  19.3586  19.6794  19.6794
    20.3791  20.3791  20.4985  20.4985  20.9109  20.9109  21.5858  21.5858
    21.9228  21.9228  22.5417  22.5417  22.6282  22.6282  23.9148  23.9148
    24.3237  24.3237  25.0396  25.0396  25.7493  25.7498  25.8217  25.8218
    25.9082

          k = 0.3750 0.0000 0.0000 ( 17794 PWs)   bands (ev):

    -0.2262  -0.2261   0.0888   0.6934   0.9584   1.1454   1.1454   1.1572
     1.2120   1.7955   1.9457   1.9458   4.2944   4.2944   4.5142   5.6916
     5.7338   7.2096   7.5177   7.8672   7.8673   9.3818   9.8975   9.9490
    10.4296  10.4628  10.6066  10.6728  10.6729  10.6893  10.8782  10.9092
    10.9962  10.9963  11.1564  11.2900  11.3087  11.3087  11.3832  11.4151
    11.5972  11.5973  11.8237  11.8238  11.9139  11.9139  11.9750  12.0441
    12.0444  12.0444  12.0651  12.1153  12.2974  12.2974  12.3186  12.3779
    12.4522  12.4522  12.5871  12.5871  12.7922  12.9407  13.0136  13.0136
    13.1109  13.1294  13.1295  13.1885  13.1886  13.2029  13.3118  13.3231
    13.3934  13.4451  13.4451  13.4805  13.4869  13.4869  13.5223  13.5308
    13.5433  13.6290  13.6290  13.6371  13.6666  13.6865  13.7454  13.7454
    13.7460  13.7502  13.8079  13.8080  13.8244  13.8904  13.9221  13.9227
    14.0925  14.1457  14.1746  14.1747  14.2287  14.2287  14.2770  14.4720
    14.5090  14.5090  14.5913  14.6140  14.6480  14.7460  14.7460  14.9590
    15.0580  15.0580  15.1093  15.1257  15.2506  15.3118  15.3562  15.3562
    15.4146  15.4534  15.4598  15.4811  15.4955  15.5576  15.7404  15.7404
    15.7519  15.8211  16.0055  16.0167  16.0859  16.0860  16.1481  16.1482
    16.1734  16.1746  16.2369  16.2369  16.3211  16.3211  16.3861  16.6359
    16.8126  16.8126  16.8683  16.9929  17.2230  17.2230  17.3964  17.4085
    17.9334  18.0766  18.0766  18.1900  18.7471  18.7472  19.0721  19.0722
    19.9946  19.9946  20.1379  20.4276  20.4975  20.4975  21.4733  21.6452
    21.6452  21.8119  21.8119  21.8255  21.9452  21.9452  22.1667  22.1667
    22.4124  22.4124  22.8691  22.8692  23.5658  24.0487  24.1359  24.1359
    24.5190

          k = 0.3750 0.0589 0.0000 ( 17796 PWs)   bands (ev):

    -0.2377  -0.1951   0.0841   0.6726   0.9502   1.1087   1.1784   1.1809
     1.2160   1.8163   1.8864   2.0094   4.2797   4.3329   4.5307   5.5458
     5.8514   7.2799   7.4097   7.7023   7.9527   9.4524   9.9712   9.9826
    10.4669  10.4984  10.6448  10.6530  10.6799  10.7265  10.8904  10.9110
    10.9441  11.0665  11.1888  11.2481  11.2880  11.3260  11.4205  11.4482
    11.4536  11.6448  11.7805  11.8125  11.9214  11.9272  11.9358  12.0015
    12.0532  12.0776  12.1335  12.1558  12.2449  12.3074  12.3722  12.4190
    12.4256  12.4823  12.5915  12.6487  12.7957  12.9532  13.0044  13.0064
    13.0392  13.1052  13.1379  13.1666  13.1961  13.2751  13.3094  13.3154
    13.3667  13.4182  13.4294  13.4753  13.4990  13.5108  13.5246  13.5359
    13.5361  13.5881  13.6030  13.6776  13.6778  13.6897  13.7138  13.7219
    13.7368  13.7489  13.7578  13.7846  13.8628  13.8636  13.9518  13.9549
    14.0121  14.1024  14.1222  14.2383  14.2545  14.2562  14.2874  14.4497
    14.4650  14.4861  14.4983  14.5602  14.6969  14.7380  14.7645  14.9610
    15.0304  15.0469  15.0753  15.0961  15.2442  15.2505  15.2597  15.2703
    15.3511  15.3516  15.4027  15.4656  15.5710  15.6418  15.6776  15.7406
    15.8503  15.9064  16.0059  16.0356  16.0407  16.0626  16.0878  16.1219
    16.1228  16.1238  16.1586  16.2662  16.2770  16.2847  16.4661  16.4935
    16.7282  16.9685  17.0575  17.1079  17.1370  17.2015  17.4193  17.4287
    17.5517  18.0126  18.2250  18.2709  18.4044  18.8936  19.0732  19.4766
    19.6740  19.8117  20.1690  20.4407  20.6352  20.9948  21.2904  21.2980
    21.3666  21.3886  21.4827  21.6345  21.8422  22.2837  22.5434  22.5973
    22.6188  22.7310  23.2905  23.3387  23.5852  23.9819  24.0678  24.3492
    24.5491

          k = 0.3750 0.1179 0.0000 ( 17793 PWs)   bands (ev):

    -0.2307  -0.1447   0.0701   0.6152   0.9340   1.0698   1.2062   1.2257
     1.2419   1.8323   1.8732   2.0728   4.2884   4.3965   4.5792   5.3478
     5.9925   7.1512   7.4644   7.4659   7.9522   9.6050  10.0794  10.1816
    10.4978  10.5751  10.6011  10.6122  10.6871  10.7562  10.8386  11.0051
    11.0430  11.0461  11.1420  11.2762  11.2995  11.4284  11.4935  11.5239
    11.5607  11.6641  11.8018  11.8048  11.8615  11.9541  11.9608  12.0189
    12.0795  12.1068  12.2245  12.2293  12.2370  12.2854  12.4201  12.4249
    12.4764  12.5160  12.6335  12.6821  12.8092  12.9269  12.9675  12.9703
    12.9968  13.0628  13.0814  13.1420  13.1699  13.2699  13.2762  13.2772
    13.3260  13.3631  13.3838  13.4407  13.4443  13.4491  13.5004  13.5698
    13.5784  13.5785  13.5786  13.6221  13.6703  13.6815  13.6917  13.7474
    13.7483  13.7626  13.7634  13.7678  13.8175  13.9139  13.9329  13.9573
    14.0009  14.0214  14.0308  14.1377  14.2451  14.3022  14.3047  14.3915
    14.4271  14.4327  14.4570  14.4656  14.7396  14.7564  14.7798  14.7897
    14.8611  14.9486  14.9620  15.0173  15.0762  15.1136  15.1584  15.1634
    15.1964  15.3433  15.4556  15.4943  15.6229  15.6338  15.6620  15.7777
    15.7974  15.8683  15.9155  15.9284  15.9890  16.0005  16.0345  16.0550
    16.0577  16.0689  16.1264  16.1608  16.1743  16.3142  16.3469  16.6967
    16.8702  16.8991  16.9005  17.1568  17.1857  17.2363  17.5000  17.5669
    17.5846  17.8128  18.2141  18.2143  18.4751  18.7194  19.0469  19.2460
    19.8483  19.9087  20.2647  20.4830  20.6740  20.6796  20.8410  20.9397
    21.3107  21.3994  21.5149  21.8962  22.1013  22.2903  22.5058  22.9336
    23.4875  23.5344  23.6444  24.0263  24.1239  24.1885  24.6138  24.6165
    24.6337

          k = 0.3750 0.1768 0.0000 ( 17788 PWs)   bands (ev):

    -0.2075  -0.0760   0.0462   0.5313   0.9210   1.0308   1.2283   1.2374
     1.3249   1.7812   1.9528   2.1283   4.3213   4.4854   4.6543   5.1352
     6.1701   6.8490   7.1771   7.7148   7.8552   9.7782   9.9139  10.2274
    10.4733  10.5522  10.7041  10.7422  10.7548  10.9306  10.9846  11.0268
    11.1445  11.2063  11.2228  11.3500  11.3811  11.5746  11.5919  11.6576
    11.6693  11.6991  11.8126  11.8610  11.8882  11.9794  11.9948  12.0377
    12.0872  12.1375  12.2236  12.3233  12.3339  12.3544  12.4244  12.4429
    12.5094  12.6118  12.6683  12.6891  12.8303  12.8428  12.8703  12.8879
    12.9488  13.0293  13.0311  13.1110  13.1325  13.1749  13.1807  13.1977
    13.2618  13.2999  13.3136  13.3599  13.4096  13.4316  13.4399  13.4643
    13.5216  13.5791  13.6243  13.6348  13.6450  13.6619  13.6668  13.7091
    13.7223  13.7613  13.7692  13.7759  13.8175  13.8195  13.9298  13.9384
    13.9386  13.9780  14.0976  14.1043  14.1160  14.1813  14.2793  14.3205
    14.3346  14.3754  14.4464  14.4595  14.5769  14.5990  14.6486  14.7365
    14.7940  14.8082  14.8421  14.8498  14.9832  15.0198  15.0457  15.0482
    15.0786  15.3338  15.3855  15.4314  15.4851  15.5049  15.6275  15.7111
    15.7504  15.7687  15.7797  15.8834  15.9063  15.9241  15.9653  16.0061
    16.0232  16.0362  16.0374  16.0591  16.2907  16.3442  16.5059  16.6486
    16.6841  16.9054  16.9520  16.9677  17.2966  17.4137  17.5406  17.6474
    17.7520  17.8468  18.2735  18.4710  18.4995  18.7101  18.7336  19.1262
    19.4456  20.0696  20.2123  20.3118  20.4100  20.4278  20.5622  21.1417
    21.5837  21.9387  21.9456  21.9986  22.0845  22.3366  23.0619  23.6487
    23.7459  23.9630  24.2127  24.4132  24.5747  24.6934  24.7277  25.1856
    25.3019

          k = 0.3750 0.2357 0.0000 ( 17756 PWs)   bands (ev):

    -0.1713   0.0087   0.0123   0.4310   0.9161   0.9940   1.2441   1.2477
     1.4179   1.7280   2.0378   2.1667   4.3808   4.5949   4.7395   4.9297
     6.4004   6.5843   6.8713   7.6521   7.9964   9.3849   9.9569  10.4045
    10.4782  10.7342  10.7772  10.9093  10.9480  10.9515  11.1439  11.2801
    11.3022  11.3070  11.4033  11.4180  11.4860  11.6544  11.7021  11.7107
    11.7286  11.7845  11.8549  11.9116  11.9994  12.0182  12.0242  12.0470
    12.1072  12.1645  12.2592  12.3688  12.3833  12.4578  12.4802  12.5043
    12.5910  12.6208  12.6765  12.7004  12.7571  12.7984  12.8741  12.8971
    12.9079  12.9578  13.0113  13.0134  13.0488  13.0670  13.0842  13.1701
    13.1822  13.2395  13.2516  13.2728  13.3634  13.3815  13.4001  13.4438
    13.4513  13.4837  13.4842  13.5146  13.5728  13.5805  13.6438  13.6655
    13.6863  13.6961  13.7795  13.7835  13.8304  13.8451  13.8644  13.8721
    13.9755  14.0068  14.0237  14.0543  14.1115  14.1242  14.1615  14.1834
    14.2338  14.2980  14.3157  14.3643  14.4256  14.4518  14.4717  14.6654
    14.7077  14.7606  14.7660  14.8190  14.8679  14.8935  14.9408  14.9825
    15.1502  15.1630  15.2154  15.3758  15.3760  15.3896  15.4217  15.4673
    15.5296  15.6145  15.8126  15.8159  15.8281  15.9329  15.9440  15.9665
    16.0165  16.1199  16.1399  16.1701  16.2886  16.4506  16.4864  16.5376
    16.6712  16.7359  17.0287  17.1161  17.2566  17.4312  17.4429  17.8018
    17.9157  18.1560  18.2062  18.3839  18.4717  18.7346  18.9925  19.0434
    19.4930  19.7806  19.8379  19.9256  20.1401  20.6491  20.6873  21.5511
    21.7167  21.7209  22.1673  22.2983  22.8678  23.2587  23.3310  23.6814
    23.8925  24.2310  24.2802  24.5047  24.8459  25.0718  25.3675  25.4079
    25.6604

          k = 0.3750 0.2946 0.0000 ( 17761 PWs)   bands (ev):

    -0.1264  -0.0299   0.1062   0.3226   0.9214   0.9620   1.2536   1.2547
     1.5106   1.6674   2.1114   2.1793   4.4700   4.7081   4.7457   4.7988
     6.4269   6.6010   6.6868   7.3567   8.2927   8.9564  10.1271  10.3881
    10.5792  10.7605  10.9145  10.9604  11.0566  11.1883  11.3700  11.3955
    11.4274  11.5088  11.5133  11.5923  11.6255  11.6486  11.6778  11.7162
    11.7871  11.8170  11.8282  11.9491  12.0057  12.0114  12.0119  12.1335
    12.1360  12.2279  12.2586  12.3409  12.3703  12.4058  12.6460  12.6641
    12.6792  12.7246  12.7338  12.7587  12.8365  12.8542  12.8605  12.8871
    12.9103  12.9136  12.9397  12.9818  12.9901  13.0067  13.0610  13.0959
    13.0987  13.1852  13.2090  13.2321  13.2765  13.2916  13.3098  13.3231
    13.3246  13.3662  13.3942  13.4310  13.4818  13.5176  13.5838  13.5908
    13.6147  13.6227  13.6461  13.7048  13.7251  13.8192  13.8294  13.8423
    13.8577  13.8682  13.9441  14.0162  14.1406  14.1539  14.1695  14.2018
    14.2195  14.2568  14.3181  14.3448  14.4928  14.5046  14.5272  14.5316
    14.6187  14.6346  14.6591  14.7208  14.7436  14.7928  14.8880  14.9386
    14.9783  14.9925  15.1281  15.1973  15.2121  15.3356  15.3502  15.4578
    15.4889  15.5495  15.6990  15.7272  15.9069  15.9081  15.9146  15.9446
    16.0268  16.1857  16.1983  16.2752  16.3913  16.3944  16.4471  16.5488
    16.6388  16.8385  16.8599  17.1662  17.2179  17.5322  17.6216  17.6334
    18.0747  18.1029  18.1674  18.5888  18.5905  18.6872  18.9898  19.2234
    19.3298  19.4159  19.5356  19.6436  20.8611  20.8869  20.8974  21.3252
    21.4358  21.9528  22.4211  22.8025  23.1517  23.2566  23.4525  23.9552
    24.0829  24.3271  24.5645  24.7344  24.9711  25.3517  25.5126  25.8099
    25.9805

          k = 0.3750-0.3536 0.0000 ( 17776 PWs)   bands (ev):

    -0.0776  -0.0776   0.2124   0.2124   0.9371   0.9371   1.2570   1.2570
     1.5951   1.5951   2.1608   2.1608   4.5915   4.5915   4.7892   4.7892
     6.4330   6.4330   7.0168   7.0168   8.6053   8.6053  10.2729  10.2729
    10.7133  10.7133  10.9262  10.9262  11.2882  11.2882  11.4310  11.4310
    11.4893  11.4893  11.6100  11.6100  11.6923  11.6923  11.7389  11.7389
    11.8142  11.8142  11.8338  11.8338  12.0047  12.0047  12.0216  12.0216
    12.2304  12.2304  12.3017  12.3017  12.3357  12.3357  12.7277  12.7277
    12.8027  12.8027  12.8637  12.8637  12.8968  12.8968  12.9133  12.9133
    12.9549  12.9549  12.9593  12.9593  12.9930  12.9930  12.9981  12.9981
    13.0536  13.0536  13.1644  13.1644  13.2023  13.2023  13.2486  13.2486
    13.2592  13.2592  13.3862  13.3862  13.4683  13.4683  13.5476  13.5476
    13.5535  13.5535  13.6595  13.6595  13.6610  13.6610  13.7856  13.7856
    13.8337  13.8337  14.0018  14.0018  14.0947  14.0947  14.3182  14.3182
    14.3739  14.3739  14.4248  14.4248  14.4628  14.4628  14.4869  14.4869
    14.5259  14.5259  14.6357  14.6357  14.7191  14.7191  14.7476  14.7476
    15.0459  15.0459  15.0496  15.0496  15.2306  15.2307  15.3963  15.3963
    15.5773  15.5773  15.6380  15.6380  15.9187  15.9188  15.9203  15.9203
    16.0925  16.0925  16.2919  16.2919  16.3702  16.3702  16.5945  16.5945
    16.6231  16.6231  17.0161  17.0161  17.3711  17.3711  17.8154  17.8154
    17.8829  17.8829  18.3680  18.3680  18.9711  18.9711  19.0125  19.0125
    19.2496  19.2496  19.4297  19.4297  21.0778  21.0778  21.1392  21.1392
    22.0455  22.0455  22.3448  22.3448  22.7680  22.7680  24.2400  24.2400
    24.7695  24.7695  24.8245  24.8245  25.0795  25.0795  25.4185  25.4185
    25.6936

          k =-0.5000 0.0000 0.0000 ( 17814 PWs)   bands (ev):

    -0.2745  -0.2745   0.3739   0.3739   1.0831   1.0832   1.2076   1.2076
     1.5486   1.5486   1.8766   1.8766   4.2307   4.2307   5.1051   5.1052
     6.6106   6.6107   8.0626   8.0627   8.2182   8.2182  10.2086  10.2086
    10.6871  10.6871  10.8103  10.8103  10.8391  10.8391  10.8532  10.8532
    10.9037  10.9038  10.9729  10.9729  11.0030  11.0030  11.2854  11.2855
    11.6701  11.6701  11.9278  11.9279  12.1059  12.1061  12.1531  12.1531
    12.2332  12.2333  12.3025  12.3025  12.3977  12.3978  12.4386  12.4386
    12.5390  12.5390  12.6112  12.6113  12.7364  12.7365  12.9873  12.9874
    13.0756  13.0756  13.2495  13.2495  13.2704  13.2704  13.3042  13.3042
    13.3721  13.3721  13.3968  13.3968  13.4497  13.4498  13.4720  13.4720
    13.4735  13.4735  13.5122  13.5122  13.5308  13.5308  13.5684  13.5684
    13.6409  13.6409  13.6497  13.6497  13.8469  13.8469  13.9120  13.9120
    14.0439  14.0440  14.1542  14.1542  14.2543  14.2544  14.3916  14.3916
    14.5508  14.5509  14.5819  14.5819  14.6861  14.6861  14.8161  14.8162
    14.8392  14.8392  15.3484  15.3484  15.3489  15.3490  15.4447  15.4447
    15.6374  15.6374  15.7290  15.7291  15.8009  15.8009  15.8448  15.8448
    15.9562  15.9563  16.0207  16.0207  16.0915  16.0916  16.1450  16.1450
    16.1526  16.1527  16.2479  16.2479  16.2624  16.2624  16.3111  16.3112
    16.5852  16.5852  16.6785  16.6786  16.7593  16.7593  17.0617  17.0617
    17.4377  17.4379  18.2811  18.2812  18.4754  18.4754  19.4353  19.4354
    19.8848  19.8850  20.4298  20.4298  20.9748  20.9749  21.2288  21.2288
    21.2639  21.2639  21.3236  21.3236  22.1952  22.1953  22.2738  22.2738
    22.3951  22.3951  22.7834  22.7834  22.8425  22.8425  23.6320  23.6321
    24.7230

          k =-0.5000 0.0589 0.0000 ( 17814 PWs)   bands (ev):

    -0.2645  -0.2644   0.3614   0.3614   1.0830   1.0830   1.2049   1.2049
     1.5676   1.5676   1.8816   1.8817   4.2424   4.2424   5.1118   5.1119
     6.5333   6.5334   8.0136   8.0136   8.3232   8.3233  10.2450  10.2450
    10.6692  10.6692  10.8432  10.8432  10.8737  10.8737  10.8857  10.8858
    10.9025  10.9026  11.0098  11.0098  11.0418  11.0418  11.2867  11.2868
    11.6108  11.6108  11.9593  11.9593  12.0624  12.0625  12.1696  12.1696
    12.2153  12.2154  12.3220  12.3220  12.4100  12.4100  12.4294  12.4294
    12.5546  12.5547  12.6363  12.6364  12.7680  12.7680  12.9816  12.9817
    13.0559  13.0559  13.1875  13.1875  13.2995  13.2995  13.3079  13.3079
    13.3480  13.3480  13.4043  13.4044  13.4177  13.4178  13.4582  13.4582
    13.4636  13.4636  13.5170  13.5170  13.5287  13.5287  13.5477  13.5477
    13.6526  13.6526  13.6587  13.6587  13.8095  13.8095  13.9357  13.9357
    13.9898  13.9898  14.1706  14.1706  14.2948  14.2948  14.3615  14.3615
    14.5906  14.5906  14.6319  14.6320  14.6375  14.6376  14.8001  14.8001
    14.8252  14.8252  15.1406  15.1407  15.4247  15.4247  15.4286  15.4286
    15.5598  15.5598  15.6096  15.6096  15.7726  15.7726  15.8652  15.8652
    15.8803  15.8804  15.9624  15.9624  16.0032  16.0032  16.0385  16.0386
    16.0829  16.0829  16.2368  16.2368  16.2781  16.2782  16.3916  16.3917
    16.5173  16.5174  16.8106  16.8107  17.0416  17.0416  17.1243  17.1244
    17.4666  17.4668  18.1639  18.1639  18.5832  18.5832  19.1636  19.1636
    19.8903  19.8905  20.2518  20.2518  20.4170  20.4170  21.4532  21.4532
    21.5136  21.5137  21.9549  21.9549  22.0644  22.0644  22.2926  22.2927
    22.3914  22.3915  22.8618  22.8619  22.8819  22.8820  24.1121  24.1122
    25.0314

          k =-0.5000 0.1179 0.0000 ( 17794 PWs)   bands (ev):

    -0.2348  -0.2348   0.3251   0.3251   1.0841   1.0842   1.1969   1.1969
     1.6195   1.6195   1.8947   1.8947   4.2784   4.2784   5.1222   5.1222
     6.3698   6.3698   7.8657   7.8657   8.5798   8.5799  10.3513  10.3513
    10.5959  10.5959  10.9056  10.9056  10.9346  10.9346  10.9722  10.9722
    10.9812  10.9812  11.1169  11.1169  11.1557  11.1557  11.2789  11.2789
    11.5224  11.5224  11.9668  11.9669  12.0196  12.0197  12.1877  12.1878
    12.2155  12.2156  12.3667  12.3667  12.4131  12.4131  12.4438  12.4439
    12.6155  12.6155  12.6951  12.6952  12.8104  12.8104  12.9276  12.9276
    13.0311  13.0311  13.1161  13.1161  13.2595  13.2595  13.2766  13.2766
    13.3142  13.3142  13.3339  13.3340  13.4140  13.4140  13.4448  13.4448
    13.4484  13.4484  13.5057  13.5057  13.5272  13.5272  13.5328  13.5328
    13.6747  13.6747  13.6837  13.6837  13.7465  13.7465  13.8569  13.8569
    14.0281  14.0281  14.2006  14.2006  14.2886  14.2886  14.3894  14.3894
    14.4835  14.4835  14.6146  14.6146  14.6722  14.6722  14.7942  14.7942
    14.8361  14.8362  14.9208  14.9209  15.1962  15.1962  15.3469  15.3469
    15.3639  15.3640  15.4900  15.4900  15.5335  15.5335  15.6087  15.6088
    15.8015  15.8016  15.8904  15.8905  15.8925  15.8925  16.0050  16.0050
    16.1419  16.1420  16.2249  16.2249  16.2920  16.2920  16.4010  16.4010
    16.5633  16.5633  17.0779  17.0779  17.1094  17.1094  17.4547  17.4548
    17.6480  17.6481  17.8861  17.8861  18.6986  18.6987  18.9961  18.9961
    19.8035  19.8036  19.8572  19.8573  19.9081  19.9083  21.4423  21.4424
    21.7862  21.7862  22.2031  22.2031  22.3518  22.3518  22.4174  22.4175
    22.9214  22.9214  22.9962  22.9962  23.6809  23.6809  24.8855  24.8856
    25.3832

          k =-0.5000 0.1768 0.0000 ( 17756 PWs)   bands (ev):

    -0.1872  -0.1872   0.2687   0.2688   1.0893   1.0893   1.1844   1.1844
     1.6918   1.6918   1.9102   1.9103   4.3412   4.3412   5.1045   5.1045
     6.2408   6.2408   7.6235   7.6236   8.8989   8.8989  10.4475  10.4476
    10.5173  10.5173  10.9228  10.9228  11.0591  11.0591  11.1066  11.1066
    11.1440  11.1440  11.2567  11.2568  11.2837  11.2837  11.3360  11.3360
    11.5100  11.5100  11.8676  11.8677  12.0692  12.0693  12.1654  12.1655
    12.2937  12.2938  12.3495  12.3495  12.4693  12.4693  12.5110  12.5110
    12.7029  12.7030  12.7423  12.7423  12.7633  12.7634  12.8245  12.8245
    13.0610  13.0610  13.1002  13.1002  13.1802  13.1802  13.1875  13.1875
    13.2325  13.2325  13.2583  13.2583  13.3649  13.3649  13.4165  13.4165
    13.4442  13.4443  13.4944  13.4944  13.5403  13.5403  13.5839  13.5839
    13.6330  13.6331  13.7238  13.7238  13.7314  13.7314  13.8348  13.8348
    14.0924  14.0924  14.1384  14.1384  14.2176  14.2176  14.2833  14.2833
    14.4913  14.4913  14.5475  14.5475  14.6155  14.6155  14.6227  14.6227
    14.8050  14.8050  14.8266  14.8266  15.0096  15.0096  15.0506  15.0507
    15.0944  15.0944  15.2589  15.2589  15.2934  15.2934  15.5906  15.5907
    15.6823  15.6824  15.7041  15.7041  15.8974  15.8974  16.0025  16.0025
    16.1243  16.1243  16.1466  16.1466  16.2840  16.2840  16.4776  16.4776
    16.7735  16.7735  16.9547  16.9548  17.3407  17.3407  17.5974  17.5975
    17.6861  17.6862  18.1542  18.1543  18.3066  18.3066  19.0854  19.0854
    19.3909  19.3909  19.9422  19.9424  20.0182  20.0183  21.0045  21.0045
    21.3709  21.3709  22.4590  22.4590  23.0255  23.0255  23.1085  23.1085
    23.3076  23.3076  23.9705  23.9706  24.6139  24.6140  24.7677  24.7678
    25.0170

          k =-0.5000 0.2357 0.0000 ( 17778 PWs)   bands (ev):

    -0.1243  -0.1243   0.1973   0.1973   1.0995   1.0996   1.1685   1.1685
     1.7695   1.7695   1.9199   1.9200   4.4336   4.4336   5.0200   5.0200
     6.2391   6.2391   7.3101   7.3101   9.2255   9.2255  10.2529  10.2530
    10.7187  10.7187  10.9496  10.9496  11.1743  11.1743  11.2463  11.2463
    11.2532  11.2532  11.3625  11.3625  11.4923  11.4923  11.5555  11.5555
    11.5652  11.5652  11.8023  11.8024  12.0003  12.0003  12.1689  12.1689
    12.3001  12.3002  12.4187  12.4187  12.4985  12.4985  12.5707  12.5707
    12.6401  12.6401  12.7286  12.7287  12.8227  12.8227  12.8567  12.8567
    13.0385  13.0385  13.0639  13.0639  13.1136  13.1136  13.1307  13.1307
    13.1760  13.1760  13.2639  13.2639  13.2949  13.2949  13.3680  13.3680
    13.4457  13.4457  13.4747  13.4747  13.5375  13.5375  13.5718  13.5718
    13.6108  13.6108  13.7923  13.7924  13.8221  13.8222  13.8838  13.8838
    13.9191  13.9191  13.9826  13.9826  14.1006  14.1006  14.2989  14.2989
    14.3461  14.3462  14.4403  14.4403  14.4573  14.4573  14.4793  14.4793
    14.5877  14.5878  14.6580  14.6580  14.7264  14.7264  14.9134  14.9134
    15.0962  15.0962  15.0965  15.0965  15.3434  15.3434  15.3661  15.3662
    15.4626  15.4627  15.7995  15.7995  15.8802  15.8802  15.8862  15.8862
    16.0307  16.0307  16.1850  16.1850  16.2335  16.2336  16.6468  16.6469
    16.7544  16.7544  16.9985  16.9985  17.3487  17.3488  17.5668  17.5669
    17.9642  17.9643  17.9806  17.9807  18.7147  18.7147  18.7318  18.7319
    19.0408  19.0409  19.9990  19.9991  20.6420  20.6420  20.8278  20.8279
    21.0412  21.0412  22.6255  22.6255  23.1807  23.1807  24.0507  24.0507
    24.1616  24.1616  24.3729  24.3730  24.4956  24.4957  25.1072  25.1073
    25.7246

          k =-0.5000 0.2946 0.0000 ( 17762 PWs)   bands (ev):

    -0.0496  -0.0496   0.1165   0.1165   1.1142   1.1143   1.1504   1.1504
     1.8384   1.8385   1.9149   1.9150   4.5574   4.5574   4.8741   4.8741
     6.3854   6.3855   6.9671   6.9671   9.5304   9.5304  10.0385  10.0385
    10.8975  10.8975  10.9744  10.9744  11.2500  11.2500  11.2699  11.2699
    11.3777  11.3777  11.6191  11.6192  11.6199  11.6199  11.6817  11.6817
    11.7748  11.7748  11.7984  11.7984  11.8597  11.8597  12.1347  12.1347
    12.1728  12.1728  12.2774  12.2774  12.5882  12.5883  12.6473  12.6473
    12.6983  12.6984  12.8130  12.8130  12.9179  12.9180  12.9476  12.9476
    12.9566  12.9566  12.9996  12.9996  13.0411  13.0412  13.1015  13.1015
    13.2240  13.2240  13.2251  13.2251  13.3222  13.3222  13.3850  13.3850
    13.4172  13.4172  13.4286  13.4286  13.4949  13.4949  13.5634  13.5634
    13.6075  13.6075  13.6114  13.6114  13.7668  13.7668  13.8532  13.8532
    13.9059  13.9060  14.0021  14.0022  14.0410  14.0411  14.0968  14.0969
    14.1309  14.1310  14.2398  14.2398  14.3487  14.3487  14.4324  14.4324
    14.4726  14.4726  14.5507  14.5508  14.7298  14.7299  14.8955  14.8956
    14.9347  14.9347  15.0866  15.0867  15.1723  15.1724  15.2691  15.2691
    15.5268  15.5268  15.8257  15.8257  15.8486  15.8486  15.8911  15.8911
    15.9034  15.9034  16.0927  16.0927  16.3327  16.3328  16.5753  16.5753
    16.8057  16.8057  17.1416  17.1417  17.2244  17.2244  17.7042  17.7042
    17.8088  17.8089  18.2505  18.2506  18.3887  18.3887  18.7664  18.7665
    19.2764  19.2764  20.0872  20.0873  20.3405  20.3405  20.4151  20.4151
    22.1198  22.1198  22.8610  22.8610  23.3903  23.3903  23.6272  23.6272
    24.0712  24.0712  24.6882  24.6882  25.2544  25.2544  25.4541  25.4543
    26.0068

          k =-0.5000-0.3536 0.0000 ( 17712 PWs)   bands (ev):

     0.0324   0.0324   0.0324   0.0324   1.1318   1.1318   1.1318   1.1318
     1.8884   1.8884   1.8884   1.8884   4.7090   4.7090   4.7091   4.7091
     6.6434   6.6434   6.6434   6.6434   9.8010   9.8010   9.8010   9.8010
    10.9754  10.9754  10.9754  10.9754  11.2798  11.2798  11.2798  11.2798
    11.5623  11.5623  11.5623  11.5623  11.6751  11.6751  11.6751  11.6751
    11.9034  11.9034  11.9034  11.9034  11.9802  11.9802  11.9803  11.9803
    12.0903  12.0903  12.0903  12.0903  12.6481  12.6481  12.6481  12.6481
    12.8243  12.8243  12.8243  12.8243  12.9425  12.9425  12.9425  12.9425
    13.0101  13.0101  13.0101  13.0101  13.1396  13.1396  13.1396  13.1396
    13.1913  13.1913  13.1913  13.1913  13.2916  13.2916  13.2916  13.2916
    13.3570  13.3570  13.3570  13.3570  13.4894  13.4894  13.4894  13.4894
    13.6425  13.6425  13.6425  13.6425  13.7698  13.7698  13.7698  13.7698
    13.8358  13.8358  13.8358  13.8358  14.0518  14.0518  14.0518  14.0518
    14.2674  14.2674  14.2674  14.2674  14.3223  14.3223  14.3224  14.3224
    14.4214  14.4214  14.4214  14.4214  14.8027  14.8027  14.8027  14.8027
    15.0211  15.0211  15.0212  15.0212  15.1352  15.1352  15.1352  15.1352
    15.7086  15.7086  15.7086  15.7086  15.8358  15.8358  15.8358  15.8358
    15.9970  15.9970  15.9970  15.9970  16.4392  16.4392  16.4393  16.4393
    16.9652  16.9652  16.9653  16.9653  17.4566  17.4566  17.4566  17.4566
    18.0824  18.0824  18.0824  18.0825  18.5148  18.5148  18.5149  18.5149
    19.8250  19.8250  19.8250  19.8250  20.2177  20.2177  20.2178  20.2178
    23.0947  23.0947  23.0947  23.0947  23.4197  23.4197  23.4198  23.4198
    23.7698  23.7698  23.7698  23.7698  26.3763  26.3767  26.3767  26.3770
    26.5202

     the Fermi energy is    18.1425 ev

!    total energy              =  -21687.07459496 Ry

     total all-electron energy =  -1064654.765144 Ry
     estimated scf accuracy    <       0.00000077 Ry
     smearing contrib. (-TS)   =      -0.02362920 Ry
     internal energy E=F+TS    =  -21687.05096576 Ry

     The total energy is F=E-TS. E is the sum of the following terms:
     one-electron contribution =      67.19404515 Ry
     hartree contribution      =     387.03482174 Ry
     xc contribution           =    -907.29128174 Ry
     ewald contribution        =   -1840.21568050 Ry
     one-center paw contrib.   =  -19393.77287040 Ry

     convergence has been achieved in  20 iterations

     Forces acting on atoms (cartesian axes, Ry/au):

     atom    1 type  1   force =     0.00000000   -0.00000443    7.61995537
     atom    2 type  1   force =     0.00000000    0.00000443    7.61995537
     atom    3 type  1   force =     0.00000000    0.00000000    7.71488416
     atom    4 type  1   force =     0.00000000    0.00000000    7.71489598
     atom    5 type  1   force =     0.00000000    0.00000553    0.02720784
     atom    6 type  1   force =     0.00000000   -0.00000553    0.02720784
     atom    7 type  1   force =     0.00000000    0.00000000   -0.00154858
     atom    8 type  1   force =     0.00000000    0.00000000   -0.00155134
     atom    9 type  1   force =     0.00000000    0.00000340    0.00197390
     atom   10 type  1   force =     0.00000000   -0.00000340    0.00197390
     atom   11 type  1   force =     0.00000000    0.00000000   -0.00088033
     atom   12 type  1   force =     0.00000000    0.00000000   -0.00088251
     atom   13 type  1   force =     0.00000000   -0.00000124    0.00164201
     atom   14 type  1   force =     0.00000000    0.00000124    0.00164201
     atom   15 type  1   force =     0.00000000    0.00000000   -0.00169008
     atom   16 type  1   force =     0.00000000    0.00000000   -0.00168418
     atom   17 type  1   force =     0.00000000    0.00000220    0.00084992
     atom   18 type  1   force =     0.00000000   -0.00000220    0.00084992
     atom   19 type  1   force =     0.00000000    0.00000000   -0.00199658
     atom   20 type  1   force =     0.00000000    0.00000000   -0.00199120
     atom   21 type  1   force =     0.00000000    0.00000485    0.00153741
     atom   22 type  1   force =     0.00000000   -0.00000485    0.00153741
     atom   23 type  1   force =     0.00000000    0.00000000   -0.02719171
     atom   24 type  1   force =     0.00000000    0.00000000   -0.02719852
     atom   25 type  1   force =     0.00000000   -0.00000650   -7.71488663
     atom   26 type  1   force =     0.00000000    0.00000650   -7.71488663
     atom   27 type  1   force =     0.00000000    0.00000000   -7.61986535
     atom   28 type  1   force =     0.00000000    0.00000000   -7.61985941

     Total force =    21.687163     Total SCF correction =     0.002493

     Writing all to output data dir ./pwscf.save/
 
     init_run     :     15.05s CPU     16.12s WALL (       1 calls)
     electrons    :    863.05s CPU    872.48s WALL (       1 calls)
     forces       :      6.56s CPU      6.62s WALL (       1 calls)

     Called by init_run:
     wfcinit      :     14.39s CPU     14.91s WALL (       1 calls)
     potinit      :      0.39s CPU      0.47s WALL (       1 calls)
     hinit0       :      0.10s CPU      0.45s WALL (       1 calls)

     Called by electrons:
     c_bands      :    782.40s CPU    790.95s WALL (      20 calls)
     sum_band     :     73.37s CPU     74.02s WALL (      20 calls)
     v_of_rho     :      0.39s CPU      0.52s WALL (      21 calls)
     newd         :      0.69s CPU      0.80s WALL (      21 calls)
     PAW_pot      :      6.48s CPU      6.50s WALL (      21 calls)
     mix_rho      :      0.08s CPU      0.09s WALL (      20 calls)

     Called by c_bands:
     init_us_2    :      4.04s CPU      4.07s WALL (    1470 calls)
     init_us_2:cp :      4.03s CPU      4.06s WALL (    1470 calls)
     cegterg      :    750.11s CPU    758.35s WALL (     700 calls)

     Called by *egterg:
     cdiaghg      :     88.35s CPU     89.29s WALL (    3962 calls)
     h_psi        :    351.68s CPU    356.27s WALL (    3997 calls)
     s_psi        :     71.01s CPU     71.34s WALL (    3997 calls)
     g_psi        :      1.14s CPU      1.15s WALL (    3262 calls)

     Called by h_psi:
     h_psi:calbec :     79.86s CPU     80.19s WALL (    3997 calls)
     vloc_psi     :    194.43s CPU    196.87s WALL (    3997 calls)
     add_vuspsi   :     76.15s CPU     76.76s WALL (    3997 calls)

     General routines
     calbec       :    113.43s CPU    113.86s WALL (    4837 calls)
     fft          :      0.37s CPU      0.80s WALL (     242 calls)
     ffts         :      0.02s CPU      0.02s WALL (      20 calls)
     fftw         :    213.50s CPU    215.88s WALL (  807142 calls)
 
     Parallel routines
 
     PWSCF        :  14m52.11s CPU  15m12.90s WALL

 
   This run was terminated on:   8:11:45   2Mar2024            

=------------------------------------------------------------------------------=
   JOB DONE.
=------------------------------------------------------------------------------=
