MPI startup(): Warning: I_MPI_PMI_LIBRARY will be ignored since the hydra process manager was found
MPI startup(): Warning: I_MPI_PMI_LIBRARY will be ignored since the hydra process manager was found
MPI startup(): Warning: I_MPI_PMI_LIBRARY will be ignored since the hydra process manager was found
MPI startup(): Warning: I_MPI_PMI_LIBRARY will be ignored since the hydra process manager was found
MPI startup(): Warning: I_MPI_PMI_LIBRARY will be ignored since the hydra process manager was found
MPI startup(): Warning: I_MPI_PMI_LIBRARY will be ignored since the hydra process manager was found
MPI startup(): Warning: I_MPI_PMI_LIBRARY will be ignored since the hydra process manager was found
MPI startup(): Warning: I_MPI_PMI_LIBRARY will be ignored since the hydra process manager was found
MPI startup(): Warning: I_MPI_PMI_LIBRARY will be ignored since the hydra process manager was found
MPI startup(): Warning: I_MPI_PMI_LIBRARY will be ignored since the hydra process manager was found

     Program PWSCF v.7.0 starts on  2Mar2024 at  9: 9:29 

     This program is part of the open-source Quantum ESPRESSO suite
     for quantum simulation of materials; please cite
         "P. Giannozzi et al., J. Phys.:Condens. Matter 21 395502 (2009);
         "P. Giannozzi et al., J. Phys.:Condens. Matter 29 465901 (2017);
         "P. Giannozzi et al., J. Chem. Phys. 152 154105 (2020);
          URL http://www.quantum-espresso.org", 
     in publications or presentations arising from this work. More details at
     http://www.quantum-espresso.org/quote

     Parallel version (MPI), running on    10 processors

     MPI processes distributed on     1 nodes
     R & G space division:  proc/nbgrp/npool/nimage =      10
     115233 MiB available memory on the printing compute node when the environment starts
 
     Reading input from GSF110_0.25.in
Warning: card &CELL ignored
Warning: card / ignored

     Current dimensions of program PWSCF are:
     Max number of different atomic species (ntypx) = 10
     Max number of k-points (npk) =  40000
     Max angular momentum in pseudopotentials (lmaxx) =  4
     file Au.pbe-n-kjpaw_psl.1.0.0.UPF: wavefunction(s)  6S 5D renormalized
     Found identity + (  0.0000 -0.5000  0.0000) symmetry
     This is a supercell, fractional translations are disabled
     Message from routine setup:
     using ibrav=0 with symmetry is DISCOURAGED, use correct ibrav instead

     Subspace diagonalization in iterative solution of the eigenvalue problem:
     one sub-group per band group will be used
     scalapack distributed-memory algorithm (size of sub-group:  3*  3 procs)

 
     Parallelization info
     --------------------
     sticks:   dense  smooth     PW     G-vecs:    dense   smooth      PW
     Min         133     133     38                14227    14227    2178
     Max         134     134     39                14242    14242    2183
     Sum        1339    1339    389               142317   142317   21821
 
     Using Slab Decomposition
 


     bravais-lattice index     =            0
     lattice parameter (alat)  =       7.7101  a.u.
     unit-cell volume          =    2979.1368 (a.u.)^3
     number of atoms/cell      =           28
     number of atomic types    =            1
     number of electrons       =       308.00
     number of Kohn-Sham states=          185
     kinetic-energy cutoff     =      50.0000  Ry
     charge density cutoff     =     200.0000  Ry
     scf convergence threshold =      1.0E-06
     mixing beta               =       0.1000
     number of iterations used =            8  plain     mixing
     Exchange-correlation= SLA  PW   PBX  PBC
                           (   1   4   3   4   0   0   0)

     celldm(1)=   7.710083  celldm(2)=   0.000000  celldm(3)=   0.000000
     celldm(4)=   0.000000  celldm(5)=   0.000000  celldm(6)=   0.000000

     crystal axes: (cart. coord. in units of alat)
               a(1) = (   1.000000   0.000000   0.000000 )  
               a(2) = (   0.000000   1.414214   0.000000 )  
               a(3) = (   0.000000   0.000000   4.596194 )  

     reciprocal axes: (cart. coord. in units 2 pi/alat)
               b(1) = (  1.000000  0.000000  0.000000 )  
               b(2) = (  0.000000  0.707107  0.000000 )  
               b(3) = (  0.000000  0.000000  0.217571 )  


     PseudoPot. # 1 for Au read from file:
     ./Au.pbe-n-kjpaw_psl.1.0.0.UPF
     MD5 check sum: 4db85c736373c707a97ce4c36c2a9d23
     Pseudo is Projector augmented-wave + core cor, Zval = 11.0
     Generated using &quot;atomic&quot; code by A. Dal Corso  v.6.3
     Shape of augmentation charge: PSQ
     Using radial grid of 1279 points,  6 beta functions with: 
                l(1) =   0
                l(2) =   0
                l(3) =   1
                l(4) =   1
                l(5) =   2
                l(6) =   2
     Q(r) pseudized with 0 coefficients 


     atomic species   valence    mass     pseudopotential
        Au            11.00   196.96657     Au( 1.00)

      2 Sym. Ops. (no inversion) found



   Cartesian axes

     site n.     atom                  positions (alat units)
         1           Au  tau(   1) = (   0.5000000   0.3535534   0.0000000  )
         2           Au  tau(   2) = (   0.5000000   1.0606602   0.0000000  )
         3           Au  tau(   3) = (   0.0000000   0.0000000   0.3535534  )
         4           Au  tau(   4) = (   0.0000000   0.7071068   0.3535534  )
         5           Au  tau(   5) = (   0.5000000   0.3535534   0.7071068  )
         6           Au  tau(   6) = (   0.5000000   1.0606602   0.7071068  )
         7           Au  tau(   7) = (   0.0000000   0.0000000   1.0606602  )
         8           Au  tau(   8) = (   0.0000000   0.7071068   1.0606602  )
         9           Au  tau(   9) = (   0.5000000   0.3535534   1.4142136  )
        10           Au  tau(  10) = (   0.5000000   1.0606602   1.4142136  )
        11           Au  tau(  11) = (   0.0000000   0.0000000   1.7677670  )
        12           Au  tau(  12) = (   0.0000000   0.7071068   1.7677670  )
        13           Au  tau(  13) = (   0.5000000   0.3535534   2.1213203  )
        14           Au  tau(  14) = (   0.5000000   1.0606602   2.1213203  )
        15           Au  tau(  15) = (   0.0000000   0.0000000   2.4748737  )
        16           Au  tau(  16) = (   0.0000000   0.7071068   2.4748737  )
        17           Au  tau(  17) = (   0.7500000   0.3535534   2.8284271  )
        18           Au  tau(  18) = (   0.7500000   1.0606602   2.8284271  )
        19           Au  tau(  19) = (   0.2500000   0.0000000   3.1819805  )
        20           Au  tau(  20) = (   0.2500000   0.7071068   3.1819805  )
        21           Au  tau(  21) = (   0.7500000   0.3535534   3.5355339  )
        22           Au  tau(  22) = (   0.7500000   1.0606602   3.5355339  )
        23           Au  tau(  23) = (   0.2500000   0.0000000   3.8890873  )
        24           Au  tau(  24) = (   0.2500000   0.7071068   3.8890873  )
        25           Au  tau(  25) = (   0.7500000   0.3535534   4.2426407  )
        26           Au  tau(  26) = (   0.7500000   1.0606602   4.2426407  )
        27           Au  tau(  27) = (   0.2500000   0.0000000   4.5961941  )
        28           Au  tau(  28) = (   0.2500000   0.7071068   4.5961941  )

     number of k points=    35  Gaussian smearing, width (Ry)=  0.0200
                       cart. coord. in units 2pi/alat
        k(    1) = (   0.0000000   0.0000000   0.0000000), wk =   0.0208333
        k(    2) = (   0.0000000   0.0589256   0.0000000), wk =   0.0416667
        k(    3) = (   0.0000000   0.1178511   0.0000000), wk =   0.0416667
        k(    4) = (   0.0000000   0.1767767   0.0000000), wk =   0.0416667
        k(    5) = (   0.0000000   0.2357023   0.0000000), wk =   0.0416667
        k(    6) = (   0.0000000   0.2946278   0.0000000), wk =   0.0416667
        k(    7) = (   0.0000000  -0.3535534   0.0000000), wk =   0.0208333
        k(    8) = (   0.1250000   0.0000000   0.0000000), wk =   0.0416667
        k(    9) = (   0.1250000   0.0589256   0.0000000), wk =   0.0833333
        k(   10) = (   0.1250000   0.1178511   0.0000000), wk =   0.0833333
        k(   11) = (   0.1250000   0.1767767   0.0000000), wk =   0.0833333
        k(   12) = (   0.1250000   0.2357023   0.0000000), wk =   0.0833333
        k(   13) = (   0.1250000   0.2946278   0.0000000), wk =   0.0833333
        k(   14) = (   0.1250000  -0.3535534   0.0000000), wk =   0.0416667
        k(   15) = (   0.2500000   0.0000000   0.0000000), wk =   0.0416667
        k(   16) = (   0.2500000   0.0589256   0.0000000), wk =   0.0833333
        k(   17) = (   0.2500000   0.1178511   0.0000000), wk =   0.0833333
        k(   18) = (   0.2500000   0.1767767   0.0000000), wk =   0.0833333
        k(   19) = (   0.2500000   0.2357023   0.0000000), wk =   0.0833333
        k(   20) = (   0.2500000   0.2946278   0.0000000), wk =   0.0833333
        k(   21) = (   0.2500000  -0.3535534   0.0000000), wk =   0.0416667
        k(   22) = (   0.3750000   0.0000000   0.0000000), wk =   0.0416667
        k(   23) = (   0.3750000   0.0589256   0.0000000), wk =   0.0833333
        k(   24) = (   0.3750000   0.1178511   0.0000000), wk =   0.0833333
        k(   25) = (   0.3750000   0.1767767   0.0000000), wk =   0.0833333
        k(   26) = (   0.3750000   0.2357023   0.0000000), wk =   0.0833333
        k(   27) = (   0.3750000   0.2946278   0.0000000), wk =   0.0833333
        k(   28) = (   0.3750000  -0.3535534   0.0000000), wk =   0.0416667
        k(   29) = (  -0.5000000   0.0000000   0.0000000), wk =   0.0208333
        k(   30) = (  -0.5000000   0.0589256   0.0000000), wk =   0.0416667
        k(   31) = (  -0.5000000   0.1178511   0.0000000), wk =   0.0416667
        k(   32) = (  -0.5000000   0.1767767   0.0000000), wk =   0.0416667
        k(   33) = (  -0.5000000   0.2357023   0.0000000), wk =   0.0416667
        k(   34) = (  -0.5000000   0.2946278   0.0000000), wk =   0.0416667
        k(   35) = (  -0.5000000  -0.3535534   0.0000000), wk =   0.0208333

     Dense  grid:   142317 G-vectors     FFT dimensions: (  36,  50, 160)

     Estimated max dynamical RAM per process >     261.85 MB

     Estimated total dynamical RAM >       2.56 GB

     Initial potential from superposition of free atoms

     starting charge     307.9969, renormalised to     308.0000
     Starting wfcs are  252 randomized atomic wfcs
     Checking if some PAW data can be deallocated... 

     total cpu time spent up to now is       15.9 secs

     Self-consistent Calculation

     iteration #  1     ecut=    50.00 Ry     beta= 0.10
     Davidson diagonalization with overlap
     ethr =  1.00E-02,  avg # of iterations =  4.0

     total cpu time spent up to now is       57.4 secs

     total energy              =  -21691.35634910 Ry
     estimated scf accuracy    <      14.60726798 Ry

     iteration #  2     ecut=    50.00 Ry     beta= 0.10
     Davidson diagonalization with overlap
     ethr =  4.74E-03,  avg # of iterations =  3.1

     total cpu time spent up to now is       92.7 secs

     total energy              =  -21690.43795135 Ry
     estimated scf accuracy    <     158.46936317 Ry

     iteration #  3     ecut=    50.00 Ry     beta= 0.10
     Davidson diagonalization with overlap
     ethr =  4.74E-03,  avg # of iterations =  1.2

     total cpu time spent up to now is      122.4 secs

     total energy              =  -21693.86265385 Ry
     estimated scf accuracy    <       1.99853143 Ry

     iteration #  4     ecut=    50.00 Ry     beta= 0.10
     Davidson diagonalization with overlap
     ethr =  6.49E-04,  avg # of iterations =  4.7

     total cpu time spent up to now is      159.9 secs

     total energy              =  -21693.90536492 Ry
     estimated scf accuracy    <       0.78102941 Ry

     iteration #  5     ecut=    50.00 Ry     beta= 0.10
     Davidson diagonalization with overlap
     ethr =  2.54E-04,  avg # of iterations =  6.8

     total cpu time spent up to now is      202.1 secs

     total energy              =  -21693.86945784 Ry
     estimated scf accuracy    <       0.90147769 Ry

     iteration #  6     ecut=    50.00 Ry     beta= 0.10
     Davidson diagonalization with overlap
     ethr =  2.54E-04,  avg # of iterations =  2.0

     total cpu time spent up to now is      235.1 secs

     total energy              =  -21693.88219607 Ry
     estimated scf accuracy    <       0.24198129 Ry

     iteration #  7     ecut=    50.00 Ry     beta= 0.10
     Davidson diagonalization with overlap
     c_bands:  1 eigenvalues not converged
     c_bands:  1 eigenvalues not converged
     ethr =  7.86E-05,  avg # of iterations =  7.6

     total cpu time spent up to now is      288.9 secs

     total energy              =  -21693.94767529 Ry
     estimated scf accuracy    <       0.06080134 Ry

     iteration #  8     ecut=    50.00 Ry     beta= 0.10
     Davidson diagonalization with overlap
     c_bands:  2 eigenvalues not converged
     c_bands:  1 eigenvalues not converged
     c_bands:  2 eigenvalues not converged
     ethr =  1.97E-05,  avg # of iterations = 10.1

     total cpu time spent up to now is      342.1 secs

     total energy              =  -21693.95319191 Ry
     estimated scf accuracy    <       0.04598126 Ry

     iteration #  9     ecut=    50.00 Ry     beta= 0.10
     Davidson diagonalization with overlap
     ethr =  1.49E-05,  avg # of iterations =  2.2

     total cpu time spent up to now is      375.6 secs

     total energy              =  -21693.96021121 Ry
     estimated scf accuracy    <       0.01745262 Ry

     iteration # 10     ecut=    50.00 Ry     beta= 0.10
     Davidson diagonalization with overlap
     c_bands:  1 eigenvalues not converged
     c_bands:  1 eigenvalues not converged
     c_bands:  1 eigenvalues not converged
     ethr =  5.67E-06,  avg # of iterations =  7.4

     total cpu time spent up to now is      422.4 secs

     total energy              =  -21693.96146573 Ry
     estimated scf accuracy    <       0.00927926 Ry

     iteration # 11     ecut=    50.00 Ry     beta= 0.10
     Davidson diagonalization with overlap
     c_bands:  1 eigenvalues not converged
     c_bands:  1 eigenvalues not converged
     c_bands:  2 eigenvalues not converged
     ethr =  3.01E-06,  avg # of iterations =  6.7

     total cpu time spent up to now is      459.8 secs

     total energy              =  -21693.96250802 Ry
     estimated scf accuracy    <       0.00078524 Ry

     iteration # 12     ecut=    50.00 Ry     beta= 0.10
     Davidson diagonalization with overlap
     ethr =  2.55E-07,  avg # of iterations =  5.9

     total cpu time spent up to now is      516.5 secs

     total energy              =  -21693.96290643 Ry
     estimated scf accuracy    <       0.00055189 Ry

     iteration # 13     ecut=    50.00 Ry     beta= 0.10
     Davidson diagonalization with overlap
     ethr =  1.79E-07,  avg # of iterations =  2.5

     total cpu time spent up to now is      554.6 secs

     total energy              =  -21693.96291144 Ry
     estimated scf accuracy    <       0.00016102 Ry

     iteration # 14     ecut=    50.00 Ry     beta= 0.10
     Davidson diagonalization with overlap
     ethr =  5.23E-08,  avg # of iterations =  3.5

     total cpu time spent up to now is      597.2 secs

     total energy              =  -21693.96293670 Ry
     estimated scf accuracy    <       0.00005093 Ry

     iteration # 15     ecut=    50.00 Ry     beta= 0.10
     Davidson diagonalization with overlap
     ethr =  1.65E-08,  avg # of iterations =  4.4

     total cpu time spent up to now is      644.3 secs

     total energy              =  -21693.96294709 Ry
     estimated scf accuracy    <       0.00001542 Ry

     iteration # 16     ecut=    50.00 Ry     beta= 0.10
     Davidson diagonalization with overlap
     ethr =  5.01E-09,  avg # of iterations =  4.9

     total cpu time spent up to now is      691.1 secs

     total energy              =  -21693.96294735 Ry
     estimated scf accuracy    <       0.00000572 Ry

     iteration # 17     ecut=    50.00 Ry     beta= 0.10
     Davidson diagonalization with overlap
     ethr =  1.86E-09,  avg # of iterations =  4.2

     total cpu time spent up to now is      737.8 secs

     total energy              =  -21693.96294855 Ry
     estimated scf accuracy    <       0.00000268 Ry

     iteration # 18     ecut=    50.00 Ry     beta= 0.10
     Davidson diagonalization with overlap
     ethr =  8.71E-10,  avg # of iterations =  4.1

     total cpu time spent up to now is      780.9 secs

     End of self-consistent calculation

          k = 0.0000 0.0000 0.0000 ( 17807 PWs)   bands (ev):

     1.0415   1.2233   1.2234   2.6125   2.9401   3.0800   3.1921   3.1923
     4.8944   4.9346   5.6781   5.6787   6.3248   7.5149   7.5153   7.8513
     8.0875   8.3130   9.2486   9.4232   9.6020   9.7331   9.7332   9.7545
    10.0679  10.3278  10.3324  10.4205  10.6276  10.6286  10.6512  10.8696
    10.8982  10.9379  11.0988  11.1606  11.1930  11.2328  11.3151  11.3193
    11.3266  11.3456  11.3800  11.3837  11.4207  11.4625  11.5436  11.6330
    11.6439  11.7256  11.7314  11.7697  11.8292  11.9111  11.9941  12.1140
    12.1283  12.1726  12.3047  12.3340  12.3422  12.4276  12.5751  12.5852
    12.6743  12.7154  12.7966  12.8109  12.8457  12.9397  12.9829  13.0098
    13.0337  13.0470  13.1222  13.1640  13.2693  13.2913  13.3613  13.4118
    13.4217  13.4500  13.4550  13.5298  13.5323  13.5535  13.6432  13.8217
    13.8244  13.8649  13.8789  14.0448  14.0592  14.2151  14.2905  14.2983
    14.3591  14.4279  14.4623  14.4758  14.5846  14.6319  14.6597  14.6799
    14.6871  14.7895  14.8715  14.8817  14.9190  14.9237  14.9253  14.9506
    14.9707  14.9895  15.0496  15.1529  15.2131  15.3376  15.3406  15.3627
    15.4128  15.4236  15.4700  15.5502  15.6319  15.6770  15.6834  15.6970
    15.7467  15.7561  15.8173  15.8337  15.9667  16.0226  16.0498  16.1203
    16.1325  16.1576  16.1921  16.2236  16.2287  16.2325  16.3865  16.5235
    16.7467  17.1217  17.1804  17.4960  17.4992  17.6263  17.6426  17.7976
    17.8139  18.0240  18.0452  18.3502  18.3516  18.5457  18.7736  18.7841
    18.7988  19.5667  20.0227  20.8849  20.8867  20.9543  21.3747  22.1700
    22.3241  22.8255  23.7156  24.0718  24.1178  24.1291  24.2332  24.5264
    24.5746  24.7493  25.0805  25.1285  25.2741  25.8613  25.8677  25.9339
    26.0645

          k = 0.0000 0.0589 0.0000 ( 17795 PWs)   bands (ev):

     0.9344   0.9504   1.4742   2.6445   3.0394   3.0757   3.1554   3.3666
     4.9138   4.9364   5.4674   5.8829   6.3689   7.4562   7.5406   7.8420
     8.1287   8.3496   9.2648   9.2824   9.4477   9.6064   9.7813  10.0062
    10.0570  10.2254  10.4432  10.4525  10.6096  10.6485  10.6836  10.8744
    10.9141  10.9480  11.0906  11.1215  11.1635  11.2459  11.2711  11.3123
    11.3564  11.3633  11.3886  11.4305  11.4731  11.5116  11.5784  11.6026
    11.6406  11.6712  11.7630  11.7795  11.8068  11.9267  12.0079  12.1095
    12.1339  12.2300  12.2508  12.3384  12.4105  12.4221  12.5192  12.5361
    12.6133  12.7077  12.7659  12.7854  12.8450  12.9043  12.9186  13.0125
    13.0528  13.1048  13.1099  13.2022  13.2295  13.3186  13.3492  13.3548
    13.4210  13.4461  13.4737  13.4779  13.5449  13.5705  13.6944  13.7889
    13.8660  13.8745  13.9313  14.0043  14.0738  14.2284  14.2558  14.3099
    14.3844  14.3866  14.4217  14.4884  14.5745  14.6111  14.6263  14.6601
    14.6745  14.8165  14.8234  14.8317  14.9036  14.9088  14.9344  14.9372
    14.9524  15.0145  15.0200  15.1240  15.2150  15.3047  15.3166  15.3623
    15.3817  15.3879  15.4282  15.5477  15.5510  15.6608  15.6986  15.7136
    15.7521  15.7698  15.8251  15.8426  15.9501  15.9712  16.0681  16.0751
    16.1196  16.1264  16.2072  16.2222  16.2511  16.3356  16.3940  16.4721
    16.7505  16.9321  17.0633  17.1038  17.1849  17.2755  17.2944  17.7790
    17.9580  18.0683  18.2979  18.5009  18.6107  18.7111  18.8369  19.1689
    19.2490  19.6890  20.0974  20.9752  21.0101  21.0797  21.4178  22.1984
    22.3695  22.8499  23.7164  23.7199  23.7476  24.0606  24.2308  24.4050
    24.7526  24.8387  25.0713  25.2754  25.4412  25.7106  25.7741  25.9376
    25.9537

          k = 0.0000 0.1179 0.0000 ( 17803 PWs)   bands (ev):

     0.6528   0.7427   1.6619   2.7264   2.9420   3.2234   3.4094   3.6643
     4.8573   5.0592   5.2953   6.0487   6.4913   7.3774   7.5216   7.8103
     8.2513   8.4601   8.7438   9.2476   9.4959   9.6476   9.7696   9.9419
    10.1462  10.2559  10.5370  10.5440  10.5792  10.6767  10.7800  10.8773
    10.9533  10.9537  11.0079  11.1211  11.1623  11.2583  11.2875  11.3164
    11.3351  11.4210  11.4320  11.4563  11.4784  11.5018  11.6060  11.6236
    11.6530  11.7058  11.7903  11.7976  11.9180  11.9572  12.0406  12.0936
    12.1916  12.2173  12.2888  12.2928  12.3423  12.4376  12.4681  12.5302
    12.5480  12.6608  12.6707  12.7324  12.7814  12.7931  12.8787  12.9782
    13.0700  13.1048  13.1188  13.1665  13.2171  13.2902  13.2945  13.4008
    13.4180  13.4599  13.4637  13.5156  13.5502  13.6339  13.6949  13.7509
    13.9188  13.9245  13.9583  13.9743  14.0253  14.1600  14.2947  14.3007
    14.3259  14.3460  14.4528  14.4730  14.5019  14.5545  14.5851  14.6339
    14.6632  14.6998  14.7317  14.8185  14.8312  14.8723  14.9035  14.9268
    14.9582  15.0001  15.0704  15.0729  15.1160  15.1818  15.2445  15.3040
    15.3310  15.4454  15.4501  15.4856  15.5248  15.5673  15.6006  15.6713
    15.6853  15.7351  15.7963  15.8483  15.8940  15.9020  15.9663  16.0449
    16.0791  16.0891  16.1699  16.2843  16.2920  16.3546  16.3665  16.4315
    16.5151  16.5444  16.6295  16.6447  16.7724  17.0441  17.5086  17.6458
    17.6502  18.3137  18.3406  18.7786  18.9822  19.1295  19.3130  20.0172
    20.0254  20.0587  20.3010  21.1730  21.1851  21.3151  21.5438  22.2787
    22.4962  22.9196  23.2607  23.5492  23.7176  24.0188  24.0357  24.2219
    24.5130  24.7584  25.1711  25.2744  25.3001  25.3532  25.5435  25.9151
    25.9410

          k = 0.0000 0.1768 0.0000 ( 17795 PWs)   bands (ev):

     0.4147   0.5147   1.8018   2.7071   2.9596   3.3616   3.8114   3.9532
     4.7938   5.2576   5.2764   6.1328   6.6677   7.3072   7.4344   7.7514
     8.1892   8.4498   8.6423   8.9349   9.5428   9.7291   9.8113  10.0753
    10.0918  10.3401  10.4354  10.5313  10.6957  10.7032  10.8790  10.8964
    10.9382  10.9888  11.0410  11.0429  11.1440  11.2667  11.2890  11.3710
    11.3815  11.3889  11.4729  11.4765  11.5058  11.6055  11.6079  11.6809
    11.7114  11.8258  11.8590  11.9205  11.9631  12.0244  12.0520  12.0922
    12.1735  12.1905  12.2546  12.2623  12.3376  12.3780  12.4486  12.5333
    12.5387  12.6065  12.6496  12.6738  12.6864  12.7016  12.8286  12.8947
    13.0289  13.0512  13.0569  13.1184  13.1279  13.2962  13.3283  13.3423
    13.4670  13.4944  13.5292  13.5406  13.6264  13.6768  13.6855  13.7734
    13.8478  13.8823  13.9155  13.9871  14.0497  14.1006  14.1132  14.2356
    14.3484  14.3525  14.3799  14.4630  14.4684  14.4967  14.5198  14.5596
    14.5709  14.6724  14.7262  14.7312  14.7565  14.7936  14.8256  14.9053
    14.9380  14.9715  14.9916  15.0266  15.0497  15.1482  15.1501  15.2644
    15.2889  15.3203  15.3885  15.3980  15.4520  15.4712  15.5079  15.5477
    15.6276  15.6506  15.7601  15.7819  15.7908  15.8599  15.9270  15.9291
    15.9781  16.0252  16.0469  16.0480  16.0886  16.1636  16.2314  16.2488
    16.3044  16.3708  16.4788  16.6565  16.7706  17.0533  17.3368  17.7576
    17.7724  18.3805  18.5078  19.0101  19.1963  19.9159  20.0444  20.4977
    20.5930  20.7273  20.7420  21.3995  21.4221  21.4719  21.7520  22.3949
    22.6593  22.8306  23.0245  23.7234  23.7667  23.9285  24.0280  24.1831
    24.1959  24.7418  24.7538  24.8115  25.1265  25.2047  25.2450  25.3571
    25.4937

          k = 0.0000 0.2357 0.0000 ( 17822 PWs)   bands (ev):

     0.2415   0.3207   1.9251   2.5437   3.1502   3.5434   4.0158   4.1041
     4.8387   5.5300   5.5867   6.0794   6.8697   7.2000   7.2901   7.6656
     7.7438   8.3331   8.7357   8.8917   9.6116   9.8872   9.9826  10.0383
    10.2092  10.2596  10.2608  10.2976  10.6597  10.8151  10.8874  10.9753
    10.9772  11.0410  11.0836  11.1262  11.2138  11.2516  11.3833  11.4151
    11.4199  11.4279  11.4920  11.5308  11.5768  11.6482  11.6647  11.7873
    11.8097  11.8745  11.9022  11.9451  11.9478  11.9665  12.0237  12.0996
    12.1587  12.1629  12.2785  12.3213  12.3618  12.3991  12.4240  12.4502
    12.4829  12.5554  12.5799  12.6012  12.6694  12.7660  12.8160  12.8900
    12.9411  12.9513  13.0256  13.0882  13.1249  13.2070  13.3232  13.3276
    13.4968  13.5386  13.5861  13.6100  13.6556  13.6680  13.7345  13.7802
    13.7874  13.8341  13.9041  13.9256  13.9873  13.9903  14.0924  14.1406
    14.2335  14.2962  14.3430  14.3683  14.3973  14.4054  14.4946  14.5119
    14.5133  14.5417  14.6265  14.6825  14.6902  14.7217  14.7820  14.8389
    14.8437  14.8941  14.9146  14.9688  14.9768  15.0654  15.1064  15.1077
    15.1567  15.2145  15.2584  15.2823  15.3881  15.4212  15.4557  15.4785
    15.5427  15.6012  15.6394  15.6438  15.6737  15.6906  15.7404  15.7722
    15.8581  15.9607  16.0091  16.0475  16.0792  16.0941  16.1710  16.1834
    16.3265  16.4372  16.5449  16.5723  16.7337  17.0933  17.1484  17.7468
    17.9782  18.3744  19.1263  19.2843  19.4573  20.6218  20.7371  20.7979
    20.8135  20.8537  21.1047  21.6676  22.0112  22.0649  22.1385  22.5066
    22.5311  22.7295  23.1784  23.5198  23.7564  23.7717  24.0028  24.2181
    24.2800  24.3893  24.6052  24.6328  24.6931  24.8303  24.9654  25.0377
    25.1714

          k = 0.0000 0.2946 0.0000 ( 17818 PWs)   bands (ev):

     0.1439   0.1869   2.0548   2.3670   3.3867   3.7464   3.8665   4.1046
     5.1375   5.8654   5.8764   6.1668   6.7786   7.0666   7.3451   7.4902
     7.5596   7.6524   9.0649   9.1914   9.7251   9.8245   9.8689  10.0523
    10.0721  10.1602  10.1627  10.4560  10.5419  10.7952  10.8857  11.0024
    11.1496  11.1537  11.2013  11.2395  11.2950  11.3161  11.3651  11.4431
    11.4812  11.5545  11.5714  11.5716  11.6096  11.6410  11.6843  11.6951
    11.7854  11.8202  11.8784  11.9088  11.9414  12.0300  12.0334  12.0979
    12.1129  12.2192  12.2567  12.2670  12.3361  12.3496  12.4002  12.4976
    12.5140  12.5362  12.5711  12.6576  12.7126  12.7261  12.7631  12.8943
    12.9508  12.9913  13.0272  13.0558  13.1669  13.2585  13.3442  13.3593
    13.4204  13.5025  13.5741  13.5877  13.6155  13.7125  13.7412  13.7825
    13.8158  13.8230  13.8829  13.9090  13.9271  14.0369  14.0529  14.0868
    14.1105  14.1348  14.1977  14.2164  14.2787  14.3462  14.3477  14.3822
    14.4569  14.4627  14.5360  14.5532  14.5892  14.7232  14.7398  14.7739
    14.8215  14.8236  14.8722  14.9010  14.9651  15.0163  15.0362  15.0465
    15.1008  15.1407  15.1793  15.1937  15.2374  15.3668  15.4023  15.4102
    15.4794  15.4900  15.5652  15.6357  15.6389  15.6853  15.7419  15.7555
    15.8466  15.9486  16.0027  16.0469  16.0522  16.0725  16.1551  16.1724
    16.3655  16.4552  16.5517  16.6064  16.7066  16.9079  17.2874  17.6095
    18.1504  18.3372  19.5855  19.7477  19.8270  20.3745  20.5633  21.1409
    21.4409  21.5143  21.5632  21.8106  22.0174  22.4277  22.6070  22.6655
    22.8123  23.0343  23.1372  23.3261  23.4464  23.7001  23.8120  23.8728
    23.8988  24.1555  24.4771  24.4875  24.6485  24.7856  24.8684  24.9340
    25.0896

          k = 0.0000-0.3536 0.0000 ( 17844 PWs)   bands (ev):

     0.1259   0.1259   2.2016   2.2016   3.6361   3.6361   3.9469   3.9469
     5.5277   5.5277   6.2869   6.2869   6.8805   6.8805   7.3132   7.3132
     7.4458   7.4458   9.4423   9.4423   9.5242   9.5242   9.8878   9.8878
    10.1200  10.1200  10.3634  10.3634  10.6470  10.6470  10.9792  10.9792
    11.2084  11.2084  11.2914  11.2914  11.3101  11.3101  11.4763  11.4763
    11.5420  11.5420  11.5687  11.5687  11.6231  11.6231  11.6569  11.6569
    11.7510  11.7510  11.8629  11.8629  12.0314  12.0314  12.0576  12.0576
    12.1204  12.1204  12.2487  12.2487  12.3804  12.3804  12.4099  12.4099
    12.5586  12.5586  12.5972  12.5972  12.7670  12.7670  12.8475  12.8475
    12.9194  12.9194  13.1102  13.1102  13.1753  13.1753  13.4030  13.4030
    13.5462  13.5462  13.5586  13.5586  13.6376  13.6376  13.6805  13.6805
    13.8534  13.8534  13.9121  13.9121  13.9576  13.9576  13.9821  13.9821
    14.0610  14.0610  14.1809  14.1809  14.2768  14.2768  14.3219  14.3219
    14.3520  14.3520  14.4855  14.4855  14.6275  14.6275  14.7963  14.7963
    14.8488  14.8488  14.8811  14.8811  14.9340  14.9340  15.0127  15.0127
    15.0702  15.0702  15.2393  15.2393  15.2852  15.2852  15.3383  15.3383
    15.4113  15.4113  15.5784  15.5784  15.7154  15.7154  15.7712  15.7712
    15.8849  15.8849  16.0266  16.0266  16.0391  16.0391  16.1668  16.1668
    16.4138  16.4138  16.5957  16.5957  16.7711  16.7711  17.4470  17.4471
    18.2675  18.2675  19.8748  19.8748  20.0569  20.0569  20.9988  20.9988
    21.4143  21.4143  22.2238  22.2238  22.3415  22.3415  22.4110  22.4110
    23.0970  23.0970  23.1951  23.1951  23.5213  23.5213  23.7615  23.7615
    23.9681  23.9682  24.3846  24.3846  24.6097  24.6098  24.8060  24.8061
    25.3173

          k = 0.1250 0.0000 0.0000 ( 17777 PWs)   bands (ev):

     1.0448   1.2270   1.2271   2.7112   2.9737   3.0700   3.2197   3.2199
     4.8836   5.0401   5.7079   5.7085   6.3725   7.4787   7.4792   7.8182
     8.2246   8.4413   9.1651   9.5590   9.6334   9.6588   9.6589   9.7744
    10.1083  10.3467  10.3508  10.3762  10.6244  10.6562  10.6578  10.9073
    10.9286  10.9634  11.0993  11.1522  11.2088  11.2114  11.2200  11.2293
    11.2632  11.3453  11.3629  11.4440  11.4570  11.4850  11.5239  11.5761
    11.6282  11.6419  11.6746  11.6857  11.7547  11.9266  11.9574  12.1350
    12.2959  12.3874  12.3905  12.4294  12.5774  12.7032  12.7562  12.7733
    12.8372  12.8444  12.8452  12.8755  12.9674  13.0088  13.0652  13.0695
    13.1389  13.1805  13.2103  13.2390  13.2867  13.3139  13.3202  13.3703
    13.3830  13.4169  13.4637  13.5287  13.5336  13.5974  13.6464  13.7129
    13.7530  13.7627  13.8748  13.8836  13.9887  14.1409  14.1527  14.2398
    14.2586  14.2625  14.3657  14.4925  14.5108  14.5407  14.5933  14.6219
    14.6691  14.7632  14.8096  14.8172  14.8521  14.8616  14.9206  14.9849
    15.0008  15.0072  15.0302  15.0552  15.2148  15.2523  15.2725  15.3154
    15.4038  15.4117  15.4425  15.5289  15.5539  15.5965  15.6158  15.6494
    15.7039  15.7906  15.8507  15.8636  15.9270  15.9304  15.9465  16.0251
    16.0500  16.0637  16.0662  16.1326  16.2472  16.2557  16.3508  16.5568
    16.6918  17.1364  17.1780  17.3478  17.3493  17.6913  17.6918  17.9701
    17.9713  18.1322  18.2824  18.2972  18.5737  18.6888  18.7408  19.0127
    19.1486  19.3349  19.3743  19.7485  20.9529  20.9553  21.0282  21.4899
    22.4089  22.8673  23.3569  23.3628  23.5281  24.0575  24.2072  24.2634
    24.3072  24.3254  24.3326  24.7106  24.7737  24.9585  24.9619  25.1951
    25.5429

          k = 0.1250 0.0589 0.0000 ( 17791 PWs)   bands (ev):

     0.9438   0.9586   1.4740   2.7301   3.0310   3.1127   3.1828   3.3891
     4.8741   5.0744   5.5050   5.9037   6.4139   7.4130   7.5181   7.8091
     8.2647   8.4759   9.1777   9.2516   9.5765   9.6463   9.8074   9.9746
    10.0745  10.2461  10.4101  10.4604  10.6097  10.6175  10.6928  10.8970
    10.9511  10.9749  11.0724  11.1099  11.1729  11.2030  11.2267  11.2790
    11.3049  11.3461  11.4072  11.4260  11.4973  11.5020  11.5489  11.5701
    11.6620  11.6669  11.6764  11.7698  11.7733  11.8823  11.9955  12.1391
    12.2974  12.3413  12.4013  12.4106  12.5070  12.6426  12.6909  12.7459
    12.7945  12.8352  12.8373  12.9069  12.9580  13.0082  13.0113  13.0403
    13.1678  13.1734  13.1825  13.2238  13.2666  13.3174  13.3254  13.3939
    13.4053  13.4315  13.4332  13.4820  13.5357  13.5762  13.6813  13.7011
    13.7565  13.7856  13.8993  13.9017  13.9590  14.0803  14.1775  14.2153
    14.2331  14.2802  14.4100  14.4244  14.4782  14.5350  14.5865  14.6082
    14.6711  14.7679  14.7713  14.8157  14.8491  14.8782  14.9007  14.9552
    14.9661  15.0159  15.0255  15.0580  15.1983  15.2060  15.2653  15.2952
    15.3751  15.4263  15.4360  15.4529  15.5201  15.5708  15.6175  15.6720
    15.7300  15.7983  15.8246  15.8628  15.8810  15.9323  15.9629  16.0020
    16.0340  16.0386  16.0758  16.1189  16.1406  16.3640  16.4578  16.5082
    16.7098  16.8922  17.0544  17.1098  17.2361  17.3418  17.5298  17.6598
    18.1983  18.2182  18.4290  18.5486  18.6719  18.9373  19.0144  19.0605
    19.2143  19.4684  19.6131  19.8055  21.0674  21.0844  21.1711  21.5258
    22.4571  22.6508  22.9237  23.5402  23.5446  23.6568  23.8817  24.0663
    24.1457  24.3065  24.4338  24.7677  25.0119  25.1338  25.1769  25.5069
    25.7453

          k = 0.1250 0.1179 0.0000 ( 17815 PWs)   bands (ev):

     0.6676   0.7589   1.6605   2.7831   2.9500   3.2491   3.4403   3.6742
     4.8314   5.1922   5.3367   6.0612   6.5296   7.3349   7.5206   7.7798
     8.3820   8.5735   8.7675   9.1788   9.5853   9.7357   9.8745   9.9767
    10.1657  10.2077  10.5110  10.5140  10.5612  10.6330  10.7114  10.9022
    10.9868  10.9942  11.0146  11.1155  11.1555  11.2050  11.2642  11.2929
    11.3544  11.3803  11.4466  11.4887  11.4978  11.5336  11.5754  11.7106
    11.7245  11.7278  11.7703  11.8173  11.8343  11.9001  12.0038  12.1439
    12.2711  12.2949  12.3547  12.3629  12.4103  12.4963  12.5907  12.6726
    12.7601  12.7714  12.8094  12.8502  12.9106  12.9210  12.9640  13.0400
    13.1134  13.1353  13.1529  13.1847  13.2480  13.2929  13.3113  13.3858
    13.4061  13.4548  13.4767  13.4984  13.5018  13.6147  13.6750  13.6856
    13.7799  13.8281  13.8903  13.8956  13.9462  14.0338  14.1343  14.1640
    14.1889  14.2909  14.3168  14.4044  14.4265  14.5088  14.5801  14.5887
    14.6457  14.6570  14.7533  14.7732  14.7899  14.8329  14.8686  14.9351
    14.9667  14.9744  14.9983  15.0809  15.1265  15.2106  15.2274  15.2699
    15.2749  15.3454  15.4044  15.4510  15.5083  15.5413  15.5982  15.6084
    15.7003  15.7444  15.7831  15.8284  15.8443  15.9148  15.9450  15.9576
    15.9742  15.9874  16.0498  16.1293  16.1525  16.3731  16.4025  16.4217
    16.4976  16.6453  16.7411  16.7625  16.8820  17.0207  17.4351  17.8554
    18.0650  18.4092  18.5212  18.7164  18.9200  19.2006  19.2866  19.4071
    19.4696  19.9738  20.2712  20.3864  21.1789  21.1931  21.3330  21.6266
    22.2639  22.5932  23.0892  23.1511  23.1996  23.4436  23.5296  23.5754
    24.0922  24.3049  24.3813  24.6676  25.0875  25.3161  25.7254  25.9110
    25.9870

          k = 0.1250 0.1768 0.0000 ( 17796 PWs)   bands (ev):

     0.4339   0.5367   1.8004   2.7069   3.0165   3.3853   3.8277   3.9523
     4.7729   5.2992   5.3952   6.1487   6.6976   7.2698   7.4743   7.7255
     8.2505   8.5478   8.6910   9.0577   9.5922   9.8177   9.9308  10.0774
    10.1072  10.3447  10.4054  10.5083  10.6678  10.6916  10.6961  10.9519
    10.9973  11.0103  11.0407  11.0758  11.1694  11.2563  11.3034  11.3518
    11.4090  11.4454  11.4656  11.5085  11.5626  11.5943  11.6809  11.7837
    11.7995  11.8019  11.8717  11.8941  11.9426  11.9493  12.0146  12.1285
    12.2223  12.2428  12.2920  12.3017  12.3678  12.4048  12.4956  12.5910
    12.6685  12.6852  12.7498  12.7581  12.8100  12.8627  12.9150  12.9652
    13.0048  13.0818  13.0997  13.1457  13.1876  13.2630  13.3134  13.3573
    13.3978  13.4900  13.5144  13.5266  13.5600  13.6179  13.6863  13.7387
    13.7716  13.7874  13.8320  13.8796  14.0019  14.0063  14.0431  14.0598
    14.1676  14.1944  14.2778  14.2959  14.3717  14.4739  14.5089  14.5462
    14.5672  14.6138  14.6644  14.6682  14.7236  14.7363  14.8457  14.8601
    14.9347  14.9375  14.9955  15.0503  15.0522  15.1197  15.1824  15.2166
    15.2514  15.2841  15.3243  15.4540  15.4657  15.5098  15.5627  15.5809
    15.5813  15.6547  15.7359  15.7376  15.7998  15.8824  15.8876  15.9037
    15.9160  15.9511  15.9690  16.0404  16.0577  16.1535  16.2135  16.2845
    16.3502  16.3750  16.4212  16.6986  16.7921  17.0232  17.6727  17.8128
    18.0909  18.4551  18.6089  18.7318  19.2290  19.4433  19.7102  20.1165
    20.2368  20.2434  20.6161  21.0655  21.3372  21.3497  21.4202  21.7711
    22.0224  22.7050  22.7779  22.8983  23.3002  23.3442  23.3541  23.6330
    24.1301  24.2453  24.3010  24.4320  24.8152  25.4356  25.7160  25.9178
    25.9183

          k = 0.1250 0.2357 0.0000 ( 17785 PWs)   bands (ev):

     0.2640   0.3459   1.9236   2.5383   3.2058   3.5647   4.0256   4.1105
     4.8036   5.4975   5.6780   6.1739   6.8911   7.2072   7.3747   7.6418
     7.7873   8.3337   8.8740   9.0937   9.6419   9.9357  10.0419  10.1215
    10.1873  10.2597  10.2863  10.4011  10.6651  10.7406  10.8683  10.9265
    11.0038  11.0807  11.0902  11.1767  11.1833  11.3248  11.3491  11.4301
    11.4502  11.4964  11.4983  11.5327  11.6298  11.6574  11.7821  11.7830
    11.8506  11.8839  11.9395  11.9482  11.9928  12.0401  12.0526  12.1053
    12.1837  12.2081  12.2533  12.3108  12.3552  12.4097  12.4313  12.4787
    12.5794  12.6218  12.6226  12.6658  12.7239  12.8396  12.8501  12.9271
    12.9310  13.0115  13.0615  13.0955  13.1609  13.2045  13.2655  13.3317
    13.4309  13.4484  13.5614  13.5688  13.5947  13.6462  13.6749  13.7153
    13.7454  13.7833  13.8331  13.8373  13.8644  13.9578  14.0171  14.0346
    14.0723  14.1803  14.1916  14.2489  14.2747  14.3752  14.4065  14.4546
    14.4801  14.5084  14.5930  14.6152  14.6422  14.6910  14.7212  14.7626
    14.8631  14.8932  14.9930  14.9932  15.0047  15.0307  15.0738  15.1283
    15.2110  15.2239  15.2850  15.3344  15.4004  15.4320  15.4325  15.4900
    15.5834  15.5841  15.6210  15.6218  15.6802  15.7121  15.7816  15.8716
    15.8732  15.9193  15.9475  15.9844  16.0308  16.1070  16.1264  16.2051
    16.3058  16.3850  16.4404  16.5917  16.8053  17.1430  17.5524  17.8997
    17.9408  18.3291  18.7852  19.4856  19.5410  19.7885  20.0945  20.0982
    20.5915  20.8262  20.9995  21.1662  21.4489  21.5660  21.9307  21.9928
    22.0983  22.2896  22.6771  22.8465  23.2969  23.4527  23.6116  23.7328
    24.1142  24.2714  24.3617  24.4398  24.4909  24.9158  25.4424  25.5559
    25.9894

          k = 0.1250 0.2946 0.0000 ( 17801 PWs)   bands (ev):

     0.1687   0.2132   2.0527   2.3625   3.4346   3.7648   3.8930   4.1148
     5.0597   5.6104   6.0369   6.4068   6.9081   7.0811   7.3810   7.5015
     7.5049   7.7768   9.1854   9.3366   9.7590   9.8518   9.9270  10.1016
    10.1062  10.2645  10.2720  10.4859  10.5995  10.8495  10.8554  11.0122
    11.0316  11.0894  11.2044  11.2756  11.3157  11.3634  11.3726  11.4377
    11.4737  11.4991  11.5653  11.5818  11.6827  11.7056  11.7654  11.7771
    11.8318  11.8494  11.9613  11.9696  11.9871  12.0606  12.0777  12.1693
    12.1814  12.2421  12.2695  12.2769  12.3721  12.3842  12.4306  12.4643
    12.5418  12.5647  12.5836  12.6543  12.6991  12.7583  12.8165  12.8562
    12.9120  13.0126  13.0292  13.0713  13.1303  13.2509  13.3015  13.3139
    13.3809  13.4442  13.4455  13.5760  13.6242  13.6399  13.6831  13.6857
    13.7244  13.7336  13.7883  13.8051  13.8840  13.8873  13.9329  13.9667
    14.0534  14.0614  14.0896  14.1719  14.1735  14.2467  14.3070  14.3742
    14.4674  14.4831  14.5461  14.6013  14.6724  14.6883  14.6886  14.7540
    14.7608  14.8361  14.8563  14.8916  14.9575  14.9584  15.0311  15.0398
    15.0907  15.1247  15.1786  15.2156  15.2228  15.3025  15.3976  15.4420
    15.4463  15.5652  15.6118  15.6531  15.6718  15.7271  15.7847  15.8513
    15.8830  15.9632  15.9715  16.0188  16.0200  16.0510  16.0937  16.1259
    16.3520  16.3992  16.4789  16.5306  16.8874  17.2905  17.3179  17.7372
    18.0764  18.2473  18.9784  19.6219  19.8673  20.1821  20.3972  20.5395
    20.5676  20.9778  21.0568  21.4117  21.6622  21.8006  22.0301  22.0617
    22.1278  22.4487  22.5779  22.7150  23.6307  23.6626  23.7905  23.8367
    23.9323  24.0986  24.5017  24.5179  24.5364  24.6589  25.0630  25.2189
    25.6214

          k = 0.1250-0.3536 0.0000 ( 17808 PWs)   bands (ev):

     0.1521   0.1521   2.1985   2.1985   3.6745   3.6745   3.9617   3.9617
     5.3881   5.3881   6.4563   6.4563   6.9705   6.9705   7.3206   7.3206
     7.4921   7.4921   9.5347   9.5347   9.6195   9.6195   9.9351   9.9351
    10.1870  10.1870  10.4374  10.4374  10.7108  10.7108  10.9796  10.9796
    11.0908  11.0908  11.2962  11.2962  11.3423  11.3423  11.4481  11.4481
    11.5048  11.5048  11.5781  11.5781  11.6453  11.6453  11.7989  11.7989
    11.8389  11.8389  11.9245  11.9245  12.0396  12.0396  12.1267  12.1267
    12.2111  12.2111  12.2848  12.2848  12.3731  12.3731  12.4745  12.4745
    12.5534  12.5534  12.5964  12.5964  12.7304  12.7304  12.8477  12.8477
    12.9340  12.9340  13.0278  13.0278  13.1651  13.1651  13.3611  13.3611
    13.4514  13.4514  13.5253  13.5253  13.5590  13.5590  13.6698  13.6698
    13.7091  13.7091  13.7928  13.7928  13.8433  13.8433  13.9195  13.9195
    13.9658  13.9658  14.0841  14.0841  14.1605  14.1605  14.3898  14.3898
    14.4829  14.4829  14.5978  14.5978  14.6647  14.6647  14.7124  14.7124
    14.7833  14.7833  14.8068  14.8068  14.9024  14.9024  14.9802  14.9802
    15.0442  15.0442  15.1347  15.1347  15.3044  15.3044  15.3581  15.3581
    15.5035  15.5035  15.6302  15.6302  15.7098  15.7098  15.8427  15.8427
    15.9335  15.9335  15.9974  15.9974  16.0486  16.0486  16.0738  16.0738
    16.3816  16.3816  16.5070  16.5070  17.0593  17.0593  17.5222  17.5222
    18.1820  18.1820  19.2507  19.2507  20.2110  20.2110  20.5852  20.5852
    20.9725  20.9725  21.2570  21.2570  21.6385  21.6385  22.0527  22.0527
    22.2501  22.2501  23.1215  23.1216  23.2094  23.2094  23.8879  23.8879
    24.1210  24.1210  24.5826  24.5827  24.8338  24.8338  24.9896  24.9896
    25.4087

          k = 0.2500 0.0000 0.0000 ( 17793 PWs)   bands (ev):

     1.0567   1.2363   1.2364   2.9653   3.0358   3.0673   3.2867   3.2869
     4.8436   5.3074   5.7838   5.7843   6.5507   7.3941   7.3947   7.5914
     8.6036   8.8413   9.2353   9.4299   9.4304   9.6867   9.7113   9.8393
    10.0911  10.3208  10.3578  10.3580  10.6528  10.7275  10.7295  10.9265
    10.9429  10.9691  10.9694  11.0178  11.1322  11.1670  11.2619  11.2740
    11.3292  11.3778  11.4016  11.4198  11.4892  11.4894  11.5160  11.6555
    11.6572  11.6632  11.8691  11.8867  11.8976  12.1627  12.2090  12.2147
    12.4365  12.4557  12.5138  12.5206  12.6963  12.7666  12.8211  12.8259
    12.8633  12.9882  12.9979  13.0273  13.0347  13.0966  13.1674  13.2345
    13.2453  13.2747  13.2953  13.3236  13.3509  13.3722  13.4257  13.4505
    13.4748  13.5080  13.5481  13.5940  13.6191  13.6320  13.6864  13.7459
    13.8212  13.8692  13.8834  13.9426  13.9502  13.9770  14.0016  14.0113
    14.1333  14.1931  14.2040  14.2368  14.3676  14.3878  14.3948  14.4462
    14.5397  14.5446  14.5603  14.5691  14.6066  14.6975  14.7388  14.8402
    14.8473  14.9267  15.0015  15.0864  15.0930  15.1254  15.1725  15.2724
    15.3067  15.3117  15.3164  15.4870  15.5351  15.5429  15.6046  15.6097
    15.7166  15.7517  15.7893  15.8016  15.8095  15.8678  15.9059  15.9294
    15.9557  15.9749  16.1029  16.1325  16.1663  16.4047  16.4052  16.4827
    16.6056  17.1116  17.1544  17.1663  17.1739  17.2074  17.4459  17.7988
    17.8085  17.8242  18.2037  18.2165  18.8373  18.8962  18.9807  19.1611
    19.2941  19.4130  19.5122  19.6985  20.4410  20.4995  21.1055  21.1241
    21.6401  22.1748  22.1873  22.4858  22.8044  22.8114  22.9939  22.9939
    23.3029  23.3207  23.3779  23.5731  23.5900  23.7991  24.5333  24.5770
    25.2353

          k = 0.2500 0.0589 0.0000 ( 17783 PWs)   bands (ev):

     0.9671   0.9805   1.4731   2.9295   3.0296   3.2083   3.2525   3.4409
     4.8285   5.3554   5.6056   5.9486   6.5847   7.3305   7.4500   7.5981
     8.6353   8.8587   9.1578   9.2620   9.6611   9.6942   9.7303   9.8755
    10.1132  10.2658  10.3609  10.4483  10.6046  10.6154  10.8161  10.8654
    10.9558  10.9670  10.9999  11.0811  11.1178  11.2143  11.2219  11.3320
    11.3631  11.3641  11.4234  11.4575  11.5024  11.5204  11.5480  11.6400
    11.6681  11.7077  11.8490  11.8776  11.9456  12.1702  12.1862  12.2167
    12.4104  12.4528  12.5065  12.5328  12.6657  12.7202  12.8002  12.8056
    12.8694  12.9582  12.9780  13.0151  13.0153  13.0880  13.1437  13.1805
    13.2263  13.2681  13.2726  13.3148  13.3740  13.3991  13.4138  13.4268
    13.4651  13.5309  13.5550  13.5802  13.6160  13.6281  13.6479  13.7170
    13.7611  13.8355  13.8609  13.8927  13.9061  13.9549  13.9892  14.0205
    14.1103  14.1627  14.1997  14.2259  14.2940  14.3488  14.3864  14.4152
    14.4881  14.5161  14.5333  14.5989  14.6307  14.6737  14.8104  14.8158
    14.8565  14.9213  15.0372  15.0386  15.0805  15.1192  15.2118  15.2576
    15.2950  15.3064  15.3950  15.4648  15.5023  15.5196  15.5753  15.6882
    15.6967  15.7335  15.7660  15.7932  15.8184  15.8315  15.8972  15.9230
    15.9462  15.9604  16.0605  16.0913  16.1767  16.2223  16.4662  16.5893
    16.6485  16.8571  16.9964  17.0777  17.1305  17.2725  17.4095  17.5723
    17.7440  17.8935  18.2007  18.5584  18.7315  18.9025  18.9069  19.2082
    19.5834  19.7591  19.8032  19.9142  20.1856  20.2379  21.0426  21.3404
    21.6572  21.8894  22.1545  22.2653  22.4943  22.5562  22.8348  23.1241
    23.4267  23.6605  23.8471  23.8506  24.0904  24.2223  24.2716  24.7667
    25.2522

          k = 0.2500 0.1179 0.0000 ( 17763 PWs)   bands (ev):

     0.7044   0.7988   1.6556   2.8482   3.0620   3.3161   3.5098   3.6947
     4.7831   5.4463   5.4962   6.0779   6.6810   7.2773   7.4843   7.6121
     8.7116   8.8316   8.9101   9.3350   9.6712   9.8485   9.8581   9.9780
    10.1351  10.1893  10.4239  10.4741  10.5023  10.5233  10.8553  10.8922
    11.0000  11.0100  11.0513  11.0901  11.1820  11.1967  11.3191  11.3373
    11.4070  11.4527  11.4704  11.5483  11.5539  11.5792  11.6346  11.6608
    11.6940  11.7744  11.8167  11.9031  12.0122  12.1446  12.1853  12.1969
    12.3557  12.4204  12.4870  12.5373  12.5976  12.6281  12.7191  12.7750
    12.8370  12.8819  12.9145  12.9683  12.9728  13.0400  13.0542  13.1244
    13.2051  13.2103  13.2818  13.2872  13.3435  13.3731  13.4024  13.4030
    13.4742  13.4860  13.5261  13.5668  13.5751  13.6122  13.6382  13.6579
    13.6969  13.7292  13.7749  13.8247  13.8797  13.8947  13.9328  13.9921
    14.0238  14.0833  14.1727  14.1818  14.2391  14.2391  14.2954  14.3678
    14.4262  14.4599  14.5316  14.5825  14.5887  14.6957  14.7756  14.7808
    14.8333  14.9694  14.9808  15.0312  15.1095  15.1321  15.2341  15.2342
    15.2631  15.2935  15.3952  15.4537  15.5320  15.5551  15.5609  15.6411
    15.6698  15.6936  15.6939  15.7665  15.7986  15.7988  15.8441  15.8996
    15.9055  15.9687  15.9925  15.9954  16.0768  16.2459  16.2544  16.4543
    16.4565  16.7044  16.7249  16.9349  17.1212  17.2939  17.4957  17.5201
    17.7693  17.9089  18.0690  18.3726  19.0747  19.2670  19.3344  19.4493
    19.6936  19.7935  19.8317  19.9336  20.3992  20.7105  20.9309  21.2747
    21.4811  21.7076  21.7898  22.1279  22.5185  22.5239  22.6751  23.4936
    23.5688  23.8844  23.9911  24.2970  24.6306  24.9035  25.0514  25.3028
    25.3945

          k = 0.2500 0.1768 0.0000 ( 17751 PWs)   bands (ev):

     0.4818   0.5905   1.7951   2.6981   3.1872   3.4477   3.8559   3.9471
     4.7201   5.3582   5.7205   6.1738   6.8240   7.2548   7.4907   7.6178
     8.4497   8.7186   9.0275   9.4166   9.6769   9.9961   9.9983  10.0632
    10.1330  10.1631  10.3857  10.4391  10.4975  10.6449  10.8230  10.9578
    11.0561  11.0761  11.1073  11.1771  11.1775  11.3023  11.3362  11.4325
    11.4566  11.5215  11.5375  11.6176  11.6210  11.6828  11.7147  11.7459
    11.7609  11.7883  11.8743  11.9541  12.0522  12.1196  12.1561  12.1954
    12.3254  12.3568  12.4661  12.4787  12.5451  12.5568  12.6149  12.6819
    12.7563  12.7654  12.8527  12.9164  12.9183  12.9273  12.9877  13.0707
    13.0908  13.1634  13.1711  13.2335  13.2690  13.3222  13.3652  13.3843
    13.4349  13.4438  13.4751  13.5254  13.5430  13.5785  13.5818  13.6242
    13.6560  13.7100  13.7283  13.7853  13.8037  13.8098  13.8900  13.9158
    13.9675  13.9784  14.0884  14.0945  14.1508  14.1652  14.2862  14.3367
    14.3730  14.3828  14.4944  14.4963  14.5425  14.6488  14.7104  14.7552
    14.7797  14.8989  14.9873  15.0165  15.0409  15.1061  15.1313  15.2450
    15.2699  15.3304  15.3368  15.4446  15.4560  15.5282  15.5344  15.5701
    15.6158  15.6218  15.6638  15.7029  15.7363  15.7615  15.7968  15.8090
    15.8308  15.8928  15.9012  15.9382  16.0240  16.0365  16.1442  16.1541
    16.4825  16.5720  16.7527  16.9004  17.0263  17.1257  17.2843  17.7952
    17.9479  18.0882  18.2833  18.3622  19.0149  19.1389  19.2904  19.5421
    19.9296  20.1152  20.2029  20.3787  20.4389  20.6878  21.0141  21.2078
    21.4444  21.7906  22.0073  22.1466  22.5475  22.5558  22.9730  23.4402
    23.6067  23.7805  24.2293  25.0566  25.3714  25.3849  25.4760  25.7747
    25.8720

          k = 0.2500 0.2357 0.0000 ( 17768 PWs)   bands (ev):

     0.3202   0.4076   1.9180   2.5242   3.3655   3.6210   4.0474   4.1204
     4.7094   5.3581   6.0159   6.3099   6.9936   7.2590   7.4752   7.5966
     8.0356   8.4702   9.2404   9.4650   9.7868   9.9759  10.0387  10.0954
    10.2357  10.3756  10.3773  10.4212  10.5668  10.7139  10.8024  11.0347
    11.0666  11.1234  11.2035  11.2073  11.2874  11.3430  11.4185  11.4791
    11.4867  11.5625  11.6019  11.6094  11.6394  11.7546  11.8064  11.8210
    11.8348  11.9233  11.9611  12.0568  12.0697  12.1021  12.2064  12.2169
    12.2956  12.3239  12.4087  12.4284  12.4470  12.5144  12.5296  12.5711
    12.6425  12.6915  12.7788  12.8031  12.8611  12.8689  12.9005  12.9864
    13.0135  13.0531  13.0899  13.1279  13.1818  13.2489  13.2975  13.3193
    13.3563  13.3959  13.4362  13.4787  13.5031  13.5126  13.5412  13.5858
    13.6218  13.6427  13.6966  13.7178  13.7675  13.8047  13.8086  13.8364
    13.9129  13.9622  13.9701  14.1081  14.1417  14.1582  14.1857  14.2690
    14.3063  14.3971  14.4055  14.4837  14.5245  14.5456  14.6872  14.7011
    14.8062  14.8081  14.8576  14.9088  14.9769  14.9996  15.0711  15.1130
    15.1990  15.2275  15.2863  15.3133  15.3858  15.4040  15.4349  15.4487
    15.5181  15.5520  15.6038  15.6653  15.6765  15.7394  15.7599  15.7794
    15.7944  15.8619  15.9080  15.9405  15.9898  16.0410  16.0933  16.1421
    16.3047  16.6119  16.6724  16.8964  16.9131  17.2055  17.5480  17.9444
    17.9999  18.1675  18.2072  18.5601  18.5879  19.0050  19.5011  19.8351
    19.8619  20.0638  20.3935  20.4932  20.5605  20.7935  21.1500  21.6576
    21.8370  21.9083  22.1776  22.2752  22.6050  22.7480  22.9586  23.6820
    23.9111  23.9335  24.5508  25.1798  25.5384  25.5520  25.8024  25.8660
    26.0598

          k = 0.2500 0.2946 0.0000 ( 17790 PWs)   bands (ev):

     0.2305   0.2783   2.0458   2.3503   3.5726   3.8128   3.9649   4.1411
     4.8789   5.3058   6.3573   6.5796   7.1737   7.2390   7.4842   7.5322
     7.6554   8.0084   9.4979   9.5652   9.8390   9.9811  10.0079  10.1773
    10.2609  10.3501  10.4625  10.5595  10.6431  10.7646  10.9264  10.9600
    11.0976  11.1557  11.1700  11.3043  11.3781  11.3948  11.4319  11.4872
    11.5234  11.5247  11.5595  11.6429  11.7386  11.7977  11.8448  11.8652
    11.8905  11.9703  12.0100  12.0817  12.1413  12.2064  12.2597  12.2722
    12.3013  12.3143  12.3334  12.3517  12.4393  12.4883  12.5253  12.5532
    12.6203  12.6316  12.6961  12.7011  12.7742  12.8183  12.8405  12.9122
    12.9571  12.9571  13.0054  13.0916  13.0989  13.1747  13.2231  13.2494
    13.2576  13.3716  13.3848  13.4005  13.4385  13.4477  13.4883  13.5517
    13.5544  13.5977  13.6159  13.6990  13.7077  13.7267  13.7709  13.8406
    13.8709  13.9377  13.9893  14.0529  14.1317  14.1894  14.2151  14.2747
    14.3476  14.4112  14.4596  14.5063  14.5235  14.5656  14.5665  14.6730
    14.6958  14.7121  14.7521  14.7605  14.8634  14.8770  14.9400  14.9868
    15.0058  15.0812  15.1533  15.2070  15.2086  15.3328  15.4004  15.4653
    15.4949  15.5874  15.6113  15.6153  15.6765  15.7341  15.7603  15.7655
    15.8297  15.9017  15.9034  16.0083  16.0269  16.0333  16.0727  16.1726
    16.1916  16.4052  16.7426  16.8058  17.1355  17.4484  17.6760  17.8385
    17.9615  18.0901  18.2496  18.5953  18.6555  18.8945  19.4417  19.6763
    19.7189  20.1643  20.2355  20.8209  20.8874  20.9969  21.3724  21.7949
    21.9381  22.0636  22.5523  22.6678  22.7160  22.8201  23.0659  23.5011
    24.5528  24.7240  24.7747  24.9420  25.1169  25.1767  25.7093  25.7176
    26.0131

          k = 0.2500-0.3536 0.0000 ( 17788 PWs)   bands (ev):

     0.2170   0.2170   2.1891   2.1891   3.7836   3.7837   4.0011   4.0011
     5.1242   5.1242   6.6537   6.6537   7.3496   7.3496   7.3745   7.3745
     7.6169   7.6169   9.6807   9.6807   9.7958   9.7958  10.1612  10.1612
    10.3239  10.3239  10.4669  10.4669  10.8486  10.8486  10.9525  10.9525
    11.0629  11.0629  11.2776  11.2776  11.4079  11.4079  11.4235  11.4235
    11.5457  11.5458  11.5912  11.5913  11.8038  11.8038  11.8742  11.8742
    11.9294  11.9294  12.0678  12.0678  12.1546  12.1546  12.2840  12.2841
    12.3097  12.3097  12.4281  12.4281  12.4601  12.4601  12.5491  12.5491
    12.6009  12.6009  12.6677  12.6677  12.7486  12.7486  12.8432  12.8432
    12.9206  12.9206  13.0279  13.0279  13.1138  13.1138  13.1976  13.1976
    13.2746  13.2746  13.3684  13.3684  13.4296  13.4296  13.4766  13.4766
    13.5581  13.5581  13.5916  13.5916  13.7319  13.7319  13.8243  13.8243
    13.8726  13.8726  13.9701  13.9701  14.2086  14.2086  14.3441  14.3441
    14.4164  14.4164  14.5106  14.5106  14.5206  14.5206  14.5767  14.5767
    14.6503  14.6503  14.6833  14.6833  14.7597  14.7597  14.8732  14.8732
    15.0365  15.0365  15.1076  15.1076  15.2631  15.2631  15.4231  15.4231
    15.5453  15.5453  15.6117  15.6117  15.7148  15.7148  15.7531  15.7531
    15.8818  15.8818  15.9729  15.9729  16.0605  16.0605  16.1007  16.1007
    16.2544  16.2544  16.7785  16.7785  17.3892  17.3892  17.7245  17.7245
    18.0402  18.0402  18.3127  18.3127  19.0102  19.0102  19.2700  19.2700
    19.9619  19.9619  20.4946  20.4946  21.2991  21.2991  21.4526  21.4526
    22.1998  22.1998  22.6244  22.6244  22.7638  22.7638  23.8131  23.8131
    23.9947  23.9947  25.3411  25.3411  25.4935  25.4936  25.6084  25.6086
    25.7769

          k = 0.3750 0.0000 0.0000 ( 17794 PWs)   bands (ev):

     1.0730   1.2462   1.2463   3.0164   3.1500   3.2563   3.3543   3.3546
     4.7760   5.5656   5.8663   5.8667   6.8967   7.3115   7.3121   7.3161
     8.9094   9.1493   9.1815   9.1824   9.5946   9.6920   9.7966   9.9460
    10.1873  10.3127  10.3169  10.4613  10.5922  10.6533  10.8155  10.8415
    10.8630  10.9289  11.0445  11.0731  11.0844  11.1119  11.2228  11.2502
    11.2808  11.3601  11.4187  11.5504  11.6488  11.7098  11.7572  11.7830
    11.8466  11.9969  12.0445  12.1383  12.1417  12.1828  12.2476  12.4197
    12.4780  12.5196  12.5544  12.6190  12.7038  12.7245  12.7919  12.9082
    12.9541  12.9606  13.0091  13.0182  13.0922  13.1117  13.1517  13.1968
    13.2214  13.2575  13.2784  13.2943  13.3358  13.3404  13.4306  13.4385
    13.4686  13.4777  13.5281  13.5477  13.5512  13.5605  13.6107  13.6472
    13.7884  13.8313  13.8466  13.8779  13.8872  13.9305  13.9504  13.9887
    13.9933  14.0399  14.0843  14.1484  14.2029  14.2867  14.4069  14.4075
    14.5244  14.5360  14.5730  14.7038  14.7090  14.7533  14.7714  14.8653
    14.9628  14.9658  15.0524  15.0956  15.1024  15.1143  15.1811  15.1997
    15.2190  15.3043  15.3432  15.4199  15.5679  15.5784  15.6015  15.6092
    15.6236  15.6548  15.6997  15.7643  15.8256  15.8282  15.8320  15.8913
    15.9236  15.9605  15.9940  16.0071  16.0916  16.1113  16.3202  16.4939
    16.5154  16.5529  16.9517  17.0250  17.0374  17.0961  17.1903  17.2346
    17.3131  17.6505  18.0293  18.0921  18.3932  18.4346  18.5149  19.5510
    19.7262  19.7950  19.8047  20.0341  20.6233  20.7015  20.7399  21.2950
    21.3430  21.4815  21.5007  21.7935  21.8116  21.9699  22.0118  22.0757
    22.1638  22.2804  22.7945  22.8137  23.5429  23.8910  24.1619  24.2371
    24.8317

          k = 0.3750 0.0589 0.0000 ( 17796 PWs)   bands (ev):

     0.9917   1.0051   1.4714   2.9660   3.1971   3.3279   3.3371   3.4882
     4.7603   5.6203   5.7315   5.9742   6.9231   7.2778   7.3452   7.3622
     8.9211   9.0642   9.1867   9.3035   9.6324   9.7312   9.7603   9.9892
    10.2235  10.2421  10.3927  10.4893  10.5390  10.6413  10.7177  10.9007
    10.9154  10.9686  11.0268  11.0810  11.1070  11.1276  11.2460  11.2640
    11.2886  11.3771  11.4364  11.5744  11.6601  11.7168  11.7320  11.8043
    11.8689  12.0169  12.0483  12.1412  12.1625  12.1920  12.2659  12.4096
    12.4625  12.5105  12.5836  12.6094  12.6835  12.7349  12.7753  12.9123
    12.9457  12.9701  12.9956  13.0056  13.0457  13.1015  13.1705  13.1708
    13.2150  13.2295  13.2754  13.2843  13.3130  13.3221  13.3926  13.4085
    13.4185  13.4633  13.5207  13.5401  13.5433  13.5629  13.5939  13.6535
    13.6872  13.7844  13.8119  13.8398  13.8861  13.9061  13.9508  13.9904
    14.0181  14.0575  14.0854  14.1602  14.1862  14.2738  14.3226  14.4029
    14.5038  14.5259  14.5910  14.6635  14.7279  14.7475  14.7771  14.8193
    14.8406  14.9973  15.0135  15.0344  15.0517  15.0935  15.1437  15.1752
    15.1876  15.2653  15.3487  15.4593  15.4953  15.5340  15.5389  15.6250
    15.6317  15.6947  15.6949  15.7401  15.7871  15.8153  15.8648  15.9195
    15.9259  15.9946  15.9970  16.0369  16.0604  16.0649  16.1973  16.4107
    16.5572  16.7211  16.8439  16.8585  16.9649  17.0562  17.2365  17.3617
    17.4345  17.4459  17.7391  18.0453  18.5835  18.6806  18.8388  19.1156
    19.2381  19.8351  20.0072  20.2425  20.5128  20.7707  20.9061  21.1373
    21.1663  21.2318  21.4524  21.5632  21.9668  22.0837  22.1356  22.3548
    22.6419  22.8393  23.1161  23.4557  23.5652  23.8269  23.9108  24.1080
    24.8678

          k = 0.3750 0.1179 0.0000 ( 17793 PWs)   bands (ev):

     0.7431   0.8397   1.6483   2.8442   3.2993   3.3918   3.5563   3.7083
     4.7135   5.5812   5.7752   6.0615   6.9980   7.2722   7.4140   7.4236
     8.9355   8.9482   9.2963   9.4304   9.6802   9.7451   9.8459  10.0937
    10.1860  10.2892  10.3331  10.4562  10.5528  10.5919  10.7303  10.9642
    10.9723  11.0395  11.0610  11.0847  11.1635  11.2051  11.2067  11.3639
    11.3991  11.4207  11.4853  11.6117  11.6789  11.7326  11.7526  11.8127
    11.9292  12.0536  12.0570  12.1645  12.2038  12.2149  12.3004  12.3643
    12.4732  12.4879  12.5805  12.6236  12.6718  12.7353  12.7360  12.8720
    12.8889  12.9340  12.9468  12.9733  12.9972  13.0780  13.0916  13.1532
    13.1574  13.1929  13.2037  13.2188  13.2775  13.2789  13.3376  13.3400
    13.3810  13.4332  13.4442  13.4919  13.5293  13.5515  13.5734  13.5794
    13.6377  13.7038  13.7687  13.7801  13.8508  13.8770  13.9266  13.9857
    13.9899  14.0369  14.0897  14.1463  14.1655  14.2447  14.2571  14.3682
    14.4281  14.4373  14.5408  14.5428  14.6413  14.6510  14.7261  14.7701
    14.7798  14.8456  14.9205  14.9397  14.9495  15.0543  15.0909  15.1530
    15.1673  15.2628  15.3255  15.3933  15.3981  15.4377  15.5309  15.5551
    15.6098  15.6302  15.6775  15.7271  15.7625  15.7735  15.8054  15.8424
    15.8887  15.9220  15.9847  16.0311  16.0423  16.1474  16.1924  16.4185
    16.4308  16.5319  16.6362  16.8190  16.9341  16.9947  17.3416  17.3744
    17.5460  17.6565  17.8148  17.9614  18.2796  18.5758  18.9200  19.0692
    19.0951  19.9226  19.9484  20.0973  20.5638  20.7157  20.8204  20.8684
    21.0682  21.2594  21.7865  21.8946  22.1083  22.3850  22.7487  23.1308
    23.2775  23.4710  23.6327  23.7956  23.9188  23.9698  24.0423  24.3133
    24.6943

          k = 0.3750 0.1768 0.0000 ( 17788 PWs)   bands (ev):

     0.5320   0.6451   1.7863   2.6839   3.4347   3.5194   3.8399   3.9354
     4.6413   5.4270   6.0077   6.1755   7.1109   7.2899   7.4607   7.5245
     8.7683   8.9482   9.4665   9.5479   9.5975   9.9166  10.0016  10.0266
    10.1503  10.2586  10.3314  10.4922  10.4997  10.7110  10.8683  10.9511
    11.0112  11.1075  11.1648  11.2065  11.2233  11.2403  11.3183  11.4856
    11.4973  11.5507  11.5589  11.6322  11.6911  11.7643  11.8105  11.8503
    11.9697  12.0685  12.0724  12.1749  12.2419  12.2444  12.2754  12.4023
    12.4243  12.5164  12.5388  12.6168  12.6535  12.6612  12.7103  12.7525
    12.7762  12.8271  12.8991  12.9238  12.9473  12.9960  13.0320  13.0427
    13.0988  13.1113  13.1290  13.1542  13.1702  13.2279  13.2850  13.3008
    13.3331  13.3829  13.4087  13.4496  13.5197  13.5440  13.5478  13.5720
    13.6377  13.6642  13.6874  13.7496  13.7713  13.8309  13.8493  13.9434
    13.9634  14.0240  14.0499  14.0547  14.1337  14.1561  14.2019  14.2539
    14.2840  14.2859  14.4414  14.4456  14.5127  14.5677  14.6250  14.6317
    14.6822  14.7219  14.8062  14.8259  14.8614  14.8995  15.0712  15.1008
    15.1418  15.2346  15.2484  15.3181  15.3187  15.3403  15.3992  15.4943
    15.5396  15.5430  15.5807  15.6275  15.6487  15.6986  15.7401  15.7539
    15.8322  15.9330  15.9576  15.9902  16.0271  16.1222  16.1311  16.3196
    16.4317  16.4832  16.6799  16.8083  16.9679  17.2716  17.3566  17.5605
    17.5873  17.7092  17.8464  17.9139  18.2176  18.2648  18.5862  18.7237
    19.5477  19.6564  19.7931  20.1156  20.1423  20.7130  20.8339  21.0478
    21.5655  21.7669  22.0740  22.1526  22.2321  22.9170  23.3306  23.5493
    23.7461  23.8170  23.9884  24.0658  24.2537  24.4369  24.7350  25.0402
    25.1550

          k = 0.3750 0.2357 0.0000 ( 17756 PWs)   bands (ev):

     0.3789   0.4709   1.9088   2.5088   3.5969   3.6858   4.0636   4.0954
     4.5780   5.2651   6.2870   6.3863   7.2470   7.3072   7.5106   7.6070
     8.5384   8.7862   9.5345   9.6161   9.6752   9.9119  10.1169  10.1303
    10.1741  10.1928  10.4544  10.4845  10.6893  10.8313  10.9217  11.0164
    11.1237  11.1649  11.2117  11.2958  11.3196  11.3833  11.4559  11.5380
    11.5704  11.6114  11.6684  11.7224  11.7394  11.7427  11.7939  11.8515
    11.9929  12.0547  12.1084  12.1458  12.2754  12.2822  12.3223  12.3963
    12.4035  12.4557  12.4873  12.5341  12.5932  12.6335  12.6519  12.6692
    12.7218  12.7282  12.8247  12.8361  12.8822  12.9206  12.9511  13.0010
    13.0383  13.0455  13.0863  13.1104  13.1511  13.1517  13.2285  13.2535
    13.3042  13.3066  13.3400  13.4470  13.4713  13.5013  13.5275  13.5681
    13.6084  13.6113  13.6749  13.7232  13.7453  13.7701  13.7809  13.8024
    13.8988  13.9125  13.9420  13.9464  14.0268  14.0702  14.1356  14.1504
    14.2239  14.2653  14.3500  14.3798  14.3885  14.4574  14.4893  14.5503
    14.5569  14.6123  14.6774  14.7244  14.7740  14.7926  14.8856  15.0335
    15.0443  15.1052  15.1143  15.1930  15.2080  15.2826  15.3654  15.3745
    15.4337  15.4448  15.5124  15.5362  15.5686  15.6492  15.6525  15.7195
    15.8474  15.8799  15.9180  15.9467  16.0040  16.1672  16.2183  16.2477
    16.5628  16.5968  16.7365  17.0158  17.1520  17.2157  17.3072  17.4890
    17.5178  17.8419  17.9659  17.9795  18.2039  18.2184  18.3309  18.6187
    19.2418  19.4154  19.6712  20.0545  20.2789  20.3171  21.3231  21.5336
    21.6279  21.9025  22.2243  22.6141  22.8243  23.1763  23.4068  23.9067
    24.0030  24.1921  24.2796  24.7738  24.9887  25.1994  25.3194  25.4622
    25.5948

          k = 0.3750 0.2946 0.0000 ( 17761 PWs)   bands (ev):

     0.2950   0.3456   2.0356   2.3364   3.7712   3.8683   4.0508   4.1653
     4.6530   5.0786   6.5638   6.6593   7.3269   7.3795   7.5734   7.6420
     8.2791   8.4262   9.5347   9.6042   9.8686  10.0440  10.0817  10.1835
    10.2580  10.3687  10.4103  10.6567  10.8654  10.9039  11.0188  11.0464
    11.1550  11.2074  11.2974  11.3421  11.4160  11.4436  11.5084  11.5371
    11.5696  11.6185  11.6897  11.7316  11.7470  11.8009  11.8252  11.8566
    11.9097  12.0530  12.1074  12.2093  12.2744  12.2847  12.3108  12.3647
    12.3880  12.4556  12.5037  12.5093  12.5639  12.5882  12.6715  12.6731
    12.7056  12.7445  12.7581  12.8119  12.8648  12.8811  12.8879  12.9694
    12.9742  13.0157  13.0473  13.0657  13.1019  13.1123  13.1547  13.1970
    13.2127  13.2750  13.3264  13.3519  13.4072  13.4214  13.4675  13.4716
    13.5254  13.5316  13.6081  13.6280  13.6757  13.6929  13.7598  13.7757
    13.8165  13.8670  13.9086  14.0173  14.0199  14.0496  14.1033  14.1616
    14.2162  14.2340  14.2514  14.2753  14.3749  14.3884  14.4055  14.4309
    14.5016  14.5133  14.6007  14.6049  14.6504  14.6533  14.8013  14.8029
    14.9347  14.9884  15.0159  15.1277  15.1303  15.2321  15.2482  15.3679
    15.3855  15.4315  15.4652  15.5072  15.5277  15.5882  15.6739  15.7230
    15.7779  15.8645  15.8805  15.9179  16.0277  16.1387  16.3704  16.4661
    16.5256  16.7189  16.9986  17.0226  17.0795  17.1785  17.2664  17.3919
    17.6269  17.7323  17.9230  17.9889  18.1877  18.3207  18.5113  18.8746
    19.0045  19.0543  19.2437  19.8389  20.5499  20.5598  21.1979  21.4435
    21.6927  22.3380  22.4855  22.6171  23.1213  23.7645  23.9264  24.1127
    24.3078  24.5951  24.7826  24.9514  25.2554  25.5007  25.7597  26.0119
    26.0976

          k = 0.3750-0.3536 0.0000 ( 17776 PWs)   bands (ev):

     0.2844   0.2844   2.1772   2.1772   3.9329   3.9330   4.0464   4.0464
     4.8633   4.8633   6.7420   6.7420   7.4090   7.4090   7.6325   7.6325
     8.1658   8.1658   9.5627   9.5627  10.0259  10.0259  10.1712  10.1712
    10.3104  10.3104  10.6700  10.6700  10.8032  10.8032  11.1463  11.1463
    11.1996  11.1996  11.3258  11.3258  11.4403  11.4403  11.5217  11.5217
    11.5722  11.5722  11.6874  11.6874  11.7812  11.7812  11.8823  11.8823
    11.9510  11.9510  12.1904  12.1905  12.2126  12.2126  12.3447  12.3447
    12.4257  12.4257  12.5475  12.5475  12.6443  12.6443  12.6958  12.6958
    12.7156  12.7156  12.7678  12.7678  12.8592  12.8592  12.8964  12.8964
    13.0020  13.0020  13.0233  13.0233  13.0927  13.0927  13.1269  13.1269
    13.2035  13.2036  13.2998  13.2998  13.3605  13.3605  13.3764  13.3764
    13.4807  13.4807  13.6196  13.6196  13.6877  13.6877  13.7612  13.7613
    13.8406  13.8406  13.9312  13.9312  14.0926  14.0927  14.1726  14.1726
    14.1936  14.1936  14.2917  14.2917  14.3347  14.3347  14.3569  14.3569
    14.4473  14.4473  14.5255  14.5255  14.6282  14.6282  14.7546  14.7546
    14.8875  14.8875  15.0253  15.0253  15.1741  15.1741  15.3080  15.3080
    15.3864  15.3864  15.4717  15.4717  15.5579  15.5579  15.7064  15.7064
    15.7928  15.7928  15.9097  15.9097  16.0718  16.0718  16.4872  16.4872
    16.7291  16.7291  16.8784  16.8784  17.1669  17.1669  17.4238  17.4238
    17.6721  17.6721  17.7517  17.7517  18.5335  18.5335  18.6978  18.6979
    18.8521  18.8521  19.4130  19.4130  20.8392  20.8392  21.0315  21.0315
    22.1327  22.1327  22.5079  22.5079  23.8299  23.8299  24.3489  24.3489
    24.6274  24.6274  24.8981  24.8981  25.0852  25.0852  26.1392  26.1396
    26.2400

          k =-0.5000 0.0000 0.0000 ( 17814 PWs)   bands (ev):

     1.0807   1.2504   1.2505   3.0066   3.1874   3.3825   3.3828   3.3962
     4.7311   5.6623   5.9029   5.9033   7.1511   7.1928   7.2772   7.2778
     8.9348   9.0798   9.0809   9.3341   9.4210   9.6842   9.8375  10.2824
    10.2887  10.3013  10.5295  10.6386  10.6469  10.6990  10.7384  10.7642
    10.8029  10.8657  10.9230  10.9473  11.0977  11.1035  11.1446  11.2189
    11.3372  11.3408  11.4606  11.5191  11.7151  11.7815  11.8286  11.8726
    12.0688  12.1337  12.1678  12.1868  12.2985  12.3138  12.3167  12.4491
    12.5243  12.5621  12.5802  12.6772  12.6908  12.7439  12.8046  12.8251
    12.9181  13.0047  13.0228  13.0523  13.0571  13.0880  13.1271  13.1362
    13.1434  13.1833  13.1994  13.2345  13.2502  13.3016  13.3204  13.3276
    13.4216  13.4298  13.4481  13.4512  13.5089  13.5478  13.5572  13.6324
    13.6660  13.7042  13.8064  13.8347  13.9059  13.9560  13.9821  14.0271
    14.0307  14.0601  14.1384  14.1713  14.2216  14.3204  14.3402  14.3926
    14.4226  14.4324  14.5348  14.5720  14.6351  14.6661  14.8068  14.9308
    15.0022  15.0176  15.1674  15.1739  15.2575  15.2959  15.3275  15.3445
    15.3609  15.3736  15.5307  15.5450  15.5616  15.5908  15.6225  15.6259
    15.6457  15.6458  15.7145  15.8192  15.8423  15.8864  15.9161  15.9227
    15.9496  15.9973  16.0197  16.0299  16.0379  16.0614  16.1099  16.2365
    16.3283  16.3918  16.5370  16.5512  16.8278  17.0624  17.0637  17.2083
    17.2452  17.2853  17.5026  18.1977  18.3168  18.4568  18.5714  19.2655
    19.7035  19.7039  20.2102  20.2486  20.7039  20.7849  21.0416  21.0647
    21.1069  21.1151  21.2442  21.3457  21.3865  21.4181  21.4812  22.3489
    22.4307  22.4631  22.5860  22.9934  23.1110  23.1114  23.8117  23.8381
    24.4973

          k =-0.5000 0.0589 0.0000 ( 17814 PWs)   bands (ev):

     1.0023   1.0159   1.4705   2.9590   3.2702   3.3615   3.4282   3.5058
     4.7159   5.7175   5.8027   5.9674   7.1724   7.2352   7.2839   7.3010
     8.9612   9.0724   9.1102   9.3728   9.4520   9.7236   9.7998  10.2238
    10.3307  10.3583  10.4436  10.6710  10.6780  10.7330  10.7758  10.8027
    10.8414  10.8730  10.9265  10.9432  11.0781  11.0955  11.1280  11.1719
    11.2489  11.4464  11.5358  11.5717  11.7202  11.7909  11.8209  11.9088
    12.0787  12.1362  12.1711  12.1939  12.3014  12.3205  12.3565  12.4522
    12.5427  12.5596  12.5948  12.6457  12.6954  12.7029  12.7648  12.8323
    12.9188  12.9840  13.0017  13.0047  13.0478  13.0767  13.0921  13.1017
    13.1469  13.2018  13.2074  13.2446  13.2474  13.2539  13.3091  13.3699
    13.3839  13.4204  13.4283  13.4557  13.5066  13.5386  13.5786  13.5998
    13.6363  13.6862  13.8029  13.8199  13.9040  13.9059  13.9594  13.9734
    14.0300  14.0497  14.1235  14.1728  14.2715  14.2831  14.3317  14.3623
    14.4185  14.4673  14.5539  14.5761  14.5815  14.6997  14.7592  14.8663
    14.8921  15.0218  15.1144  15.1209  15.1926  15.2660  15.2661  15.3228
    15.3454  15.4194  15.4489  15.4798  15.4864  15.5526  15.5630  15.5921
    15.5939  15.6296  15.6565  15.7304  15.7787  15.7819  15.8320  15.9330
    15.9728  15.9950  16.0015  16.0214  16.0375  16.1263  16.1655  16.2226
    16.4029  16.4982  16.6305  16.6721  16.7838  16.9199  16.9936  17.0592
    17.3322  17.3960  17.8978  17.9040  18.0859  18.3063  18.4664  19.2865
    19.4395  19.6764  20.0457  20.2604  20.5256  20.6360  21.0869  21.1074
    21.2384  21.3864  21.4626  21.5433  21.7077  21.8840  21.9954  22.3467
    22.4777  22.5560  22.6013  22.8170  23.1274  23.2587  23.7867  24.2923
    24.4363

          k =-0.5000 0.1179 0.0000 ( 17794 PWs)   bands (ev):

     0.7598   0.8569   1.6446   2.8380   3.4267   3.4821   3.5109   3.7110
     4.6702   5.6534   5.8720   6.0351   7.2331   7.3048   7.3505   7.3563
     9.0460   9.0874   9.1499   9.4857   9.5335   9.7046   9.8375  10.1814
    10.2094  10.4176  10.4305  10.6912  10.7592  10.7694  10.8237  10.8836
    10.9059  10.9074  10.9233  10.9540  11.0065  11.1057  11.2238  11.2268
    11.3325  11.4907  11.5881  11.7126  11.7325  11.8169  11.8213  11.9871
    12.1057  12.1384  12.1794  12.2081  12.3285  12.3535  12.4227  12.4603
    12.5384  12.5636  12.5961  12.6124  12.6483  12.6833  12.6899  12.8077
    12.8875  12.9014  12.9158  12.9328  13.0135  13.0159  13.0610  13.0741
    13.0996  13.1688  13.1993  13.2215  13.2238  13.2765  13.3127  13.3340
    13.3948  13.4127  13.4200  13.4229  13.4812  13.5019  13.5368  13.5837
    13.6138  13.6814  13.7657  13.7679  13.7997  13.8638  13.9023  13.9134
    13.9335  14.0327  14.0835  14.1686  14.2399  14.2885  14.2983  14.3620
    14.3968  14.4479  14.5088  14.5909  14.5918  14.6338  14.6903  14.7164
    14.8146  14.9073  14.9083  14.9961  15.0256  15.1189  15.1807  15.2003
    15.2169  15.2443  15.2680  15.3380  15.3510  15.4428  15.4745  15.5176
    15.5739  15.5810  15.6006  15.6379  15.6881  15.7160  15.8231  15.8289
    15.8431  15.8847  15.9708  15.9853  16.0486  16.1664  16.2923  16.3859
    16.4516  16.4880  16.6364  16.7420  16.9086  16.9318  16.9485  17.2730
    17.4358  17.4775  17.6507  17.6731  17.9702  18.2159  18.4290  19.0522
    19.1212  19.3462  19.5596  19.8230  20.6206  20.8427  21.5311  21.5967
    21.6291  21.6636  21.9462  21.9769  22.0543  22.1964  22.4741  22.5224
    22.6493  22.7963  23.0793  23.1772  23.2791  23.4730  24.3230  24.8578
    24.8984

          k =-0.5000 0.1768 0.0000 ( 17756 PWs)   bands (ev):

     0.5536   0.6680   1.7816   2.6771   3.5530   3.6276   3.7543   3.9274
     4.5963   5.4606   6.0993   6.1674   7.3209   7.3236   7.4343   7.5009
     9.1209   9.1621   9.2031   9.5830   9.5929   9.6676   9.9247  10.0068
    10.1622  10.3344  10.4878  10.5553  10.8419  10.8894  10.9114  10.9485
    10.9896  11.0540  11.0682  11.0810  11.1277  11.1352  11.2792  11.3885
    11.4542  11.5516  11.6617  11.7512  11.7572  11.8515  11.8617  12.0830
    12.1348  12.1357  12.2023  12.2436  12.2797  12.3434  12.4414  12.4690
    12.4863  12.5132  12.5952  12.6097  12.6331  12.6527  12.6729  12.7383
    12.7598  12.7846  12.7899  12.9148  12.9318  12.9785  13.0071  13.0203
    13.1122  13.1148  13.1595  13.1792  13.2126  13.2565  13.2839  13.3515
    13.3620  13.3724  13.3879  13.4000  13.4703  13.5178  13.5225  13.5532
    13.6010  13.6464  13.6523  13.6533  13.7258  13.7615  13.8720  13.8796
    13.8873  13.9529  14.0788  14.0905  14.1900  14.2242  14.2406  14.3209
    14.3274  14.3586  14.4115  14.4737  14.5135  14.5894  14.6028  14.6332
    14.6556  14.7097  14.7539  14.7810  14.8134  14.8443  14.9183  14.9719
    14.9902  15.1519  15.1837  15.2300  15.3086  15.3714  15.3844  15.4020
    15.4041  15.5190  15.5471  15.5703  15.6336  15.6587  15.7093  15.7397
    15.8239  15.8312  15.8482  15.9304  15.9480  16.1472  16.3359  16.4941
    16.6106  16.7622  16.7874  16.7917  16.7959  16.9355  17.0620  17.1795
    17.2710  17.5530  17.6323  17.8117  18.0184  18.1001  18.5905  18.6237
    18.9445  19.0224  19.2955  19.4362  20.4843  21.1253  21.3708  21.4378
    21.8215  21.9689  22.5321  22.5995  22.7277  22.7372  22.8290  22.9701
    23.1482  23.2626  23.7134  23.9704  24.2114  24.3071  24.4533  24.6653
    24.8314

          k =-0.5000 0.2357 0.0000 ( 17778 PWs)   bands (ev):

     0.4041   0.4976   1.9038   2.5019   3.7163   3.7645   4.0237   4.0670
     4.5112   5.2356   6.3637   6.4074   7.3219   7.4260   7.5223   7.6271
     9.0689   9.1667   9.3017   9.3686   9.6008   9.8915   9.9030  10.0673
    10.1761  10.1771  10.5047  10.7430  10.8569  10.9888  11.0428  11.0531
    11.1370  11.1457  11.1743  11.2540  11.2857  11.3140  11.3448  11.5108
    11.6039  11.6269  11.6811  11.7322  11.7917  11.8705  11.9309  11.9956
    12.0659  12.1551  12.1556  12.2247  12.2822  12.3291  12.3713  12.4678
    12.4846  12.4982  12.5478  12.5725  12.5840  12.6120  12.6208  12.6286
    12.6952  12.7521  12.7982  12.9132  12.9164  12.9483  12.9611  13.0306
    13.0511  13.0740  13.1140  13.1448  13.1785  13.1935  13.2212  13.2938
    13.3019  13.3467  13.3909  13.4158  13.4412  13.4591  13.5190  13.5465
    13.5517  13.5692  13.6087  13.6572  13.6994  13.7632  13.8219  13.8602
    13.9254  13.9269  13.9708  14.0061  14.0165  14.0194  14.0887  14.1490
    14.2405  14.2438  14.2938  14.3086  14.3306  14.3409  14.4661  14.4691
    14.4801  14.5312  14.6080  14.6365  14.7392  14.7615  14.7631  14.8874
    14.9681  14.9821  15.0158  15.0664  15.1938  15.2553  15.2577  15.3352
    15.3899  15.4019  15.4307  15.4847  15.5490  15.5905  15.6254  15.7010
    15.7061  15.8096  15.8895  15.9908  16.0871  16.1881  16.2925  16.6454
    16.6461  16.6548  16.8312  16.8660  16.9303  16.9831  17.0669  17.1942
    17.3810  17.4349  17.6178  17.8507  18.1861  18.2370  18.3629  18.5565
    18.6218  18.8617  19.4119  19.5642  20.1721  20.6317  21.0439  21.1262
    22.1350  22.4471  22.7121  22.8748  23.3897  23.5285  23.6650  23.7951
    23.8635  24.0671  24.1020  24.2166  24.3809  24.5197  25.0364  25.2091
    25.4450

          k =-0.5000 0.2946 0.0000 ( 17762 PWs)   bands (ev):

     0.3226   0.3741   2.0302   2.3299   3.8948   3.9045   4.0917   4.1606
     4.5245   4.9895   6.6155   6.6866   7.3356   7.4962   7.6062   7.6835
     8.8609   8.9158   9.2187   9.3352   9.9458   9.9657   9.9832  10.1514
    10.2043  10.2584  10.4501  10.9221  10.9887  10.9969  11.1461  11.1652
    11.1808  11.1944  11.2861  11.3305  11.4016  11.4710  11.5127  11.5653
    11.5793  11.6067  11.7101  11.7283  11.8021  11.8022  11.8602  11.8611
    12.0410  12.0710  12.1529  12.2394  12.2608  12.3458  12.4099  12.4205
    12.4651  12.4871  12.5085  12.5443  12.5704  12.5890  12.6441  12.7359
    12.7410  12.7834  12.8134  12.8147  12.8956  12.9155  12.9484  12.9857
    13.0424  13.0842  13.1064  13.1249  13.1294  13.1564  13.1777  13.1963
    13.2243  13.3081  13.3603  13.3830  13.4538  13.4682  13.5043  13.5103
    13.5606  13.5774  13.5792  13.6467  13.6600  13.6911  13.7319  13.7544
    13.7919  13.8394  13.8741  13.9040  13.9431  13.9625  13.9867  14.0299
    14.0938  14.1905  14.1969  14.2111  14.2185  14.2868  14.2912  14.3615
    14.3656  14.4187  14.4511  14.4786  14.5825  14.6746  14.7286  14.7898
    14.8322  14.9366  15.0130  15.0710  15.1331  15.1369  15.2509  15.2892
    15.3329  15.3428  15.3638  15.3703  15.4188  15.4897  15.5847  15.6383
    15.8222  15.8639  15.9180  16.1331  16.2213  16.2321  16.3389  16.4656
    16.5164  16.7006  16.7288  16.7640  17.0851  17.1503  17.2387  17.3493
    17.4301  17.5919  17.6445  17.8505  17.8835  17.9193  18.1589  18.4941
    18.9198  19.2027  19.6328  19.9142  19.9408  20.0576  20.4732  20.6947
    22.5300  22.8623  23.0718  23.0867  23.4897  23.5677  23.6172  24.0656
    24.0778  24.7357  24.9975  25.0973  25.2013  25.3874  25.8482  26.0129
    26.2213

          k =-0.5000-0.3536 0.0000 ( 17712 PWs)   bands (ev):

     0.3133   0.3133   2.1714   2.1714   4.0243   4.0244   4.0633   4.0633
     4.7357   4.7357   6.7704   6.7704   7.4412   7.4412   7.6683   7.6683
     8.7389   8.7390   9.2745   9.2745   9.9818   9.9818  10.2405  10.2405
    10.2920  10.2921  10.5240  10.5240  11.1466  11.1467  11.1673  11.1673
    11.2957  11.2957  11.3210  11.3210  11.4129  11.4129  11.4810  11.4810
    11.6227  11.6227  11.7301  11.7301  11.7426  11.7426  11.9468  11.9468
    11.9729  11.9729  12.1900  12.1900  12.3233  12.3233  12.3844  12.3844
    12.4823  12.4823  12.4970  12.4970  12.6639  12.6639  12.7047  12.7047
    12.7531  12.7531  12.8526  12.8526  12.9103  12.9103  12.9815  12.9815
    13.0706  13.0706  13.0982  13.0982  13.1365  13.1365  13.1588  13.1588
    13.2166  13.2166  13.3080  13.3080  13.4006  13.4006  13.4404  13.4404
    13.5885  13.5885  13.6210  13.6210  13.6293  13.6293  13.6922  13.6922
    13.7665  13.7665  13.8856  13.8856  13.9776  13.9776  14.0628  14.0628
    14.1090  14.1090  14.1445  14.1445  14.1949  14.1949  14.2404  14.2405
    14.3478  14.3478  14.4454  14.4454  14.5298  14.5298  14.7099  14.7099
    14.8749  14.8749  15.0276  15.0276  15.1834  15.1834  15.2534  15.2534
    15.3041  15.3041  15.3407  15.3407  15.3894  15.3894  15.6032  15.6032
    15.8482  15.8482  16.0915  16.0915  16.2884  16.2884  16.3799  16.3799
    16.5315  16.5315  16.7198  16.7198  17.1839  17.1839  17.3844  17.3844
    17.6267  17.6267  17.6627  17.6627  17.8246  17.8246  18.1619  18.1619
    19.4845  19.4845  19.7542  19.7542  19.8437  19.8437  20.3194  20.3194
    22.9813  22.9813  23.0484  23.0484  23.3305  23.3305  23.8020  23.8020
    24.9244  24.9244  25.8526  25.8526  26.0733  26.0738  26.1959  26.1968
    26.3366

     the Fermi energy is    18.0308 ev

!    total energy              =  -21693.96294813 Ry

     total all-electron energy =  -1064661.653498 Ry
     estimated scf accuracy    <       0.00000077 Ry
     smearing contrib. (-TS)   =      -0.02690904 Ry
     internal energy E=F+TS    =  -21693.93603909 Ry

     The total energy is F=E-TS. E is the sum of the following terms:
     one-electron contribution =      51.13384216 Ry
     hartree contribution      =     397.60578308 Ry
     xc contribution           =    -907.03381853 Ry
     ewald contribution        =   -1842.12021768 Ry
     one-center paw contrib.   =  -19393.52162811 Ry

     convergence has been achieved in  18 iterations

     Forces acting on atoms (cartesian axes, Ry/au):

     atom    1 type  1   force =     1.37475798   -0.00000980    1.93205716
     atom    2 type  1   force =     1.37475798    0.00000980    1.93205716
     atom    3 type  1   force =    -1.49953501    0.00000000    2.12508197
     atom    4 type  1   force =    -1.49953350    0.00000000    2.12508790
     atom    5 type  1   force =     0.01236708    0.00000615    0.04545979
     atom    6 type  1   force =     0.01236708   -0.00000615    0.04545979
     atom    7 type  1   force =    -0.00306752    0.00000000    0.00798718
     atom    8 type  1   force =    -0.00307102    0.00000000    0.00798095
     atom    9 type  1   force =    -0.00066511    0.00000091    0.00270662
     atom   10 type  1   force =    -0.00066511   -0.00000091    0.00270662
     atom   11 type  1   force =     0.00051434    0.00000000   -0.00164595
     atom   12 type  1   force =     0.00051047    0.00000000   -0.00164014
     atom   13 type  1   force =    -0.01436964    0.00000252    0.00404825
     atom   14 type  1   force =    -0.01436964   -0.00000252    0.00404825
     atom   15 type  1   force =     0.27978853    0.00000000   -0.35077881
     atom   16 type  1   force =     0.27979437    0.00000000   -0.35077447
     atom   17 type  1   force =    -0.28004484    0.00001034    0.35091892
     atom   18 type  1   force =    -0.28004484   -0.00001034    0.35091892
     atom   19 type  1   force =     0.01571742    0.00000000   -0.00723416
     atom   20 type  1   force =     0.01571322    0.00000000   -0.00723687
     atom   21 type  1   force =     0.00253931    0.00000576   -0.00551432
     atom   22 type  1   force =     0.00253931   -0.00000576   -0.00551432
     atom   23 type  1   force =    -0.01288996    0.00000000   -0.04484487
     atom   24 type  1   force =    -0.01289019    0.00000000   -0.04485270
     atom   25 type  1   force =     1.49959722   -0.00000095   -2.12596176
     atom   26 type  1   force =     1.49959722    0.00000095   -2.12596176
     atom   27 type  1   force =    -1.37470325    0.00000000   -1.93228279
     atom   28 type  1   force =    -1.37471188    0.00000000   -1.93227653

     Total force =     7.097515     Total SCF correction =     0.003721

     Writing all to output data dir ./pwscf.save/
 
     init_run     :     15.14s CPU     15.56s WALL (       1 calls)
     electrons    :    757.09s CPU    765.25s WALL (       1 calls)
     forces       :      6.58s CPU      6.69s WALL (       1 calls)

     Called by init_run:
     wfcinit      :     14.33s CPU     14.64s WALL (       1 calls)
     potinit      :      0.46s CPU      0.51s WALL (       1 calls)
     hinit0       :      0.20s CPU      0.23s WALL (       1 calls)

     Called by electrons:
     c_bands      :    685.27s CPU    692.49s WALL (      18 calls)
     sum_band     :     65.11s CPU     65.69s WALL (      18 calls)
     v_of_rho     :      0.47s CPU      0.56s WALL (      19 calls)
     newd         :      0.65s CPU      0.74s WALL (      19 calls)
     PAW_pot      :      5.95s CPU      5.96s WALL (      19 calls)
     mix_rho      :      0.07s CPU      0.08s WALL (      18 calls)

     Called by c_bands:
     init_us_2    :      3.76s CPU      3.79s WALL (    1330 calls)
     init_us_2:cp :      3.76s CPU      3.78s WALL (    1330 calls)
     cegterg      :    656.01s CPU    662.96s WALL (     630 calls)

     Called by *egterg:
     cdiaghg      :     82.17s CPU     82.91s WALL (    3612 calls)
     h_psi        :    311.01s CPU    314.76s WALL (    3647 calls)
     s_psi        :     63.10s CPU     63.37s WALL (    3647 calls)
     g_psi        :      1.00s CPU      1.00s WALL (    2982 calls)

     Called by h_psi:
     h_psi:calbec :     70.21s CPU     70.45s WALL (    3647 calls)
     vloc_psi     :    172.20s CPU    174.22s WALL (    3647 calls)
     add_vuspsi   :     67.47s CPU     68.00s WALL (    3647 calls)

     General routines
     calbec       :    100.23s CPU    100.56s WALL (    4417 calls)
     fft          :      0.49s CPU      0.70s WALL (     220 calls)
     ffts         :      0.01s CPU      0.01s WALL (      18 calls)
     fftw         :    189.55s CPU    191.54s WALL (  716172 calls)
 
     Parallel routines
 
     PWSCF        :  13m 6.10s CPU  13m21.97s WALL

 
   This run was terminated on:   9:22:51   2Mar2024            

=------------------------------------------------------------------------------=
   JOB DONE.
=------------------------------------------------------------------------------=
