MPI startup(): Warning: I_MPI_PMI_LIBRARY will be ignored since the hydra process manager was found
MPI startup(): Warning: I_MPI_PMI_LIBRARY will be ignored since the hydra process manager was found
MPI startup(): Warning: I_MPI_PMI_LIBRARY will be ignored since the hydra process manager was found
MPI startup(): Warning: I_MPI_PMI_LIBRARY will be ignored since the hydra process manager was found
MPI startup(): Warning: I_MPI_PMI_LIBRARY will be ignored since the hydra process manager was found
MPI startup(): Warning: I_MPI_PMI_LIBRARY will be ignored since the hydra process manager was found
MPI startup(): Warning: I_MPI_PMI_LIBRARY will be ignored since the hydra process manager was found
MPI startup(): Warning: I_MPI_PMI_LIBRARY will be ignored since the hydra process manager was found
MPI startup(): Warning: I_MPI_PMI_LIBRARY will be ignored since the hydra process manager was found
MPI startup(): Warning: I_MPI_PMI_LIBRARY will be ignored since the hydra process manager was found

     Program PWSCF v.7.0 starts on  2Mar2024 at  9:22:58 

     This program is part of the open-source Quantum ESPRESSO suite
     for quantum simulation of materials; please cite
         "P. Giannozzi et al., J. Phys.:Condens. Matter 21 395502 (2009);
         "P. Giannozzi et al., J. Phys.:Condens. Matter 29 465901 (2017);
         "P. Giannozzi et al., J. Chem. Phys. 152 154105 (2020);
          URL http://www.quantum-espresso.org", 
     in publications or presentations arising from this work. More details at
     http://www.quantum-espresso.org/quote

     Parallel version (MPI), running on    10 processors

     MPI processes distributed on     1 nodes
     R & G space division:  proc/nbgrp/npool/nimage =      10
     115229 MiB available memory on the printing compute node when the environment starts
 
     Reading input from GSF110_0.3.in
Warning: card &CELL ignored
Warning: card / ignored

     Current dimensions of program PWSCF are:
     Max number of different atomic species (ntypx) = 10
     Max number of k-points (npk) =  40000
     Max angular momentum in pseudopotentials (lmaxx) =  4

     File ./pwscf.bfgs deleted, as requested
     file Au.pbe-n-kjpaw_psl.1.0.0.UPF: wavefunction(s)  6S 5D renormalized
     Found identity + (  0.0000 -0.5000  0.0000) symmetry
     This is a supercell, fractional translations are disabled
     Message from routine setup:
     using ibrav=0 with symmetry is DISCOURAGED, use correct ibrav instead

     Subspace diagonalization in iterative solution of the eigenvalue problem:
     one sub-group per band group will be used
     scalapack distributed-memory algorithm (size of sub-group:  3*  3 procs)

 
     Parallelization info
     --------------------
     sticks:   dense  smooth     PW     G-vecs:    dense   smooth      PW
     Min         133     133     38                14227    14227    2178
     Max         134     134     39                14242    14242    2183
     Sum        1339    1339    389               142317   142317   21821
 
     Using Slab Decomposition
 


     bravais-lattice index     =            0
     lattice parameter (alat)  =       7.7101  a.u.
     unit-cell volume          =    2979.1368 (a.u.)^3
     number of atoms/cell      =           28
     number of atomic types    =            1
     number of electrons       =       308.00
     number of Kohn-Sham states=          185
     kinetic-energy cutoff     =      50.0000  Ry
     charge density cutoff     =     200.0000  Ry
     scf convergence threshold =      1.0E-06
     mixing beta               =       0.1000
     number of iterations used =            8  plain     mixing
     Exchange-correlation= SLA  PW   PBX  PBC
                           (   1   4   3   4   0   0   0)

     celldm(1)=   7.710083  celldm(2)=   0.000000  celldm(3)=   0.000000
     celldm(4)=   0.000000  celldm(5)=   0.000000  celldm(6)=   0.000000

     crystal axes: (cart. coord. in units of alat)
               a(1) = (   1.000000   0.000000   0.000000 )  
               a(2) = (   0.000000   1.414214   0.000000 )  
               a(3) = (   0.000000   0.000000   4.596194 )  

     reciprocal axes: (cart. coord. in units 2 pi/alat)
               b(1) = (  1.000000  0.000000  0.000000 )  
               b(2) = (  0.000000  0.707107  0.000000 )  
               b(3) = (  0.000000  0.000000  0.217571 )  


     PseudoPot. # 1 for Au read from file:
     ./Au.pbe-n-kjpaw_psl.1.0.0.UPF
     MD5 check sum: 4db85c736373c707a97ce4c36c2a9d23
     Pseudo is Projector augmented-wave + core cor, Zval = 11.0
     Generated using &quot;atomic&quot; code by A. Dal Corso  v.6.3
     Shape of augmentation charge: PSQ
     Using radial grid of 1279 points,  6 beta functions with: 
                l(1) =   0
                l(2) =   0
                l(3) =   1
                l(4) =   1
                l(5) =   2
                l(6) =   2
     Q(r) pseudized with 0 coefficients 


     atomic species   valence    mass     pseudopotential
        Au            11.00   196.96657     Au( 1.00)

      2 Sym. Ops. (no inversion) found



   Cartesian axes

     site n.     atom                  positions (alat units)
         1           Au  tau(   1) = (   0.5000000   0.3535534   0.0000000  )
         2           Au  tau(   2) = (   0.5000000   1.0606602   0.0000000  )
         3           Au  tau(   3) = (   0.0000000   0.0000000   0.3535534  )
         4           Au  tau(   4) = (   0.0000000   0.7071068   0.3535534  )
         5           Au  tau(   5) = (   0.5000000   0.3535534   0.7071068  )
         6           Au  tau(   6) = (   0.5000000   1.0606602   0.7071068  )
         7           Au  tau(   7) = (   0.0000000   0.0000000   1.0606602  )
         8           Au  tau(   8) = (   0.0000000   0.7071068   1.0606602  )
         9           Au  tau(   9) = (   0.5000000   0.3535534   1.4142136  )
        10           Au  tau(  10) = (   0.5000000   1.0606602   1.4142136  )
        11           Au  tau(  11) = (   0.0000000   0.0000000   1.7677670  )
        12           Au  tau(  12) = (   0.0000000   0.7071068   1.7677670  )
        13           Au  tau(  13) = (   0.5000000   0.3535534   2.1213203  )
        14           Au  tau(  14) = (   0.5000000   1.0606602   2.1213203  )
        15           Au  tau(  15) = (   0.0000000   0.0000000   2.4748737  )
        16           Au  tau(  16) = (   0.0000000   0.7071068   2.4748737  )
        17           Au  tau(  17) = (   0.8000000   0.3535534   2.8284271  )
        18           Au  tau(  18) = (   0.8000000   1.0606602   2.8284271  )
        19           Au  tau(  19) = (   0.3000000   0.0000000   3.1819805  )
        20           Au  tau(  20) = (   0.3000000   0.7071068   3.1819805  )
        21           Au  tau(  21) = (   0.8000000   0.3535534   3.5355339  )
        22           Au  tau(  22) = (   0.8000000   1.0606602   3.5355339  )
        23           Au  tau(  23) = (   0.3000000   0.0000000   3.8890873  )
        24           Au  tau(  24) = (   0.3000000   0.7071068   3.8890873  )
        25           Au  tau(  25) = (   0.8000000   0.3535534   4.2426407  )
        26           Au  tau(  26) = (   0.8000000   1.0606602   4.2426407  )
        27           Au  tau(  27) = (   0.3000000   0.0000000   4.5961941  )
        28           Au  tau(  28) = (   0.3000000   0.7071068   4.5961941  )

     number of k points=    35  Gaussian smearing, width (Ry)=  0.0200
                       cart. coord. in units 2pi/alat
        k(    1) = (   0.0000000   0.0000000   0.0000000), wk =   0.0208333
        k(    2) = (   0.0000000   0.0589256   0.0000000), wk =   0.0416667
        k(    3) = (   0.0000000   0.1178511   0.0000000), wk =   0.0416667
        k(    4) = (   0.0000000   0.1767767   0.0000000), wk =   0.0416667
        k(    5) = (   0.0000000   0.2357023   0.0000000), wk =   0.0416667
        k(    6) = (   0.0000000   0.2946278   0.0000000), wk =   0.0416667
        k(    7) = (   0.0000000  -0.3535534   0.0000000), wk =   0.0208333
        k(    8) = (   0.1250000   0.0000000   0.0000000), wk =   0.0416667
        k(    9) = (   0.1250000   0.0589256   0.0000000), wk =   0.0833333
        k(   10) = (   0.1250000   0.1178511   0.0000000), wk =   0.0833333
        k(   11) = (   0.1250000   0.1767767   0.0000000), wk =   0.0833333
        k(   12) = (   0.1250000   0.2357023   0.0000000), wk =   0.0833333
        k(   13) = (   0.1250000   0.2946278   0.0000000), wk =   0.0833333
        k(   14) = (   0.1250000  -0.3535534   0.0000000), wk =   0.0416667
        k(   15) = (   0.2500000   0.0000000   0.0000000), wk =   0.0416667
        k(   16) = (   0.2500000   0.0589256   0.0000000), wk =   0.0833333
        k(   17) = (   0.2500000   0.1178511   0.0000000), wk =   0.0833333
        k(   18) = (   0.2500000   0.1767767   0.0000000), wk =   0.0833333
        k(   19) = (   0.2500000   0.2357023   0.0000000), wk =   0.0833333
        k(   20) = (   0.2500000   0.2946278   0.0000000), wk =   0.0833333
        k(   21) = (   0.2500000  -0.3535534   0.0000000), wk =   0.0416667
        k(   22) = (   0.3750000   0.0000000   0.0000000), wk =   0.0416667
        k(   23) = (   0.3750000   0.0589256   0.0000000), wk =   0.0833333
        k(   24) = (   0.3750000   0.1178511   0.0000000), wk =   0.0833333
        k(   25) = (   0.3750000   0.1767767   0.0000000), wk =   0.0833333
        k(   26) = (   0.3750000   0.2357023   0.0000000), wk =   0.0833333
        k(   27) = (   0.3750000   0.2946278   0.0000000), wk =   0.0833333
        k(   28) = (   0.3750000  -0.3535534   0.0000000), wk =   0.0416667
        k(   29) = (  -0.5000000   0.0000000   0.0000000), wk =   0.0208333
        k(   30) = (  -0.5000000   0.0589256   0.0000000), wk =   0.0416667
        k(   31) = (  -0.5000000   0.1178511   0.0000000), wk =   0.0416667
        k(   32) = (  -0.5000000   0.1767767   0.0000000), wk =   0.0416667
        k(   33) = (  -0.5000000   0.2357023   0.0000000), wk =   0.0416667
        k(   34) = (  -0.5000000   0.2946278   0.0000000), wk =   0.0416667
        k(   35) = (  -0.5000000  -0.3535534   0.0000000), wk =   0.0208333

     Dense  grid:   142317 G-vectors     FFT dimensions: (  36,  50, 160)

     Estimated max dynamical RAM per process >     261.85 MB

     Estimated total dynamical RAM >       2.56 GB

     Initial potential from superposition of free atoms

     starting charge     307.9969, renormalised to     308.0000
     Starting wfcs are  252 randomized atomic wfcs
     Checking if some PAW data can be deallocated... 

     total cpu time spent up to now is       15.8 secs

     Self-consistent Calculation

     iteration #  1     ecut=    50.00 Ry     beta= 0.10
     Davidson diagonalization with overlap
     ethr =  1.00E-02,  avg # of iterations =  4.1

     total cpu time spent up to now is       57.6 secs

     total energy              =  -21690.43670922 Ry
     estimated scf accuracy    <      15.73256586 Ry

     iteration #  2     ecut=    50.00 Ry     beta= 0.10
     Davidson diagonalization with overlap
     ethr =  5.11E-03,  avg # of iterations =  3.0

     total cpu time spent up to now is       92.9 secs

     total energy              =  -21689.38347729 Ry
     estimated scf accuracy    <     163.01813868 Ry

     iteration #  3     ecut=    50.00 Ry     beta= 0.10
     Davidson diagonalization with overlap
     ethr =  5.11E-03,  avg # of iterations =  1.2

     total cpu time spent up to now is      122.7 secs

     total energy              =  -21693.08286436 Ry
     estimated scf accuracy    <       1.59519196 Ry

     iteration #  4     ecut=    50.00 Ry     beta= 0.10
     Davidson diagonalization with overlap
     ethr =  5.18E-04,  avg # of iterations =  5.5

     total cpu time spent up to now is      162.2 secs

     total energy              =  -21693.14070383 Ry
     estimated scf accuracy    <       0.83007335 Ry

     iteration #  5     ecut=    50.00 Ry     beta= 0.10
     Davidson diagonalization with overlap
     ethr =  2.70E-04,  avg # of iterations =  3.4

     total cpu time spent up to now is      197.7 secs

     total energy              =  -21693.07235621 Ry
     estimated scf accuracy    <       0.93417636 Ry

     iteration #  6     ecut=    50.00 Ry     beta= 0.10
     Davidson diagonalization with overlap
     ethr =  2.70E-04,  avg # of iterations =  1.9

     total cpu time spent up to now is      230.2 secs

     total energy              =  -21693.06617601 Ry
     estimated scf accuracy    <       0.23717569 Ry

     iteration #  7     ecut=    50.00 Ry     beta= 0.10
     Davidson diagonalization with overlap
     c_bands:  1 eigenvalues not converged
     ethr =  7.70E-05,  avg # of iterations =  7.3

     total cpu time spent up to now is      286.8 secs

     total energy              =  -21693.14358241 Ry
     estimated scf accuracy    <       0.05049789 Ry

     iteration #  8     ecut=    50.00 Ry     beta= 0.10
     Davidson diagonalization with overlap
     c_bands:  3 eigenvalues not converged
     c_bands:  1 eigenvalues not converged
     c_bands:  1 eigenvalues not converged
     c_bands:  2 eigenvalues not converged
     c_bands:  1 eigenvalues not converged
     c_bands:  1 eigenvalues not converged
     c_bands:  2 eigenvalues not converged
     ethr =  1.64E-05,  avg # of iterations = 12.7

     total cpu time spent up to now is      352.7 secs

     total energy              =  -21693.15507988 Ry
     estimated scf accuracy    <       0.03966698 Ry

     iteration #  9     ecut=    50.00 Ry     beta= 0.10
     Davidson diagonalization with overlap
     ethr =  1.29E-05,  avg # of iterations =  2.4

     total cpu time spent up to now is      385.5 secs

     total energy              =  -21693.16135344 Ry
     estimated scf accuracy    <       0.01904262 Ry

     iteration # 10     ecut=    50.00 Ry     beta= 0.10
     Davidson diagonalization with overlap
     ethr =  6.18E-06,  avg # of iterations =  3.6

     total cpu time spent up to now is      423.3 secs

     total energy              =  -21693.16309963 Ry
     estimated scf accuracy    <       0.00567975 Ry

     iteration # 11     ecut=    50.00 Ry     beta= 0.10
     Davidson diagonalization with overlap
     c_bands:  1 eigenvalues not converged
     c_bands:  1 eigenvalues not converged
     ethr =  1.84E-06,  avg # of iterations =  9.9

     total cpu time spent up to now is      465.9 secs

     total energy              =  -21693.16363944 Ry
     estimated scf accuracy    <       0.00120917 Ry

     iteration # 12     ecut=    50.00 Ry     beta= 0.10
     Davidson diagonalization with overlap
     ethr =  3.93E-07,  avg # of iterations =  4.2

     total cpu time spent up to now is      516.9 secs

     total energy              =  -21693.16409754 Ry
     estimated scf accuracy    <       0.00041787 Ry

     iteration # 13     ecut=    50.00 Ry     beta= 0.10
     Davidson diagonalization with overlap
     ethr =  1.36E-07,  avg # of iterations =  4.0

     total cpu time spent up to now is      563.5 secs

     total energy              =  -21693.16402962 Ry
     estimated scf accuracy    <       0.00028290 Ry

     iteration # 14     ecut=    50.00 Ry     beta= 0.10
     Davidson diagonalization with overlap
     ethr =  9.19E-08,  avg # of iterations =  2.2

     total cpu time spent up to now is      603.6 secs

     total energy              =  -21693.16409845 Ry
     estimated scf accuracy    <       0.00008701 Ry

     iteration # 15     ecut=    50.00 Ry     beta= 0.10
     Davidson diagonalization with overlap
     ethr =  2.83E-08,  avg # of iterations =  2.3

     total cpu time spent up to now is      639.5 secs

     total energy              =  -21693.16410737 Ry
     estimated scf accuracy    <       0.00003670 Ry

     iteration # 16     ecut=    50.00 Ry     beta= 0.10
     Davidson diagonalization with overlap
     ethr =  1.19E-08,  avg # of iterations =  4.0

     total cpu time spent up to now is      684.9 secs

     total energy              =  -21693.16410051 Ry
     estimated scf accuracy    <       0.00001819 Ry

     iteration # 17     ecut=    50.00 Ry     beta= 0.10
     Davidson diagonalization with overlap
     ethr =  5.91E-09,  avg # of iterations =  4.1

     total cpu time spent up to now is      732.0 secs

     total energy              =  -21693.16410537 Ry
     estimated scf accuracy    <       0.00000379 Ry

     iteration # 18     ecut=    50.00 Ry     beta= 0.10
     Davidson diagonalization with overlap
     ethr =  1.23E-09,  avg # of iterations =  4.4

     total cpu time spent up to now is      780.7 secs

     total energy              =  -21693.16410561 Ry
     estimated scf accuracy    <       0.00000181 Ry

     iteration # 19     ecut=    50.00 Ry     beta= 0.10
     Davidson diagonalization with overlap
     ethr =  5.87E-10,  avg # of iterations =  2.6

     total cpu time spent up to now is      817.4 secs

     total energy              =  -21693.16410590 Ry
     estimated scf accuracy    <       0.00000157 Ry

     iteration # 20     ecut=    50.00 Ry     beta= 0.10
     Davidson diagonalization with overlap
     ethr =  5.10E-10,  avg # of iterations =  1.6

     total cpu time spent up to now is      848.7 secs

     End of self-consistent calculation

          k = 0.0000 0.0000 0.0000 ( 17807 PWs)   bands (ev):

    -1.7425  -1.7424   0.6014   1.0746   1.8081   1.8083   2.0747   4.0097
     4.4513   5.6847   6.1167   6.1907   6.1919   8.0324   8.1661   8.4607
     8.4634   8.8722   9.0014   9.1291   9.4864   9.6630   9.7545   9.8382
     9.8409  10.1725  10.1748  10.4282  10.5229  10.6032  10.6926  10.6961
    10.9213  10.9564  10.9589  11.0720  11.0806  11.0857  11.0930  11.2555
    11.2836  11.3692  11.3875  11.4290  11.4307  11.4611  11.5430  11.6416
    11.6965  11.7112  11.7490  11.7903  11.8469  11.9215  11.9674  12.0274
    12.1236  12.1304  12.3121  12.3198  12.3558  12.3858  12.4649  12.6650
    12.6979  12.7702  12.8449  12.9063  12.9370  12.9488  12.9893  12.9903
    13.0471  13.0861  13.1163  13.1479  13.2079  13.2311  13.2770  13.3402
    13.3775  13.4067  13.4332  13.4763  13.5681  13.6606  13.7103  13.7210
    13.7946  13.9040  14.0486  14.0695  14.1062  14.2274  14.2570  14.2782
    14.3174  14.4361  14.4425  14.4523  14.4924  14.6104  14.6401  14.6555
    14.6566  14.8245  14.8421  14.8613  14.8805  14.9234  14.9295  14.9802
    14.9804  15.0080  15.0770  15.1186  15.1811  15.2555  15.2734  15.3222
    15.3785  15.4279  15.4506  15.4633  15.4904  15.6163  15.6926  15.7111
    15.7457  15.7630  15.8097  15.8789  15.8905  15.9005  16.0256  16.0491
    16.0545  16.0783  16.1830  16.2245  16.2275  16.2342  16.2675  16.2791
    16.5116  17.0089  17.5209  17.5497  17.5568  17.6863  17.7164  17.9005
    17.9806  18.1926  18.2263  18.3997  18.6522  18.6526  18.6593  18.9320
    18.9461  19.1720  20.0498  20.6426  20.7421  20.7434  21.4075  22.0713
    22.5005  22.8583  23.6836  24.1141  24.2724  24.2965  24.3977  24.4846
    24.5385  24.8670  24.9416  24.9640  25.3483  25.8718  25.9021  25.9398
    26.1236

          k = 0.0000 0.0589 0.0000 ( 17795 PWs)   bands (ev):

    -1.9542  -1.4323   0.5884   0.8786   1.5314   2.0920   2.1339   4.2300
     4.4963   5.6508   5.8597   6.1667   6.5184   8.0712   8.1951   8.3083
     8.3740   8.5298   9.0070   9.1634   9.4393   9.4526   9.6429  10.0207
    10.1368  10.1838  10.3425  10.4174  10.5601  10.6367  10.6977  10.7098
    10.9038  10.9605  10.9897  11.0112  11.0233  11.1244  11.1667  11.2507
    11.3347  11.3784  11.4143  11.4303  11.4849  11.4971  11.6004  11.6049
    11.6528  11.7188  11.7365  11.8192  11.8292  11.8982  12.0061  12.0331
    12.1263  12.2001  12.2646  12.3199  12.3700  12.4406  12.4541  12.6330
    12.6513  12.7575  12.7821  12.8882  12.8904  12.9043  12.9592  12.9763
    13.0342  13.1187  13.1370  13.1922  13.2059  13.2123  13.2842  13.3290
    13.3569  13.4213  13.4268  13.5004  13.5935  13.6571  13.6597  13.7584
    13.8072  13.8738  13.9908  14.0362  14.0763  14.2200  14.2484  14.2678
    14.2935  14.3997  14.4469  14.4531  14.4989  14.5846  14.6106  14.6130
    14.6923  14.7568  14.7978  14.8704  14.8810  14.9040  14.9042  14.9181
    15.0021  15.0396  15.0972  15.1690  15.2069  15.2173  15.2566  15.3391
    15.3657  15.4280  15.4370  15.4625  15.5779  15.5800  15.6263  15.7079
    15.7108  15.7902  15.7991  15.8580  15.8742  15.8837  15.9564  15.9597
    16.1281  16.1339  16.1730  16.1743  16.2400  16.2518  16.2718  16.4031
    16.5004  16.9781  16.9906  17.1036  17.2156  17.3647  17.4593  18.0484
    18.2285  18.4026  18.4264  18.4818  18.5467  18.7104  19.0737  19.2537
    19.2981  19.3805  20.1310  20.7113  20.7735  20.9945  21.4655  22.1139
    22.5318  22.8908  23.6877  23.7881  23.8293  24.1014  24.3948  24.4146
    24.7247  24.8689  25.0769  25.3134  25.3496  25.5527  25.7982  25.8772
    26.1327

          k = 0.0000 0.1179 0.0000 ( 17803 PWs)   bands (ev):

    -2.0627  -1.0356   0.4244   0.5532   1.3144   2.1359   2.4996   4.6293
     4.7222   5.5370   5.5784   6.3128   6.8268   7.4685   8.0232   8.1925
     8.2878   8.5396   9.0137   9.0244   9.2839   9.5254   9.7074   9.8956
    10.3129  10.3674  10.4866  10.5830  10.6724  10.7181  10.7358  10.7397
    10.8507  10.9050  11.0005  11.0552  11.0571  11.1944  11.2152  11.2461
    11.3451  11.4434  11.4697  11.4892  11.4972  11.5588  11.5936  11.6066
    11.6579  11.7218  11.7853  11.8247  11.9216  11.9352  12.0513  12.0519
    12.1739  12.2317  12.2833  12.3065  12.3354  12.4306  12.5166  12.5573
    12.6032  12.6733  12.6842  12.7936  12.8393  12.8864  12.8906  12.8932
    13.0080  13.0797  13.1450  13.1607  13.2022  13.2600  13.2866  13.3242
    13.3266  13.4265  13.4789  13.5065  13.6141  13.6354  13.6793  13.8001
    13.8044  13.8306  13.8553  13.8872  14.0338  14.1493  14.1905  14.2936
    14.3059  14.3450  14.4036  14.4848  14.4989  14.5211  14.5335  14.6175
    14.6745  14.7180  14.7185  14.7412  14.7913  14.8437  14.9103  14.9520
    15.0048  15.0160  15.0575  15.1633  15.1720  15.1883  15.2125  15.2992
    15.3343  15.3866  15.4510  15.4665  15.5108  15.5350  15.5853  15.6870
    15.7149  15.7300  15.8440  15.8557  15.8657  15.8937  15.9248  16.0110
    16.1080  16.1150  16.1435  16.1772  16.2373  16.2573  16.3123  16.3788
    16.4356  16.5520  16.6020  16.6447  16.6910  16.9716  17.3503  17.6575
    18.0119  18.5114  18.6799  18.8602  19.0999  19.1891  19.5326  19.6369
    20.0637  20.0877  20.3556  20.9129  20.9753  21.2780  21.6283  22.2292
    22.6193  22.9847  23.2812  23.5732  23.6981  24.0485  24.0572  24.3350
    24.3802  24.8710  24.8953  25.2598  25.3473  25.4875  25.7753  25.8750
    26.0146

          k = 0.0000 0.1768 0.0000 ( 17795 PWs)   bands (ev):

    -2.0667  -0.5799  -0.1070   0.5051   1.1762   2.1793   2.8960   4.8456
     5.0301   5.2389   5.7265   6.5307   6.5564   7.0976   7.5866   8.3441
     8.4469   8.5065   8.6310   9.0532   9.4834   9.6609   9.7994   9.8000
    10.3642  10.3731  10.4776  10.7135  10.7159  10.7956  10.8298  10.8551
    10.8634  10.9336  11.0369  11.0851  11.1209  11.1598  11.2745  11.2749
    11.3223  11.3758  11.5085  11.5356  11.5636  11.6326  11.6815  11.7089
    11.7187  11.8420  11.8562  11.8960  11.9067  12.0279  12.0868  12.1142
    12.1910  12.1964  12.2488  12.2498  12.3711  12.4126  12.5340  12.5385
    12.5732  12.5755  12.6498  12.6882  12.7809  12.8003  12.8486  12.9206
    12.9211  13.0156  13.0359  13.0674  13.2208  13.2450  13.2789  13.3008
    13.3449  13.4031  13.4874  13.5615  13.5635  13.6289  13.6911  13.7640
    13.7735  13.7973  13.8234  13.8615  13.9397  14.1152  14.1347  14.1638
    14.2671  14.3209  14.3905  14.4343  14.4640  14.4769  14.5158  14.5347
    14.5750  14.6640  14.6735  14.7067  14.7543  14.8053  14.8872  14.8874
    14.9254  14.9627  15.0172  15.0405  15.0586  15.1583  15.1780  15.2137
    15.2930  15.3491  15.3595  15.3865  15.4319  15.4490  15.5468  15.5504
    15.6524  15.6762  15.7998  15.8003  15.8245  15.8470  15.9015  15.9696
    16.0093  16.0659  16.0755  16.1043  16.1159  16.2101  16.2264  16.2706
    16.2802  16.3317  16.3658  16.6084  16.7029  16.9352  17.2802  17.3128
    17.9035  18.8303  18.9369  19.0756  19.4804  19.9634  20.0198  20.1036
    20.6739  20.7126  20.7794  21.2342  21.2699  21.4915  21.8672  22.3780
    22.7330  22.8289  23.1286  23.5240  23.7156  23.9427  23.9668  24.1370
    24.3210  24.5202  24.8528  24.8543  25.1599  25.3154  25.4105  25.4133
    25.6809

          k = 0.0000 0.2357 0.0000 ( 17822 PWs)   bands (ev):

    -1.9671  -0.6241  -0.1308   0.4538   1.1623   2.1680   3.3124   4.8578
     4.9890   5.1300   5.7379   6.2735   6.8428   7.0567   7.2977   8.2787
     8.4353   8.4452   8.7084   9.1371   9.7140   9.7315   9.8169   9.9348
    10.1940  10.2809  10.4520  10.6356  10.7872  10.8389  10.9246  10.9683
    10.9751  11.0129  11.0829  11.1025  11.1450  11.2577  11.2751  11.3221
    11.3271  11.3788  11.4943  11.5952  11.6275  11.7217  11.7345  11.7915
    11.7922  11.8495  11.8770  11.9588  11.9828  12.0492  12.0965  12.1196
    12.1661  12.1795  12.2704  12.3047  12.3969  12.4387  12.4454  12.5022
    12.5399  12.5723  12.6025  12.6196  12.7631  12.8404  12.8451  12.8647
    12.8702  12.9672  12.9928  13.0282  13.1481  13.1802  13.2307  13.2757
    13.3569  13.3743  13.4582  13.4990  13.5553  13.6365  13.6515  13.7157
    13.7774  13.8130  13.8691  13.8854  13.9746  13.9956  14.0140  14.1169
    14.1334  14.2628  14.3286  14.3310  14.3859  14.3986  14.4750  14.4861
    14.5304  14.5633  14.6408  14.6747  14.6906  14.7348  14.7408  14.8277
    14.8315  14.8702  14.9371  14.9705  15.0259  15.0898  15.0906  15.1390
    15.1790  15.1904  15.2503  15.3051  15.3214  15.3852  15.4181  15.5366
    15.5705  15.6166  15.6503  15.6761  15.6990  15.7629  15.8272  15.8284
    15.8518  15.9163  16.0162  16.0624  16.1134  16.1654  16.2002  16.2329
    16.2651  16.3541  16.4132  16.5243  16.8644  16.9964  17.3602  17.3737
    17.8393  19.2313  19.3423  19.4075  19.4117  20.5363  20.6267  20.7542
    20.7869  20.8634  21.0193  21.6347  22.0107  22.1278  22.1792  22.5073
    22.5394  22.7802  23.0067  23.3074  23.7453  23.8342  24.1126  24.1288
    24.2532  24.4080  24.6007  24.7437  24.7687  24.8029  25.0070  25.1976
    25.2222

          k = 0.0000 0.2946 0.0000 ( 17818 PWs)   bands (ev):

    -1.7667  -1.0855   0.1894   0.4026   1.3520   2.0226   3.7355   4.5335
     4.8285   5.0870   5.5717   6.5121   6.8164   7.1872   7.3609   7.9222
     8.3923   8.4370   9.0435   9.3186   9.6723   9.7863   9.8282  10.0323
    10.0895  10.1615  10.5073  10.6026  10.7515  10.8867  10.9060  11.0353
    11.0999  11.1185  11.1193  11.1429  11.1759  11.2502  11.3343  11.3348
    11.3864  11.4024  11.4970  11.5526  11.6619  11.7086  11.7782  11.7851
    11.8209  11.8909  11.9336  11.9634  12.0300  12.0752  12.0844  12.1432
    12.1693  12.2354  12.2943  12.2980  12.3222  12.3626  12.4265  12.5381
    12.5564  12.5741  12.6384  12.7016  12.7182  12.7544  12.7548  12.8276
    12.8524  13.0052  13.0273  13.0826  13.0887  13.2463  13.2633  13.3084
    13.3302  13.3895  13.4222  13.4406  13.4555  13.5754  13.5890  13.7129
    13.8109  13.8260  13.8476  13.8858  13.9310  13.9736  14.0438  14.1046
    14.1055  14.1342  14.1548  14.1595  14.2889  14.3329  14.3699  14.3977
    14.4553  14.4560  14.5121  14.5726  14.6168  14.6323  14.6938  14.7558
    14.8000  14.8296  14.8662  14.8949  14.9977  15.0207  15.0673  15.0769
    15.1393  15.1748  15.1965  15.2299  15.2368  15.2962  15.3703  15.3936
    15.4688  15.5415  15.5917  15.6177  15.6946  15.7312  15.7322  15.8312
    15.8350  15.8882  16.0441  16.0829  16.0903  16.1639  16.1740  16.2331
    16.2527  16.2845  16.4870  16.5670  16.7897  16.8026  17.4796  17.7331
    18.0306  19.1137  19.5519  19.6442  19.9672  20.2769  20.6631  21.1490
    21.3267  21.4409  21.6376  21.7987  22.0972  22.3364  22.3531  22.6543
    22.7261  23.0229  23.1326  23.4139  23.4935  23.7299  23.9203  23.9346
    23.9451  24.1832  24.4742  24.5814  24.6567  24.8390  24.8412  24.9685
    25.0258

          k = 0.0000-0.3536 0.0000 ( 17844 PWs)   bands (ev):

    -1.4704  -1.4704   0.3356   0.3356   1.7087   1.7087   4.1493   4.1493
     4.8314   4.8314   6.0036   6.0036   7.2032   7.2032   7.5541   7.5541
     8.3966   8.3967   9.4257   9.4257   9.5453   9.5453   9.8413   9.8413
    10.3282  10.3282  10.4794  10.4794  10.7708  10.7708  11.0364  11.0364
    11.0620  11.0620  11.2160  11.2160  11.2574  11.2574  11.2945  11.2945
    11.4196  11.4196  11.5081  11.5081  11.7187  11.7187  11.7631  11.7631
    11.9061  11.9061  11.9295  11.9295  12.0627  12.0627  12.0956  12.0956
    12.1652  12.1652  12.3097  12.3098  12.3954  12.3954  12.4642  12.4642
    12.5753  12.5753  12.6254  12.6254  12.7154  12.7154  12.8059  12.8059
    12.9341  12.9341  13.0792  13.0793  13.1721  13.1721  13.3433  13.3433
    13.3667  13.3668  13.4277  13.4277  13.4956  13.4956  13.6748  13.6748
    13.7342  13.7342  13.9040  13.9040  13.9707  13.9707  13.9820  13.9820
    14.0037  14.0037  14.2154  14.2154  14.2908  14.2908  14.3064  14.3064
    14.3559  14.3559  14.5164  14.5164  14.5546  14.5546  14.7095  14.7095
    14.8527  14.8527  14.8868  14.8868  14.9507  14.9507  15.0634  15.0634
    15.0924  15.0924  15.2601  15.2601  15.3064  15.3064  15.3414  15.3414
    15.3866  15.3866  15.5970  15.5970  15.6848  15.6848  15.8243  15.8243
    15.8548  15.8548  16.0796  16.0796  16.1066  16.1066  16.1949  16.1949
    16.2612  16.2612  16.5666  16.5666  16.7363  16.7363  17.6064  17.6064
    18.6341  18.6341  19.8696  19.8696  19.9618  19.9618  21.1570  21.1570
    21.5486  21.5486  21.8132  21.8132  22.2892  22.2892  22.4160  22.4160
    23.0723  23.0723  23.2700  23.2700  23.6035  23.6035  23.8822  23.8822
    24.0730  24.0730  24.3813  24.3813  24.5846  24.5846  24.7910  24.7911
    25.2944

          k = 0.1250 0.0000 0.0000 ( 17777 PWs)   bands (ev):

    -1.7317  -1.7316   0.5953   1.0771   1.8158   1.8159   2.1278   4.0338
     4.5538   5.6598   6.1489   6.2325   6.2337   8.1727   8.3804   8.4184
     8.4210   8.7137   9.0769   9.1390   9.5965   9.7000   9.8186   9.8439
     9.8455  10.1843  10.1884  10.4218  10.4285  10.5962  10.6975  10.6982
    10.7794  10.7904  10.9427  11.0586  11.1191  11.1434  11.1726  11.1818
    11.2840  11.3718  11.4011  11.4391  11.4746  11.5253  11.5540  11.6010
    11.6104  11.6624  11.6811  11.7172  11.7901  11.9902  11.9983  12.0964
    12.2513  12.3405  12.3614  12.4214  12.6435  12.6684  12.7053  12.7377
    12.8031  12.8491  12.9424  12.9504  12.9602  13.0008  13.0047  13.0639
    13.0924  13.1278  13.1751  13.2156  13.2721  13.3090  13.3218  13.3518
    13.3525  13.4200  13.4660  13.4935  13.5783  13.6431  13.6669  13.6893
    13.7363  13.8343  13.8803  13.9076  13.9889  14.1501  14.1512  14.2189
    14.2258  14.3262  14.3353  14.4769  14.4982  14.5193  14.5751  14.6520
    14.6907  14.7118  14.7334  14.8330  14.8426  14.8487  14.9387  14.9458
    14.9923  14.9968  15.0625  15.1143  15.1769  15.2626  15.2835  15.2840
    15.3574  15.3799  15.4109  15.4352  15.4617  15.6184  15.6216  15.6531
    15.7161  15.7196  15.7796  15.8484  15.8578  15.8874  15.9807  15.9965
    16.0101  16.0133  16.1005  16.1133  16.1342  16.1430  16.2454  16.2544
    16.4816  16.9418  17.5483  17.5516  17.5528  17.6578  17.7238  17.7453
    18.0856  18.1308  18.3957  18.4367  18.5692  18.8517  18.8750  18.9408
    19.1144  19.3855  19.4391  19.6199  20.9151  20.9173  21.0644  21.5226
    22.3734  22.7579  23.5766  23.5914  23.5968  23.9864  24.0700  24.0846
    24.1973  24.2882  24.3538  24.7608  24.8137  25.0170  25.0296  25.3194
    25.7007

          k = 0.1250 0.0589 0.0000 ( 17791 PWs)   bands (ev):

    -1.9419  -1.4234   0.5822   0.8849   1.5381   2.1415   2.1422   4.2452
     4.6042   5.6273   5.9104   6.1969   6.5493   8.1929   8.2754   8.3022
     8.4523   8.4872   9.0672   9.1648   9.4522   9.4972   9.7173  10.0380
    10.1445  10.1549  10.3442  10.4094  10.4849  10.6550  10.6979  10.7116
    10.7592  10.8165  10.9522  11.0400  11.1101  11.1417  11.2239  11.2250
    11.2918  11.3844  11.4349  11.4527  11.4773  11.5275  11.5636  11.5879
    11.6573  11.6856  11.6876  11.7852  11.8085  11.9133  12.0742  12.1098
    12.2583  12.3202  12.3676  12.4059  12.5730  12.6448  12.6534  12.7310
    12.7943  12.8211  12.8834  12.9264  12.9371  12.9916  13.0082  13.0518
    13.1063  13.1313  13.1929  13.2213  13.2596  13.2993  13.3061  13.3354
    13.3558  13.4200  13.4717  13.4731  13.5903  13.6347  13.6351  13.7102
    13.7662  13.8084  13.8371  13.9004  13.9777  14.0768  14.1308  14.2034
    14.2384  14.3034  14.3447  14.4403  14.4684  14.4840  14.5805  14.6088
    14.6656  14.7074  14.7747  14.7794  14.8367  14.8696  14.9048  14.9270
    15.0077  15.0173  15.0720  15.0912  15.1609  15.2469  15.2620  15.3152
    15.3275  15.3964  15.4343  15.4547  15.5067  15.5427  15.5931  15.6775
    15.7023  15.7293  15.7702  15.8394  15.8613  15.8938  15.9246  15.9473
    16.0185  16.0283  16.0608  16.0874  16.1098  16.1576  16.1709  16.4492
    16.4944  16.9186  16.9915  17.0967  17.4100  17.4500  17.6027  17.7954
    18.0901  18.4441  18.5653  18.6524  18.6738  18.9168  18.9947  19.1878
    19.2118  19.5236  19.6815  19.6851  20.9816  21.1065  21.2344  21.5593
    22.4248  22.7318  22.8177  23.4768  23.5868  23.6679  23.9806  23.9961
    24.2025  24.2103  24.5776  24.6439  25.0739  25.2737  25.3040  25.6125
    25.8365

          k = 0.1250 0.1179 0.0000 ( 17815 PWs)   bands (ev):

    -2.0491  -1.0293   0.4354   0.5477   1.3199   2.1779   2.5082   4.6682
     4.7967   5.5576   5.5956   6.3385   6.8428   7.4780   8.0181   8.3437
     8.4986   8.5001   9.0363   9.0761   9.2845   9.5548   9.7941   9.9138
    10.2971  10.3517  10.4658  10.4660  10.6083  10.7065  10.7379  10.7825
    10.8201  10.8279  10.9652  11.0670  11.1325  11.1727  11.2394  11.3189
    11.3625  11.3648  11.4740  11.4940  11.5090  11.5821  11.5889  11.6720
    11.7200  11.7566  11.7584  11.8209  11.8623  11.9226  12.1133  12.1377
    12.2721  12.2856  12.3552  12.3681  12.4696  12.5119  12.5968  12.6791
    12.6830  12.8055  12.8175  12.8670  12.8869  12.9515  12.9630  13.0436
    13.0480  13.1193  13.1735  13.2046  13.2300  13.2679  13.2786  13.3387
    13.3427  13.4463  13.4538  13.4646  13.5982  13.6025  13.6674  13.6831
    13.7575  13.7927  13.8365  13.8808  13.9182  13.9886  14.0738  14.1356
    14.2089  14.2150  14.3524  14.3569  14.4277  14.4296  14.5577  14.6049
    14.6113  14.6399  14.6790  14.7664  14.7956  14.8396  14.8863  14.9257
    14.9704  15.0211  15.0446  15.1132  15.1203  15.1700  15.2295  15.2590
    15.3138  15.3495  15.3896  15.4486  15.4777  15.5458  15.5562  15.6523
    15.7204  15.7616  15.7645  15.8140  15.8454  15.9019  15.9121  15.9684
    15.9748  16.0339  16.0369  16.0711  16.1001  16.1298  16.2368  16.4082
    16.4827  16.5416  16.6448  16.8045  16.9215  16.9665  17.3010  18.0592
    18.0963  18.3639  18.7416  18.9107  19.1095  19.1473  19.3352  19.4000
    19.5733  19.8733  20.2922  20.4149  21.2199  21.2257  21.4335  21.6595
    22.0699  22.5717  22.9916  23.1110  23.2015  23.4871  23.5741  23.6174
    24.0226  24.2167  24.5652  24.8038  25.2169  25.5501  25.6867  25.8121
    25.9917

          k = 0.1250 0.1768 0.0000 ( 17796 PWs)   bands (ev):

    -2.0520  -0.5768  -0.0924   0.4995   1.1808   2.2112   2.9041   4.9316
     5.0407   5.3050   5.6974   6.5632   6.6091   7.0869   7.6307   8.4628
     8.5213   8.5989   8.6657   9.1209   9.4828   9.6946   9.8185   9.8976
    10.3218  10.3853  10.4580  10.6069  10.7067  10.7433  10.7717  10.8393
    10.8761  10.9388  11.0622  11.1142  11.1681  11.1939  11.2684  11.3345
    11.4028  11.4603  11.5278  11.5332  11.5678  11.6410  11.7357  11.7465
    11.8021  11.8039  11.8562  11.8656  11.9591  12.0015  12.1063  12.1478
    12.2396  12.2547  12.3186  12.3487  12.3955  12.3973  12.5346  12.5671
    12.5966  12.7083  12.7479  12.8003  12.8228  12.9096  12.9130  12.9959
    13.0003  13.0452  13.0957  13.1253  13.1941  13.2003  13.2538  13.3293
    13.3553  13.4050  13.4689  13.5319  13.5409  13.6197  13.6320  13.7159
    13.7308  13.7404  13.8187  13.8428  13.9312  13.9861  14.0076  14.0662
    14.0823  14.1402  14.2287  14.3162  14.3233  14.4132  14.4627  14.5316
    14.5535  14.6004  14.6562  14.6848  14.7182  14.7737  14.7981  14.8856
    14.9210  14.9815  15.0095  15.0401  15.0548  15.1054  15.1810  15.1910
    15.2556  15.2741  15.3017  15.3697  15.4815  15.5001  15.5720  15.5750
    15.6335  15.6838  15.7515  15.7772  15.8114  15.8284  15.8982  15.9317
    15.9846  16.0016  16.0181  16.0646  16.0820  16.0985  16.1885  16.2060
    16.3141  16.3659  16.4024  16.6983  16.7777  16.9417  17.2442  17.8091
    18.2125  18.3494  18.8674  19.1914  19.4141  19.4827  19.7262  20.1408
    20.1654  20.2516  20.6816  21.0626  21.3566  21.4074  21.4399  21.8000
    21.8775  22.7281  22.7762  22.8700  23.2579  23.2834  23.3440  23.6690
    24.0538  24.2341  24.4087  24.6443  24.9271  25.5421  25.5570  25.8838
    26.0141

          k = 0.1250 0.2357 0.0000 ( 17785 PWs)   bands (ev):

    -1.9516  -0.6079  -0.1314   0.4486   1.1658   2.1869   3.3188   4.8516
     5.0626   5.2345   5.7426   6.3141   6.8569   7.0711   7.3280   8.2577
     8.4768   8.5859   8.8309   9.2416   9.7130   9.7500   9.8698  10.0224
    10.2201  10.3154  10.4239  10.6770  10.7640  10.8030  10.8425  10.9355
    10.9844  11.0401  11.0644  11.1776  11.1803  11.2966  11.3175  11.3578
    11.3814  11.4848  11.5684  11.5776  11.6881  11.7058  11.7403  11.7936
    11.8142  11.8961  11.9519  11.9813  12.0503  12.0738  12.1270  12.1313
    12.2085  12.2270  12.2974  12.3273  12.3732  12.3842  12.4662  12.5038
    12.5396  12.6114  12.6785  12.7040  12.7764  12.8717  12.8736  12.9268
    12.9403  12.9700  13.0705  13.0782  13.1482  13.1509  13.2254  13.2607
    13.3268  13.3519  13.4443  13.4790  13.5732  13.6196  13.6289  13.6663
    13.6904  13.7480  13.8071  13.8500  13.8761  13.9209  13.9673  13.9959
    14.0424  14.1009  14.1593  14.1724  14.2468  14.2895  14.4129  14.4444
    14.4648  14.5292  14.5931  14.5969  14.6363  14.7086  14.7438  14.7859
    14.7962  14.9002  14.9554  14.9887  15.0220  15.0421  15.0819  15.1117
    15.1893  15.2501  15.2635  15.3037  15.3440  15.4116  15.4435  15.5021
    15.5629  15.6280  15.6457  15.6533  15.7232  15.7863  15.8078  15.8214
    15.8810  15.9550  15.9795  16.0392  16.0721  16.1004  16.1657  16.2105
    16.2492  16.2780  16.4125  16.6779  16.9009  17.2025  17.4213  17.4913
    18.0590  18.6271  18.9752  19.4965  19.7848  19.9473  20.1050  20.1320
    20.5339  20.7695  21.0276  21.1678  21.3808  21.6352  21.9611  22.0362
    22.1508  22.3581  22.6630  22.8914  23.2382  23.4072  23.5487  23.7423
    24.0275  24.2389  24.4793  24.5088  24.6419  25.0335  25.1781  25.5773
    26.0131

          k = 0.1250 0.2946 0.0000 ( 17801 PWs)   bands (ev):

    -1.7506  -1.0688   0.1859   0.3978   1.3535   2.0287   3.7385   4.5271
     4.9094   5.1682   5.6558   6.5818   6.7978   7.1958   7.3327   7.9169
     8.4450   8.5454   9.1526   9.4426   9.6905   9.8237   9.9128  10.1086
    10.1369  10.2249  10.5590  10.6051  10.7927  10.9043  10.9334  10.9628
    11.0670  11.0804  11.1316  11.1450  11.1950  11.2905  11.3497  11.3584
    11.4413  11.4719  11.5995  11.6060  11.6562  11.7062  11.7683  11.8549
    11.8733  11.9275  12.0022  12.0031  12.0720  12.1050  12.1275  12.1955
    12.2170  12.2664  12.2902  12.3537  12.3755  12.3845  12.4795  12.4976
    12.5406  12.5889  12.6251  12.6695  12.7344  12.7742  12.8045  12.8337
    12.9214  12.9941  13.0334  13.1003  13.1035  13.1441  13.1583  13.2918
    13.3069  13.3472  13.3530  13.4657  13.5012  13.5168  13.6395  13.6576
    13.7271  13.7280  13.7613  13.7887  13.8394  13.8481  13.8965  13.9179
    13.9904  14.0571  14.0980  14.1250  14.1727  14.2360  14.2414  14.3280
    14.4110  14.4690  14.5793  14.5949  14.6353  14.6797  14.6855  14.7649
    14.7734  14.8418  14.8421  14.8933  14.9388  14.9493  15.0370  15.0412
    15.1140  15.1265  15.1950  15.2326  15.2407  15.3122  15.3511  15.3813
    15.4600  15.5442  15.5955  15.6936  15.7031  15.7538  15.7926  15.8549
    15.8658  15.9550  16.0114  16.0480  16.0494  16.1229  16.1318  16.1720
    16.2525  16.2910  16.5155  16.6187  16.9023  17.2148  17.4477  17.8699
    17.9481  18.8755  18.8826  19.4796  19.8227  20.1789  20.5066  20.5836
    20.7127  20.9427  21.0353  21.4669  21.7150  21.8767  21.9995  22.1258
    22.1683  22.5741  22.6880  22.7629  23.5127  23.5444  23.7758  23.8482
    23.9173  24.2054  24.4036  24.5619  24.5800  24.7383  24.8245  25.1985
    25.6314

          k = 0.1250-0.3536 0.0000 ( 17808 PWs)   bands (ev):

    -1.4538  -1.4538   0.3312   0.3312   1.7091   1.7091   4.1469   4.1469
     4.9166   4.9166   6.0891   6.0891   7.1640   7.1640   7.5566   7.5566
     8.4782   8.4782   9.5002   9.5002   9.6490   9.6490   9.9123   9.9123
    10.3897  10.3898  10.5234  10.5234  10.7956  10.7956  11.0172  11.0172
    11.0804  11.0804  11.1810  11.1810  11.2373  11.2373  11.3377  11.3377
    11.4662  11.4662  11.5622  11.5622  11.7229  11.7229  11.8278  11.8278
    11.9353  11.9353  11.9774  11.9774  12.0918  12.0918  12.1600  12.1600
    12.2469  12.2469  12.3435  12.3435  12.4256  12.4256  12.4830  12.4830
    12.5711  12.5711  12.6200  12.6200  12.7355  12.7355  12.8334  12.8334
    12.9163  12.9163  13.0649  13.0649  13.1009  13.1009  13.2018  13.2018
    13.3670  13.3670  13.3922  13.3922  13.5400  13.5400  13.6142  13.6142
    13.6916  13.6916  13.7600  13.7600  13.8075  13.8075  13.8787  13.8787
    13.9523  13.9523  14.0565  14.0565  14.1253  14.1253  14.3769  14.3769
    14.4408  14.4408  14.5576  14.5576  14.6643  14.6643  14.7018  14.7018
    14.7893  14.7893  14.8382  14.8382  14.8781  14.8781  15.0116  15.0116
    15.0687  15.0687  15.1121  15.1121  15.3209  15.3209  15.3767  15.3767
    15.4344  15.4344  15.6294  15.6294  15.7395  15.7395  15.8202  15.8202
    15.9443  15.9443  16.0100  16.0100  16.0981  16.0981  16.1529  16.1530
    16.2644  16.2644  16.5891  16.5891  17.0036  17.0036  17.6603  17.6603
    18.4933  18.4933  19.1297  19.1297  20.1637  20.1637  20.5712  20.5712
    21.0342  21.0342  21.3044  21.3044  21.7993  21.7993  22.1332  22.1332
    22.2996  22.2996  23.0523  23.0523  23.2912  23.2912  23.8675  23.8675
    24.1342  24.1342  24.4920  24.4920  24.7682  24.7682  24.9231  24.9231
    25.4864

          k = 0.2500 0.0000 0.0000 ( 17793 PWs)   bands (ev):

    -1.7056  -1.7055   0.5803   1.0869   1.8347   1.8349   2.2552   4.0936
     4.7935   5.5957   6.3243   6.3351   6.3361   8.3243   8.3267   8.4352
     8.5705   8.9569   9.1110   9.3053   9.5672   9.7422   9.7440   9.7452
    10.0220  10.1948  10.1980  10.2902  10.4065  10.5713  10.6503  10.6534
    10.7473  10.7509  10.8594  10.9804  11.1272  11.2591  11.2815  11.3070
    11.3419  11.3710  11.3824  11.4375  11.5000  11.5251  11.5370  11.6437
    11.6723  11.6780  11.8840  11.8960  11.9001  12.1617  12.1880  12.2156
    12.3961  12.4704  12.5005  12.5431  12.7666  12.8081  12.8334  12.8924
    12.9546  12.9562  12.9566  12.9707  12.9803  13.0400  13.0623  13.1608
    13.2376  13.2839  13.2890  13.2980  13.3762  13.4133  13.4202  13.4989
    13.5083  13.5190  13.5371  13.5627  13.6297  13.6881  13.7017  13.7028
    13.7365  13.8784  13.9100  13.9242  13.9417  13.9553  13.9882  14.0327
    14.0890  14.1814  14.2039  14.2046  14.3259  14.4214  14.4256  14.4606
    14.5066  14.5104  14.5393  14.6158  14.6519  14.7030  14.8233  14.9175
    14.9251  14.9700  15.0475  15.0564  15.0831  15.1069  15.1263  15.2430
    15.3105  15.3443  15.3471  15.4123  15.4530  15.5429  15.5528  15.5595
    15.6204  15.6716  15.6823  15.7345  15.8244  15.8584  15.8677  15.9418
    15.9423  15.9624  15.9712  16.0537  16.1484  16.1775  16.2561  16.3473
    16.3525  16.8052  16.8144  17.2417  17.3643  17.3799  17.5350  17.6018
    17.8307  17.8511  18.2895  18.3099  18.8566  18.9019  19.0419  19.1538
    19.3799  19.4381  19.5440  19.7059  20.4651  20.5265  21.3561  21.3570
    21.6160  22.3409  22.4219  22.4244  22.9036  22.9097  23.0132  23.0322
    23.3140  23.3393  23.3602  23.5107  23.5462  23.7023  24.7004  24.7773
    25.1878

          k = 0.2500 0.0589 0.0000 ( 17783 PWs)   bands (ev):

    -1.9120  -1.4022   0.5673   0.9024   1.5544   2.1632   2.2627   4.2880
     4.8500   5.5650   6.0417   6.3680   6.6145   8.2048   8.2150   8.3901
     8.5888   8.9482   9.1526   9.2337   9.4471   9.5580   9.8144   9.9894
    10.0633  10.0937  10.3010  10.3260  10.4240  10.5325  10.7041  10.7401
    10.7734  10.7941  10.8908  11.0097  11.1452  11.2512  11.2556  11.3446
    11.3617  11.3804  11.4209  11.4448  11.5323  11.5518  11.5644  11.6454
    11.6511  11.7233  11.8635  11.9090  11.9460  12.1632  12.1674  12.2368
    12.4013  12.4657  12.5080  12.5323  12.7686  12.7926  12.8155  12.8309
    12.8742  12.8948  12.9333  12.9721  12.9922  13.0409  13.0950  13.1780
    13.2263  13.2313  13.2599  13.3014  13.3636  13.4155  13.4176  13.4739
    13.4920  13.5105  13.5382  13.5836  13.6210  13.6435  13.6736  13.7193
    13.7209  13.8385  13.8457  13.8820  13.9090  13.9456  13.9903  14.0169
    14.0950  14.1274  14.1300  14.2314  14.2572  14.3718  14.3824  14.4225
    14.4487  14.5204  14.5709  14.6081  14.6736  14.7308  14.8057  14.8895
    14.9232  14.9865  14.9948  15.0663  15.0664  15.1314  15.1630  15.2261
    15.2983  15.2995  15.3544  15.4573  15.4646  15.4759  15.5737  15.5888
    15.6421  15.6447  15.7057  15.8046  15.8068  15.8346  15.8551  15.9172
    15.9371  15.9710  15.9892  16.0270  16.1149  16.1227  16.1637  16.3262
    16.5133  16.7522  16.9038  16.9200  17.1294  17.2794  17.4727  17.7099
    17.7254  17.8668  18.2100  18.6598  18.8491  18.9315  18.9760  19.2160
    19.5101  19.7618  19.8268  19.9792  20.2556  20.3150  21.4652  21.6345
    21.6937  21.8040  22.1425  22.2825  22.3550  22.5871  22.7940  23.3904
    23.4503  23.6685  23.7543  23.8527  24.1339  24.2674  24.4453  24.9142
    25.2051

          k = 0.2500 0.1179 0.0000 ( 17763 PWs)   bands (ev):

    -2.0161  -1.0142   0.4628   0.5348   1.3336   2.2827   2.5302   4.7052
     5.0199   5.4991   5.7508   6.4975   6.8551   7.5615   8.0102   8.4123
     8.7025   8.9389   9.1128   9.2670   9.2807   9.6301   9.9269   9.9461
    10.1675  10.1960  10.3190  10.3968  10.4521  10.5044  10.7831  10.8390
    10.8894  10.9088  10.9879  11.0973  11.1894  11.2321  11.2974  11.3527
    11.4132  11.4299  11.4791  11.5265  11.6058  11.6273  11.6320  11.6564
    11.6846  11.7670  11.8675  11.9431  12.0264  12.1316  12.1811  12.2575
    12.4056  12.4495  12.4953  12.5140  12.6633  12.7213  12.7532  12.7629
    12.8185  12.8230  12.8818  12.9203  12.9261  13.0228  13.0770  13.1129
    13.1467  13.1968  13.2412  13.2723  13.3263  13.3788  13.4004  13.4467
    13.4770  13.4911  13.5323  13.5616  13.5722  13.6367  13.6524  13.6750
    13.7272  13.7360  13.7886  13.8018  13.8035  13.9114  13.9130  13.9674
    14.0031  14.0744  14.0834  14.1709  14.1870  14.2428  14.3000  14.3880
    14.4083  14.4656  14.5512  14.5785  14.6681  14.6834  14.7751  14.7897
    14.8710  14.9195  14.9539  15.0451  15.0966  15.0967  15.1753  15.2181
    15.2735  15.3156  15.3289  15.4003  15.4759  15.5757  15.5919  15.6359
    15.6361  15.6803  15.7106  15.7336  15.8145  15.8292  15.8393  15.8530
    15.9139  15.9752  15.9789  16.0072  16.0311  16.0867  16.1763  16.2673
    16.4749  16.4760  16.7730  16.7882  17.0012  17.3073  17.3180  17.5828
    17.6224  17.9341  18.2014  18.5901  19.1210  19.3509  19.3602  19.5083
    19.7236  19.7308  19.9188  19.9243  20.5998  20.8707  21.2523  21.3182
    21.5243  21.6883  21.8025  22.1411  22.3861  22.3953  22.6620  23.5407
    23.7327  23.8979  23.9103  24.5520  24.7232  24.9469  25.0635  25.2542
    25.3928

          k = 0.2500 0.1768 0.0000 ( 17751 PWs)   bands (ev):

    -2.0164  -0.5696  -0.0564   0.4858   1.1919   2.2905   2.9256   5.0009
     5.1856   5.4815   5.6290   6.6885   6.8196   7.0171   7.7350   8.3966
     8.7846   8.8893   8.9268   9.4136   9.4781   9.7760   9.8565  10.0724
    10.2034  10.3057  10.3962  10.4157  10.4519  10.6326  10.8441  10.9037
    10.9681  11.0180  11.1091  11.2301  11.2357  11.2628  11.3546  11.4477
    11.4570  11.4748  11.5235  11.6127  11.6691  11.7015  11.7410  11.7585
    11.7830  11.8098  11.9166  11.9954  12.0812  12.1401  12.1972  12.2524
    12.3612  12.4181  12.4599  12.4650  12.5329  12.6123  12.6439  12.6668
    12.7056  12.7552  12.8045  12.8484  12.9145  12.9512  12.9960  13.0124
    13.0739  13.0965  13.2060  13.2366  13.3169  13.3184  13.3508  13.3972
    13.4299  13.4326  13.4687  13.5324  13.5648  13.5787  13.6043  13.6380
    13.6642  13.6732  13.7285  13.7688  13.7913  13.7959  13.8349  13.8463
    13.9580  13.9835  14.0583  14.0993  14.1035  14.1955  14.1997  14.2968
    14.3824  14.4062  14.4233  14.4757  14.5504  14.5996  14.6346  14.7479
    14.8314  14.8762  14.8990  15.0218  15.0302  15.0895  15.0930  15.1799
    15.2730  15.3162  15.3333  15.3901  15.4897  15.5015  15.5396  15.5869
    15.6218  15.6418  15.6972  15.7031  15.7648  15.7697  15.8103  15.8229
    15.8729  15.8745  15.8959  15.9865  15.9925  16.0316  16.1124  16.1143
    16.4133  16.5953  16.6542  16.9195  16.9822  17.0341  17.2639  17.5454
    17.9149  18.2073  18.3432  18.4236  19.0979  19.2199  19.3412  19.5798
    20.0511  20.1767  20.1934  20.4168  20.7184  20.8548  21.0492  21.2536
    21.4555  21.7754  22.0280  22.1782  22.4465  22.4571  22.9449  23.5182
    23.7377  23.7701  24.1674  25.1472  25.3174  25.3414  25.6595  25.6707
    25.7815

          k = 0.2500 0.2357 0.0000 ( 17768 PWs)   bands (ev):

    -1.9138  -0.5683  -0.1336   0.4357   1.1741   2.2327   3.3376   4.8413
     5.2588   5.4704   5.7583   6.4113   6.9942   7.0011   7.4477   8.2766
     8.5789   8.8635   9.1485   9.5954   9.7260   9.7939   9.9865  10.1660
    10.2528  10.3242  10.3615  10.5671  10.5803  10.7929  10.8663  10.9172
    11.0690  11.1034  11.1889  11.2188  11.3404  11.3580  11.4237  11.4561
    11.4573  11.5246  11.5950  11.6572  11.7503  11.7783  11.7842  11.8544
    11.8612  11.9548  12.0109  12.0588  12.1030  12.1773  12.2168  12.2532
    12.2776  12.3861  12.3915  12.4010  12.5073  12.5115  12.5494  12.5563
    12.6266  12.6635  12.7753  12.7849  12.8450  12.9034  12.9093  12.9381
    12.9987  13.0277  13.0926  13.1670  13.2170  13.2510  13.2902  13.2991
    13.3490  13.3613  13.4355  13.4621  13.4980  13.5135  13.5412  13.5774
    13.6024  13.6252  13.6570  13.6801  13.7120  13.7624  13.7792  13.8145
    13.8864  13.9181  14.0046  14.0926  14.0958  14.1236  14.1343  14.2122
    14.2143  14.3651  14.3928  14.4152  14.5118  14.5324  14.6159  14.7145
    14.7150  14.7873  14.8786  14.8836  14.9493  15.0330  15.0776  15.0922
    15.1565  15.2294  15.2690  15.3286  15.3689  15.4036  15.4517  15.4789
    15.5335  15.5392  15.5917  15.6566  15.7061  15.7261  15.7766  15.8108
    15.8489  15.8913  15.9004  15.9420  15.9984  16.0270  16.1107  16.1754
    16.4127  16.6168  16.6180  16.7922  17.1372  17.1402  17.4365  17.8537
    18.0454  18.2649  18.2832  18.5305  18.7851  18.9290  19.5379  19.8894
    19.9206  20.1531  20.3890  20.5844  20.6281  21.0572  21.2057  21.6503
    21.8723  21.8963  22.1374  22.3224  22.5378  22.7320  22.9950  23.6781
    23.9671  23.9678  24.5138  25.1859  25.5339  25.5559  25.7214  25.7995
    25.9232

          k = 0.2500 0.2946 0.0000 ( 17790 PWs)   bands (ev):

    -1.7111  -1.0281   0.1773   0.3860   1.3565   2.0427   3.7519   4.5232
     5.1222   5.3636   5.8593   6.6980   6.7212   7.2605   7.3178   7.9913
     8.5800   8.7696   9.4335   9.7447   9.7491   9.9484  10.0943  10.2201
    10.2491  10.3228  10.5963  10.6173  10.7766  10.8322  10.8873  10.9895
    11.0678  11.1416  11.2018  11.2442  11.2483  11.3299  11.3996  11.4745
    11.5253  11.6133  11.6223  11.7468  11.7738  11.8187  11.8312  11.8712
    11.9158  11.9505  12.0588  12.1273  12.1422  12.2123  12.2527  12.3190
    12.3218  12.3362  12.3839  12.4261  12.4645  12.5268  12.5464  12.5549
    12.6089  12.6367  12.6893  12.7525  12.7764  12.8262  12.8319  12.8889
    12.9323  12.9713  13.0090  13.0289  13.0885  13.1495  13.1752  13.2380
    13.2612  13.2714  13.3635  13.4094  13.4139  13.4527  13.4768  13.4805
    13.5512  13.5680  13.5917  13.6195  13.6566  13.7018  13.7432  13.7748
    13.8213  13.9338  13.9498  13.9976  14.1045  14.1238  14.1656  14.2147
    14.3154  14.3707  14.4009  14.4605  14.4778  14.5668  14.5751  14.6498
    14.6505  14.7302  14.7388  14.7882  14.8064  14.8873  14.9262  15.0321
    15.0363  15.0799  15.1581  15.1733  15.1978  15.2925  15.3945  15.4868
    15.5215  15.5583  15.5625  15.6431  15.6762  15.7619  15.7643  15.8199
    15.8366  15.8764  15.9437  15.9924  16.0311  16.0905  16.1448  16.2069
    16.2686  16.4065  16.8484  16.9286  17.0607  17.3885  17.6368  17.8702
    17.9889  18.1601  18.5857  18.6186  18.6517  18.8924  19.4950  19.7148
    19.7460  20.2217  20.2906  20.7657  20.8426  21.0404  21.5903  21.7990
    22.0048  22.0531  22.5458  22.6371  22.7397  22.8893  23.0884  23.6472
    24.4941  24.7340  24.7974  24.9684  25.0808  25.1548  25.6924  25.7240
    25.9367

          k = 0.2500-0.3536 0.0000 ( 17788 PWs)   bands (ev):

    -1.4132  -1.4132   0.3205   0.3205   1.7091   1.7091   4.1521   4.1521
     5.1345   5.1345   6.2764   6.2764   7.0403   7.0403   7.6588   7.6588
     8.6632   8.6632   9.6693   9.6693   9.8720   9.8720  10.1104  10.1104
    10.4975  10.4975  10.6040  10.6040  10.7865  10.7865  10.9526  10.9526
    11.1273  11.1273  11.2182  11.2182  11.2491  11.2491  11.4771  11.4771
    11.5561  11.5561  11.7008  11.7008  11.7768  11.7768  11.8560  11.8560
    11.9710  11.9710  12.0634  12.0634  12.2173  12.2173  12.3030  12.3030
    12.3956  12.3956  12.4419  12.4419  12.5059  12.5059  12.5703  12.5703
    12.6121  12.6121  12.6828  12.6828  12.7703  12.7703  12.8560  12.8560
    12.9240  12.9240  12.9535  12.9535  13.0470  13.0470  13.1558  13.1558
    13.2323  13.2323  13.3031  13.3031  13.3948  13.3948  13.4661  13.4661
    13.5392  13.5392  13.6056  13.6056  13.6735  13.6735  13.7815  13.7815
    13.7934  13.7934  13.9537  13.9537  14.1258  14.1258  14.2807  14.2807
    14.3608  14.3608  14.4604  14.4604  14.5326  14.5326  14.5754  14.5754
    14.6821  14.6821  14.7043  14.7043  14.7591  14.7592  14.8261  14.8261
    15.0556  15.0556  15.1069  15.1069  15.2246  15.2246  15.4394  15.4394
    15.5398  15.5398  15.5931  15.5931  15.7139  15.7139  15.8025  15.8025
    15.8668  15.8668  15.9786  15.9786  16.1300  16.1300  16.1566  16.1566
    16.2665  16.2665  16.9749  16.9749  17.2364  17.2364  17.6808  17.6808
    18.2522  18.2522  18.4159  18.4159  19.0652  19.0652  19.2885  19.2885
    19.9930  19.9930  20.5384  20.5384  21.1939  21.1939  21.5041  21.5041
    22.2122  22.2122  22.7439  22.7439  22.8692  22.8692  23.8217  23.8217
    24.0207  24.0207  25.2998  25.2999  25.4779  25.4780  25.5595  25.5613
    25.7866

          k = 0.3750 0.0000 0.0000 ( 17794 PWs)   bands (ev):

    -1.6793  -1.6792   0.5655   1.1010   1.8544   1.8546   2.3836   4.1557
     5.0011   5.5216   6.4402   6.4411   6.7376   8.2383   8.2406   8.3170
     8.9232   9.1024   9.2253   9.4324   9.5025   9.5498   9.5530   9.9177
    10.1729  10.1734  10.2136  10.3913  10.4752  10.6494  10.7554  10.7612
    10.7820  10.8143  10.8234  10.9058  11.0481  11.1787  11.1954  11.2918
    11.2987  11.3651  11.3681  11.4773  11.5549  11.5927  11.7487  11.8049
    11.8665  11.9925  12.0343  12.1518  12.1547  12.2017  12.2392  12.4534
    12.4863  12.5265  12.6198  12.7211  12.7884  12.8767  12.9064  12.9207
    12.9288  12.9350  12.9704  13.0156  13.0536  13.0562  13.1295  13.2030
    13.2222  13.2272  13.2762  13.3198  13.3345  13.3641  13.4075  13.4267
    13.4345  13.4631  13.5332  13.5536  13.5627  13.5855  13.6177  13.6742
    13.8159  13.8446  13.8656  13.8812  13.9098  13.9603  13.9843  13.9882
    14.0548  14.1018  14.1324  14.1597  14.2491  14.3324  14.3998  14.4584
    14.4731  14.4835  14.5847  14.7175  14.7392  14.7407  14.7587  14.7828
    14.9086  14.9264  15.0045  15.0356  15.0625  15.1362  15.1472  15.2033
    15.2360  15.2448  15.3341  15.3441  15.4121  15.4899  15.4956  15.4964
    15.5591  15.6577  15.6598  15.7095  15.7592  15.8243  15.8815  15.9159
    15.9572  15.9589  15.9937  16.0386  16.0436  16.0556  16.1383  16.1450
    16.4438  16.4469  16.4777  16.7085  16.7176  16.9656  16.9942  17.2589
    17.5725  17.6449  18.0347  18.0988  18.4302  18.4533  18.6041  19.5986
    19.7922  19.7983  19.9803  20.2128  20.6322  21.0560  21.1063  21.3553
    21.3925  21.6896  21.6921  21.8097  21.8279  21.9460  22.0126  22.0848
    22.4255  22.4258  22.8250  22.8325  23.5122  23.7022  24.2257  24.3321
    24.8202

          k = 0.3750 0.0589 0.0000 ( 17796 PWs)   bands (ev):

    -1.8817  -1.3809   0.5527   0.9221   1.5713   2.1853   2.3874   4.3347
     5.0577   5.4905   6.1938   6.6552   6.7751   8.1517   8.2407   8.2966
     8.9516   8.9760   9.1452   9.4137   9.4787   9.5871   9.6746   9.9463
    10.0611  10.2364  10.2833  10.3786  10.5168  10.6059  10.6968  10.7860
    10.8334  10.8728  10.9365  10.9439  11.0885  11.1706  11.2124  11.3292
    11.3333  11.3351  11.3875  11.5006  11.5698  11.6114  11.7411  11.8173
    11.8869  12.0138  12.0474  12.1489  12.1768  12.2140  12.2603  12.4668
    12.4960  12.5196  12.6208  12.7218  12.7794  12.8191  12.8687  12.8788
    12.9026  12.9360  12.9385  13.0157  13.0604  13.0770  13.1506  13.1942
    13.1985  13.2394  13.2612  13.2706  13.3163  13.3250  13.3918  13.3983
    13.4166  13.4627  13.5222  13.5253  13.5564  13.5811  13.5939  13.6813
    13.7295  13.8066  13.8240  13.8955  13.9050  13.9630  13.9833  14.0098
    14.0387  14.0471  14.1411  14.1581  14.2216  14.3198  14.3243  14.4296
    14.4312  14.5132  14.5614  14.6649  14.6705  14.7401  14.7811  14.7912
    14.8273  14.9251  14.9898  15.0258  15.0481  15.0781  15.1081  15.1541
    15.2159  15.2264  15.3011  15.3516  15.3556  15.4659  15.5060  15.5526
    15.5980  15.6606  15.6815  15.7083  15.7835  15.8120  15.8874  15.8878
    15.9323  15.9546  16.0126  16.0144  16.0663  16.1069  16.1115  16.1584
    16.2042  16.5316  16.5495  16.7202  16.8110  16.8333  17.1276  17.2997
    17.4596  17.5460  17.6909  18.0340  18.6415  18.7919  18.8084  19.1876
    19.3794  19.8274  20.3072  20.4403  20.6658  20.8160  21.0178  21.1771
    21.2306  21.3854  21.6016  21.7366  21.8409  22.0810  22.3569  22.4639
    22.7155  22.9528  23.2525  23.4928  23.5351  23.7250  23.8775  24.1505
    24.7519

          k = 0.3750 0.1179 0.0000 ( 17793 PWs)   bands (ev):

    -1.9825  -0.9995   0.4918   0.5211   1.3475   2.3929   2.5540   4.7328
     5.2123   5.4206   5.9393   6.8087   6.8760   7.7912   8.0168   8.3418
     8.8615   9.0805   9.2367   9.2695   9.5056   9.7288   9.7930   9.9629
    10.0214  10.2602  10.3678  10.4128  10.4564  10.6222  10.8043  10.8067
    10.9128  11.0012  11.0328  11.0406  11.1547  11.1817  11.2499  11.3751
    11.3913  11.4351  11.4540  11.5438  11.6348  11.6533  11.7432  11.8231
    11.9520  12.0569  12.0756  12.1631  12.2175  12.2360  12.3153  12.4869
    12.5052  12.5061  12.6154  12.6911  12.7055  12.7566  12.8099  12.8111
    12.8289  12.8971  12.9331  12.9587  13.0457  13.0650  13.1190  13.1253
    13.1421  13.1572  13.1864  13.2563  13.2733  13.3158  13.3424  13.3653
    13.3886  13.4094  13.4378  13.4987  13.5652  13.5780  13.5804  13.6262
    13.6580  13.7624  13.7993  13.8160  13.8672  13.8986  13.9493  13.9898
    14.0070  14.0166  14.0953  14.1136  14.1720  14.2510  14.2606  14.3409
    14.3677  14.4349  14.4892  14.5369  14.6071  14.6732  14.6740  14.7522
    14.7688  14.8025  14.8929  14.9311  14.9444  15.0260  15.0423  15.1309
    15.1413  15.2296  15.2461  15.2963  15.3934  15.4317  15.4980  15.5495
    15.6007  15.6540  15.6616  15.6900  15.7827  15.7961  15.8558  15.8655
    15.8985  15.9258  15.9419  16.0104  16.0347  16.0690  16.1666  16.2464
    16.3435  16.3940  16.5622  16.6343  16.8477  17.0027  17.0123  17.3656
    17.4282  17.6604  17.7705  17.9206  18.2883  18.7520  18.9770  19.1265
    19.2238  19.9278  20.0895  20.3251  20.6463  20.7721  20.8401  21.0595
    21.1954  21.3113  21.7740  21.8817  22.0580  22.5687  22.9395  23.1772
    23.3639  23.6035  23.6895  23.7664  23.7939  23.9479  24.0916  24.3776
    24.7490

          k = 0.3750 0.1768 0.0000 ( 17788 PWs)   bands (ev):

    -1.9801  -0.5632  -0.0194   0.4718   1.2029   2.3734   2.9499   5.0078
     5.3423   5.5606   5.6999   6.8669   6.8704   7.2929   7.8167   8.3957
     8.9801   9.0029   9.2611   9.4637   9.6029   9.8843   9.9042   9.9063
    10.1038  10.2680  10.3600  10.4253  10.5465  10.7716  10.8565  10.9506
    11.0040  11.0073  11.0761  11.1561  11.2381  11.2521  11.3936  11.4552
    11.4907  11.5465  11.5781  11.6117  11.6735  11.7691  11.7766  11.8142
    11.9987  12.0743  12.1091  12.2072  12.2487  12.2646  12.3553  12.4487
    12.4750  12.4976  12.5666  12.6217  12.6290  12.7112  12.7168  12.7461
    12.7808  12.8064  12.8857  12.9042  12.9592  12.9997  13.0177  13.0715
    13.0737  13.1176  13.1443  13.1793  13.2202  13.2729  13.2939  13.3204
    13.3470  13.3530  13.4314  13.4871  13.5130  13.5448  13.5610  13.5958
    13.6755  13.6781  13.7065  13.7636  13.7759  13.8131  13.8403  13.9002
    13.9608  13.9905  14.0335  14.0472  14.0799  14.1192  14.2000  14.2026
    14.2635  14.3308  14.3573  14.3623  14.4892  14.5296  14.5904  14.6459
    14.6554  14.7390  14.7401  14.8197  14.8596  14.8742  15.0102  15.0411
    15.1378  15.1963  15.2164  15.3132  15.3152  15.3895  15.4124  15.4890
    15.5217  15.5785  15.6177  15.6266  15.6614  15.7183  15.7524  15.7970
    15.8481  15.9324  15.9327  15.9577  16.0668  16.1385  16.2089  16.2477
    16.2693  16.4571  16.7489  16.8279  16.8307  17.0448  17.3566  17.4468
    17.5516  17.6137  17.8786  17.9122  18.2387  18.4238  18.6607  18.7545
    19.6893  19.6934  19.8754  20.0804  20.1436  20.7294  20.9652  21.3567
    21.5772  21.8428  21.9566  22.1584  22.3159  22.9763  23.3653  23.5589
    23.7166  23.8347  23.9086  24.1441  24.3350  24.6037  24.7457  25.0409
    25.1575

          k = 0.3750 0.2357 0.0000 ( 17756 PWs)   bands (ev):

    -1.8752  -0.5279  -0.1364   0.4226   1.1821   2.2789   3.3610   4.8377
     5.5024   5.6637   5.7789   6.4696   6.8196   7.4256   7.5429   8.4431
     8.7575   9.0217   9.4937   9.6893   9.8391   9.8693   9.9986  10.1085
    10.1649  10.3457  10.3511  10.4121  10.7160  10.9175  10.9271  11.0394
    11.0433  11.1097  11.1150  11.2676  11.3073  11.3923  11.5123  11.5397
    11.5564  11.6271  11.6688  11.7149  11.7482  11.7643  11.8027  11.8971
    11.9455  12.1087  12.1705  12.2060  12.2707  12.2906  12.3310  12.3350
    12.4393  12.4844  12.5198  12.5909  12.6249  12.6473  12.6613  12.7056
    12.7410  12.7663  12.8406  12.8451  12.8968  12.9237  12.9340  12.9877
    12.9977  13.0691  13.0954  13.1368  13.1713  13.1962  13.1985  13.2454
    13.2938  13.3176  13.3786  13.4089  13.4701  13.4832  13.5271  13.5709
    13.5896  13.6085  13.6529  13.6725  13.7232  13.7522  13.7855  13.7944
    13.8711  13.8867  13.9107  13.9383  13.9885  14.0086  14.0707  14.0857
    14.1672  14.2498  14.2653  14.3298  14.3715  14.4231  14.4996  14.5162
    14.5886  14.5955  14.6961  14.7224  14.7628  14.7781  14.8896  14.9751
    15.0244  15.1228  15.1563  15.2296  15.2309  15.2770  15.3265  15.3507
    15.4609  15.4678  15.5158  15.5523  15.6066  15.6918  15.7069  15.7652
    15.8344  15.8728  15.9823  16.0453  16.0469  16.1389  16.1727  16.2333
    16.3181  16.6639  16.7730  17.0530  17.1467  17.2405  17.3022  17.3831
    17.6394  17.7535  17.9456  18.2030  18.2056  18.3183  18.3699  18.6079
    19.2760  19.4453  19.6653  20.1581  20.2747  20.2850  21.2548  21.6205
    21.7256  22.0760  22.2472  22.5864  22.8643  23.1696  23.4063  23.8744
    24.0320  24.0641  24.3035  24.8774  25.0479  25.3045  25.3255  25.4569
    25.6105

          k = 0.3750 0.2946 0.0000 ( 17761 PWs)   bands (ev):

    -1.6707  -0.9864   0.1680   0.3739   1.3589   2.0555   3.7727   4.5311
     5.3846   5.5924   6.0295   6.5654   6.6516   7.2162   7.7038   8.2986
     8.7132   8.9464   9.7243   9.8165   9.8624  10.0773  10.1214  10.2713
    10.3011  10.3441  10.4193  10.5440  10.8785  10.9293  10.9750  11.1013
    11.1264  11.1569  11.2238  11.2550  11.3789  11.3959  11.5105  11.5333
    11.6332  11.7140  11.7215  11.7537  11.7822  11.8321  11.8725  11.8975
    12.0381  12.0436  12.1260  12.2035  12.2111  12.2553  12.3299  12.3993
    12.4310  12.5154  12.5388  12.5905  12.5958  12.6536  12.6771  12.7115
    12.7223  12.7493  12.7786  12.7835  12.8358  12.8794  12.9006  12.9256
    12.9317  12.9914  13.0153  13.0509  13.0929  13.1093  13.1574  13.1940
    13.2051  13.2873  13.3102  13.3326  13.3930  13.4303  13.4440  13.4794
    13.5213  13.5252  13.5576  13.5866  13.5913  13.6848  13.7052  13.7382
    13.8194  13.8270  13.8555  13.9069  13.9316  13.9817  14.0599  14.1164
    14.1771  14.2288  14.2378  14.2650  14.3435  14.3905  14.4303  14.4476
    14.4804  14.5223  14.5595  14.6144  14.6552  14.6784  14.7746  14.8602
    14.9483  15.0328  15.0600  15.0994  15.1360  15.2205  15.2639  15.3470
    15.3713  15.4643  15.4708  15.5078  15.5708  15.6383  15.7283  15.7801
    15.8178  15.9067  15.9117  16.0108  16.0470  16.1124  16.2874  16.3886
    16.5073  16.5477  16.9556  17.0311  17.0831  17.3470  17.3684  17.5034
    17.7598  17.8879  17.9831  18.1526  18.1885  18.2975  18.5256  18.8992
    19.0107  19.0543  19.2430  19.8531  20.5134  20.6142  21.2022  21.4257
    21.6315  22.2557  22.5121  22.7887  23.2313  23.7732  23.9532  24.0757
    24.2344  24.5643  24.7677  25.0386  25.2632  25.5544  25.7868  26.0457
    26.2540

          k = 0.3750-0.3536 0.0000 ( 17776 PWs)   bands (ev):

    -1.3718  -1.3718   0.3094   0.3094   1.7080   1.7080   4.1685   4.1685
     5.4003   5.4003   6.3759   6.3759   6.8784   6.8784   8.0074   8.0075
     8.8252   8.8252   9.8033   9.8033  10.0589  10.0589  10.1562  10.1562
    10.4119  10.4119  10.6675  10.6675  10.8265  10.8265  11.0355  11.0355
    11.1835  11.1835  11.2949  11.2949  11.3721  11.3721  11.5723  11.5723
    11.6188  11.6188  11.7743  11.7743  11.8565  11.8565  11.9277  11.9277
    11.9846  11.9847  12.0953  12.0953  12.2149  12.2149  12.4119  12.4119
    12.5000  12.5000  12.5932  12.5932  12.6385  12.6385  12.6990  12.6990
    12.7305  12.7305  12.7824  12.7824  12.8341  12.8341  12.8797  12.8797
    12.9357  12.9357  13.0080  13.0080  13.0828  13.0828  13.1451  13.1451
    13.1777  13.1777  13.2485  13.2485  13.3492  13.3492  13.4257  13.4257
    13.4931  13.4931  13.5362  13.5363  13.6382  13.6382  13.7255  13.7255
    13.7569  13.7569  13.8784  13.8784  13.9647  13.9647  14.1519  14.1519
    14.2024  14.2024  14.2963  14.2963  14.3411  14.3411  14.3747  14.3747
    14.4332  14.4332  14.5299  14.5299  14.6245  14.6245  14.7563  14.7563
    14.9436  14.9436  15.0629  15.0629  15.1387  15.1387  15.3135  15.3135
    15.3909  15.3909  15.4710  15.4710  15.6108  15.6108  15.7617  15.7617
    15.8306  15.8306  15.9948  15.9948  16.0566  16.0566  16.3786  16.3786
    16.6621  16.6621  16.7883  16.7883  17.3411  17.3411  17.5840  17.5840
    17.6642  17.6642  18.0211  18.0211  18.5335  18.5335  18.6733  18.6733
    18.8668  18.8668  19.4294  19.4294  20.8197  20.8197  21.0393  21.0393
    22.0668  22.0668  22.5138  22.5138  24.0182  24.0182  24.3100  24.3101
    24.5926  24.5926  24.9083  24.9083  25.1024  25.1024  26.1237  26.1238
    26.2676

          k =-0.5000 0.0000 0.0000 ( 17814 PWs)   bands (ev):

    -1.6684  -1.6683   0.5595   1.1078   1.8628   1.8630   2.4376   4.1822
     5.0733   5.4857   6.4846   6.4854   7.0706   8.2044   8.2066   8.2182
     9.0719   9.0940   9.2022   9.2539   9.3759   9.4649   9.4686  10.1538
    10.1563  10.3851  10.4795  10.5952  10.6904  10.7282  10.7856  10.8072
    10.8092  10.8322  10.8323  10.9218  10.9593  10.9857  11.0470  11.0708
    11.1459  11.3829  11.4056  11.4271  11.5879  11.5929  11.8232  11.9445
    12.0753  12.1248  12.1857  12.1864  12.3177  12.3526  12.3661  12.4999
    12.5510  12.5816  12.6099  12.8130  12.8141  12.8511  12.8531  12.8665
    12.9254  12.9485  12.9544  12.9808  13.0477  13.0600  13.1242  13.1391
    13.1837  13.2231  13.2270  13.2526  13.3016  13.3165  13.3449  13.3817
    13.3998  13.4238  13.4712  13.5296  13.5439  13.5600  13.6006  13.6736
    13.6943  13.7944  13.8558  13.9054  13.9232  13.9548  13.9961  14.0113
    14.0362  14.0786  14.1423  14.1611  14.2004  14.3172  14.3412  14.3766
    14.4113  14.4557  14.4894  14.5909  14.6490  14.6547  14.7759  14.8850
    14.9525  14.9556  15.1205  15.1411  15.1517  15.1528  15.2187  15.2253
    15.3468  15.3773  15.4089  15.4472  15.4592  15.5174  15.5915  15.6088
    15.6355  15.6695  15.6906  15.7707  15.8087  15.8968  15.8979  15.9391
    15.9475  15.9664  16.0146  16.0369  16.0499  16.0828  16.1231  16.1328
    16.1383  16.2220  16.3442  16.3714  16.4589  16.6834  16.7229  16.7405
    16.8594  17.6608  17.7954  18.1680  18.3152  18.4561  18.5877  19.2014
    20.0875  20.1500  20.2557  20.3750  20.8851  21.0521  21.1069  21.1486
    21.1829  21.2048  21.2396  21.3718  21.4425  21.7918  21.8079  22.3616
    22.3987  22.4732  22.6131  22.7351  23.1383  23.2638  23.8889  23.9004
    24.4598

          k =-0.5000 0.0589 0.0000 ( 17814 PWs)   bands (ev):

    -1.8690  -1.3722   0.5467   0.9309   1.5784   2.1949   2.4406   4.3546
     5.1289   5.4534   6.2689   6.6579   7.0939   8.1385   8.2562   8.2956
     8.7921   9.1126   9.1372   9.2558   9.4261   9.5103   9.5362  10.0537
    10.2588  10.3601  10.5178  10.6262  10.7225  10.7318  10.7613  10.8183
    10.8193  10.8495  10.8522  10.8690  10.9957  11.0390  11.0904  11.1417
    11.2805  11.2851  11.4030  11.4979  11.5985  11.6044  11.8336  11.9654
    12.0893  12.1587  12.1936  12.1950  12.3303  12.3486  12.4038  12.5010
    12.5722  12.5771  12.6250  12.7763  12.7898  12.8134  12.8227  12.8513
    12.8759  12.9439  12.9537  12.9855  13.0265  13.0886  13.0948  13.1117
    13.1453  13.1733  13.2300  13.2565  13.3090  13.3249  13.3483  13.3621
    13.3821  13.4047  13.4562  13.5140  13.5182  13.5387  13.6119  13.6397
    13.7176  13.7897  13.7904  13.8951  13.9090  13.9350  13.9769  13.9865
    14.0038  14.0333  14.1416  14.1493  14.2438  14.2886  14.3004  14.4012
    14.4245  14.4487  14.4951  14.5764  14.6099  14.7001  14.7166  14.8229
    14.8980  14.9497  14.9986  15.0346  15.1099  15.2058  15.2270  15.2685
    15.3125  15.3643  15.3997  15.4243  15.4272  15.5165  15.5425  15.5735
    15.5781  15.5957  15.6579  15.7209  15.7432  15.7991  15.8486  15.8646
    15.9312  15.9699  15.9891  16.0506  16.0663  16.0847  16.1033  16.1922
    16.2040  16.2589  16.3298  16.4779  16.6082  16.6494  16.8060  16.9278
    17.0697  17.2471  17.8757  18.1129  18.2410  18.3692  18.4908  19.2155
    19.6672  19.8554  20.0489  20.4726  20.8392  20.9493  21.0933  21.2860
    21.3776  21.4850  21.5252  21.5748  21.8649  21.9505  22.0310  22.3843
    22.4487  22.6307  22.7515  22.7763  23.0771  23.4533  23.7312  24.1793
    24.5075

          k =-0.5000 0.1179 0.0000 ( 17794 PWs)   bands (ev):

    -1.9685  -0.9935   0.5073   0.5123   1.3534   2.4406   2.5644   4.7439
     5.2893   5.3675   6.0371   6.7605   7.1306   8.0245   8.1391   8.3214
     8.5266   9.2230   9.2607   9.2653   9.3484   9.5730   9.6895   9.9659
    10.3033  10.3500  10.5116  10.6081  10.7085  10.8092  10.8485  10.8540
    10.8902  10.8967  10.9676  10.9754  11.0392  11.1137  11.1312  11.1984
    11.3161  11.4155  11.4979  11.5688  11.6270  11.6497  11.8637  12.0182
    12.1274  12.1999  12.2126  12.2300  12.3495  12.3917  12.4690  12.5035
    12.5587  12.6111  12.6246  12.6906  12.7138  12.7424  12.7542  12.7653
    12.8175  12.8959  12.9226  12.9455  12.9724  12.9971  13.0395  13.1203
    13.1211  13.1484  13.2105  13.2576  13.3066  13.3072  13.3320  13.3468
    13.3691  13.3870  13.4141  13.4649  13.4662  13.5153  13.5516  13.6184
    13.6716  13.7087  13.7863  13.8138  13.8573  13.8908  13.8917  13.9432
    13.9582  13.9749  14.0527  14.1465  14.2261  14.2470  14.3534  14.3655
    14.4040  14.4213  14.4893  14.5331  14.6203  14.6397  14.6834  14.6964
    14.7752  14.8244  14.8452  14.9707  14.9906  15.0204  15.0287  15.1690
    15.2181  15.2226  15.2838  15.3035  15.3323  15.4594  15.4726  15.4884
    15.5253  15.5507  15.6624  15.6685  15.7114  15.7116  15.7731  15.8551
    15.8720  15.8858  15.9540  15.9882  16.0465  16.2018  16.2204  16.2707
    16.3435  16.3795  16.4238  16.5621  16.6392  16.7740  17.0203  17.0440
    17.2731  17.4487  17.4968  17.6959  18.1307  18.2520  18.7316  19.1212
    19.2583  19.2623  19.5683  19.8648  20.8914  21.2862  21.4263  21.5129
    21.5666  21.8819  21.9477  22.1299  22.2488  22.3801  22.4521  22.6654
    22.6857  22.8040  22.8653  23.1319  23.3771  23.7617  24.3196  24.8304
    24.8710

          k =-0.5000 0.1768 0.0000 ( 17756 PWs)   bands (ev):

    -1.9649  -0.5607  -0.0038   0.4658   1.2076   2.4090   2.9608   5.0102
     5.3893   5.5320   5.8154   6.7756   6.9428   7.7258   7.8377   8.4207
     8.8771   9.1807   9.2642   9.4233   9.4540   9.6570   9.8645   9.8999
    10.2448  10.3646  10.4229  10.7289  10.7532  10.8961  10.9233  10.9469
    10.9474  11.0041  11.0983  11.1313  11.1416  11.1529  11.1855  11.3887
    11.4435  11.4904  11.6217  11.6298  11.7047  11.7300  11.8948  12.0420
    12.1723  12.2067  12.2434  12.2904  12.3402  12.3924  12.4453  12.4868
    12.5143  12.5305  12.5523  12.6429  12.6750  12.6787  12.7125  12.7157
    12.7694  12.8173  12.8328  12.8833  12.9353  12.9856  13.0433  13.0868
    13.1150  13.1151  13.1750  13.2108  13.2276  13.2697  13.2820  13.3024
    13.3587  13.3821  13.3883  13.4341  13.4757  13.4821  13.5554  13.5915
    13.5933  13.6268  13.6546  13.7194  13.7401  13.7913  13.8451  13.8807
    13.9218  13.9232  13.9475  14.1207  14.1501  14.1730  14.2642  14.2981
    14.3154  14.3524  14.3637  14.4623  14.5408  14.6075  14.6113  14.6199
    14.6791  14.6834  14.7228  14.7455  14.7897  14.8271  14.8525  14.8641
    14.9630  15.1203  15.1676  15.2272  15.2615  15.3246  15.3541  15.4391
    15.4578  15.4832  15.5774  15.5943  15.6989  15.7481  15.7913  15.8095
    15.8204  15.8868  15.8876  15.9293  16.0105  16.0568  16.2462  16.2514
    16.5696  16.6101  16.6384  16.7567  16.8468  17.0114  17.0178  17.0770
    17.2191  17.3162  17.7833  17.9231  18.0205  18.0439  18.6580  18.7066
    19.0576  19.1763  19.3221  19.3425  20.4769  21.1916  21.3924  21.6554
    21.6617  22.3021  22.5625  22.6056  22.7272  22.7831  22.9043  22.9151
    23.2045  23.3231  23.7281  23.9632  24.2938  24.3339  24.6441  24.7551
    24.7999

          k =-0.5000 0.2357 0.0000 ( 17778 PWs)   bands (ev):

    -1.8590  -0.5109  -0.1378   0.4171   1.1853   2.2981   3.3720   4.8382
     5.6324   5.7359   5.7822   6.4763   6.7043   7.5635   7.8055   8.5533
     8.9211   9.0622   9.4889   9.6666   9.6772   9.7558   9.8608  10.0631
    10.2324  10.3328  10.4278  10.6965  10.8676  10.9469  11.0118  11.0603
    11.0736  11.1533  11.1557  11.2429  11.3050  11.3156  11.3624  11.5326
    11.5622  11.6068  11.6090  11.7030  11.7387  11.8621  11.8957  11.9747
    12.0281  12.2153  12.2165  12.2753  12.3489  12.3696  12.3922  12.4454
    12.5320  12.5625  12.5767  12.6117  12.6305  12.6327  12.6452  12.6914
    12.7620  12.7651  12.7810  12.9055  12.9331  12.9963  13.0023  13.0398
    13.0435  13.0656  13.1059  13.1449  13.1760  13.2041  13.2069  13.2797
    13.3060  13.3329  13.3820  13.3868  13.4265  13.4573  13.5066  13.5152
    13.5343  13.5558  13.6334  13.6685  13.6762  13.7488  13.7952  13.8234
    13.8257  13.8457  13.9504  13.9644  14.0200  14.0467  14.1095  14.1173
    14.1580  14.1943  14.3100  14.3100  14.3562  14.3680  14.4195  14.5062
    14.5087  14.5771  14.6000  14.6446  14.6697  14.7362  14.7626  14.8441
    14.9236  14.9510  15.0429  15.1638  15.2159  15.2190  15.2682  15.2702
    15.3528  15.4421  15.4585  15.5603  15.6398  15.6437  15.6961  15.7655
    15.7709  15.8795  15.9498  16.0075  16.0294  16.1223  16.1748  16.2564
    16.5438  16.7724  16.8448  16.8693  16.9578  17.0150  17.1330  17.2477
    17.3045  17.4980  17.7831  17.9024  18.2272  18.3182  18.3212  18.5997
    18.6155  18.8708  19.3990  19.6348  20.1402  20.6872  20.9441  21.1892
    21.9905  22.7085  22.8853  22.9278  23.0714  23.5588  23.6183  23.8515
    24.0364  24.1048  24.1688  24.2998  24.4234  24.4544  25.0352  25.2180
    25.4751

          k =-0.5000 0.2946 0.0000 ( 17762 PWs)   bands (ev):

    -1.6538  -0.9689   0.1639   0.3689   1.3596   2.0605   3.7832   4.5371
     5.5260   5.7232   6.0741   6.4624   6.5586   7.2106   8.0389   8.6215
     8.7047   8.9893   9.8144   9.8257   9.8449   9.8562   9.9346  10.2432
    10.3225  10.3705  10.3746  10.7959  10.9413  11.0110  11.0680  11.1396
    11.1677  11.2212  11.2369  11.2900  11.3793  11.4364  11.4840  11.5723
    11.6092  11.6484  11.7100  11.7444  11.7511  11.7771  11.9143  11.9169
    12.0837  12.1549  12.2742  12.2880  12.3042  12.3335  12.4240  12.4826
    12.5102  12.5195  12.5369  12.5551  12.6180  12.6417  12.6466  12.6744
    12.7657  12.7731  12.8101  12.8698  12.8720  12.9112  12.9306  12.9750
    13.0022  13.0767  13.0889  13.1205  13.1322  13.1583  13.1587  13.2051
    13.2498  13.3248  13.3533  13.3564  13.3924  13.4096  13.4322  13.4424
    13.4557  13.5824  13.6100  13.6166  13.6678  13.6757  13.7314  13.7342
    13.7621  13.8005  13.8244  13.8550  13.8802  13.9439  13.9598  14.0347
    14.1048  14.1467  14.1744  14.1749  14.2641  14.2781  14.2951  14.3610
    14.3848  14.4225  14.4663  14.5506  14.5575  14.7258  14.7356  14.8182
    14.8651  14.9480  15.0381  15.0482  15.1350  15.1703  15.1768  15.2419
    15.3063  15.3478  15.4327  15.4582  15.5184  15.5513  15.6198  15.6874
    15.8688  15.9542  15.9594  16.0401  16.1634  16.1828  16.2790  16.3880
    16.4559  16.5264  16.6602  16.7775  17.1384  17.2503  17.4058  17.5647
    17.6357  17.6419  17.7726  17.8085  17.8517  18.0534  18.2485  18.4877
    18.8780  19.2119  19.5367  19.8845  19.9995  20.0716  20.5242  20.6338
    22.4050  22.8853  23.1241  23.2449  23.3180  23.4220  23.6587  23.9877
    24.2876  24.8022  24.9739  25.1471  25.3074  25.4410  26.0108  26.0333
    26.1868

          k =-0.5000-0.3536 0.0000 ( 17712 PWs)   bands (ev):

    -1.3543  -1.3543   0.3047   0.3047   1.7073   1.7074   4.1779   4.1779
     5.5470   5.5470   6.3481   6.3481   6.8171   6.8171   8.3206   8.3206
     8.8569   8.8569   9.8468   9.8468   9.9140   9.9140  10.1625  10.1625
    10.3421  10.3421  10.6882  10.6882  11.0287  11.0287  11.1180  11.1180
    11.1647  11.1647  11.3393  11.3393  11.4691  11.4691  11.5238  11.5238
    11.6429  11.6429  11.6698  11.6698  11.7917  11.7917  11.9825  11.9825
    12.1312  12.1312  12.2581  12.2581  12.2663  12.2663  12.3967  12.3967
    12.5225  12.5225  12.5684  12.5684  12.6100  12.6100  12.6817  12.6817
    12.7306  12.7306  12.8478  12.8478  12.9223  12.9223  12.9718  12.9718
    13.0344  13.0344  13.1074  13.1074  13.1509  13.1509  13.1941  13.1941
    13.2171  13.2171  13.2752  13.2752  13.3443  13.3443  13.4260  13.4260
    13.5155  13.5155  13.5519  13.5519  13.6402  13.6402  13.6513  13.6513
    13.7504  13.7505  13.8004  13.8004  13.9313  13.9313  14.1013  14.1013
    14.1120  14.1120  14.1551  14.1551  14.2031  14.2031  14.2423  14.2423
    14.2761  14.2761  14.5161  14.5162  14.5670  14.5670  14.7557  14.7557
    14.9118  14.9118  15.0601  15.0601  15.0799  15.0799  15.2131  15.2131
    15.3633  15.3633  15.3970  15.3970  15.4643  15.4643  15.6406  15.6406
    15.9382  15.9382  15.9944  15.9944  16.3189  16.3189  16.3490  16.3490
    16.4408  16.4408  16.5746  16.5746  17.4208  17.4208  17.5226  17.5226
    17.6297  17.6297  17.8138  17.8138  17.9412  17.9412  18.1417  18.1417
    19.4631  19.4631  19.6783  19.6783  19.8737  19.8737  20.3278  20.3278
    22.8876  22.8876  23.0911  23.0911  23.3754  23.3754  23.6357  23.6357
    25.1871  25.1872  25.9183  25.9184  26.0408  26.0409  26.2354  26.2356
    26.3399

     the Fermi energy is    18.0892 ev

!    total energy              =  -21693.16410520 Ry

     total all-electron energy =  -1064660.854655 Ry
     estimated scf accuracy    <       0.00000058 Ry
     smearing contrib. (-TS)   =      -0.02322639 Ry
     internal energy E=F+TS    =  -21693.14087881 Ry

     The total energy is F=E-TS. E is the sum of the following terms:
     one-electron contribution =      43.87148680 Ry
     hartree contribution      =     400.67801207 Ry
     xc contribution           =    -907.28230296 Ry
     ewald contribution        =   -1836.78965565 Ry
     one-center paw contrib.   =  -19393.61841907 Ry

     convergence has been achieved in  20 iterations

     Forces acting on atoms (cartesian axes, Ry/au):

     atom    1 type  1   force =     2.57601403   -0.00001930    1.06766990
     atom    2 type  1   force =     2.57601403    0.00001930    1.06766990
     atom    3 type  1   force =    -1.03555116    0.00000000    1.25781913
     atom    4 type  1   force =    -1.03554973    0.00000000    1.25782072
     atom    5 type  1   force =     0.01548054    0.00000436    0.04793889
     atom    6 type  1   force =     0.01548054   -0.00000436    0.04793889
     atom    7 type  1   force =    -0.00210688    0.00000000    0.00681616
     atom    8 type  1   force =    -0.00211214    0.00000000    0.00681020
     atom    9 type  1   force =    -0.00094372    0.00000288    0.00284052
     atom   10 type  1   force =    -0.00094372   -0.00000288    0.00284052
     atom   11 type  1   force =     0.00009440    0.00000000   -0.00284517
     atom   12 type  1   force =     0.00009528    0.00000000   -0.00284115
     atom   13 type  1   force =    -0.01376366    0.00000034    0.00257495
     atom   14 type  1   force =    -0.01376366   -0.00000034    0.00257495
     atom   15 type  1   force =     0.33619904    0.00000000   -0.54460205
     atom   16 type  1   force =     0.33619686    0.00000000   -0.54460053
     atom   17 type  1   force =    -0.33608875    0.00000992    0.54478476
     atom   18 type  1   force =    -0.33608875   -0.00000992    0.54478476
     atom   19 type  1   force =     0.01561383    0.00000000   -0.00607875
     atom   20 type  1   force =     0.01561400    0.00000000   -0.00608121
     atom   21 type  1   force =     0.00187162   -0.00000056   -0.00359290
     atom   22 type  1   force =     0.00187162    0.00000056   -0.00359290
     atom   23 type  1   force =    -0.01606720    0.00000000   -0.04702994
     atom   24 type  1   force =    -0.01606816    0.00000000   -0.04703597
     atom   25 type  1   force =     1.03542789    0.00000060   -1.25880454
     atom   26 type  1   force =     1.03542789   -0.00000060   -1.25880454
     atom   27 type  1   force =    -2.57616971    0.00000000   -1.06748837
     atom   28 type  1   force =    -2.57618430    0.00000000   -1.06748622

     Total force =     6.586060     Total SCF correction =     0.002792

     Writing all to output data dir ./pwscf.save/
 
     init_run     :     15.02s CPU     15.44s WALL (       1 calls)
     electrons    :    825.08s CPU    832.93s WALL (       1 calls)
     forces       :      6.60s CPU      6.65s WALL (       1 calls)

     Called by init_run:
     wfcinit      :     14.35s CPU     14.67s WALL (       1 calls)
     potinit      :      0.40s CPU      0.45s WALL (       1 calls)
     hinit0       :      0.11s CPU      0.14s WALL (       1 calls)

     Called by electrons:
     c_bands      :    744.94s CPU    751.99s WALL (      20 calls)
     sum_band     :     72.72s CPU     73.37s WALL (      20 calls)
     v_of_rho     :      0.48s CPU      0.54s WALL (      21 calls)
     newd         :      0.71s CPU      0.81s WALL (      21 calls)
     PAW_pot      :      6.52s CPU      6.54s WALL (      21 calls)
     mix_rho      :      0.08s CPU      0.08s WALL (      20 calls)

     Called by c_bands:
     init_us_2    :      4.03s CPU      4.06s WALL (    1470 calls)
     init_us_2:cp :      4.02s CPU      4.05s WALL (    1470 calls)
     cegterg      :    711.98s CPU    718.74s WALL (     700 calls)

     Called by *egterg:
     cdiaghg      :     77.77s CPU     78.40s WALL (    3649 calls)
     h_psi        :    342.11s CPU    345.76s WALL (    3684 calls)
     s_psi        :     68.80s CPU     69.14s WALL (    3684 calls)
     g_psi        :      1.10s CPU      1.10s WALL (    2949 calls)

     Called by h_psi:
     h_psi:calbec :     77.14s CPU     77.39s WALL (    3684 calls)
     vloc_psi     :    190.06s CPU    192.29s WALL (    3684 calls)
     add_vuspsi   :     73.73s CPU     73.97s WALL (    3684 calls)

     General routines
     calbec       :    110.27s CPU    110.62s WALL (    4524 calls)
     fft          :      0.48s CPU      0.59s WALL (     242 calls)
     ffts         :      0.02s CPU      0.02s WALL (      20 calls)
     fftw         :    209.45s CPU    211.73s WALL (  791064 calls)
 
     Parallel routines
 
     PWSCF        :  14m13.94s CPU  14m28.93s WALL

 
   This run was terminated on:   9:37:27   2Mar2024            

=------------------------------------------------------------------------------=
   JOB DONE.
=------------------------------------------------------------------------------=
