MPI startup(): Warning: I_MPI_PMI_LIBRARY will be ignored since the hydra process manager was found
MPI startup(): Warning: I_MPI_PMI_LIBRARY will be ignored since the hydra process manager was found
MPI startup(): Warning: I_MPI_PMI_LIBRARY will be ignored since the hydra process manager was found
MPI startup(): Warning: I_MPI_PMI_LIBRARY will be ignored since the hydra process manager was found
MPI startup(): Warning: I_MPI_PMI_LIBRARY will be ignored since the hydra process manager was found
MPI startup(): Warning: I_MPI_PMI_LIBRARY will be ignored since the hydra process manager was found
MPI startup(): Warning: I_MPI_PMI_LIBRARY will be ignored since the hydra process manager was found
MPI startup(): Warning: I_MPI_PMI_LIBRARY will be ignored since the hydra process manager was found
MPI startup(): Warning: I_MPI_PMI_LIBRARY will be ignored since the hydra process manager was found
MPI startup(): Warning: I_MPI_PMI_LIBRARY will be ignored since the hydra process manager was found

     Program PWSCF v.7.0 starts on  2Mar2024 at  9:37:29 

     This program is part of the open-source Quantum ESPRESSO suite
     for quantum simulation of materials; please cite
         "P. Giannozzi et al., J. Phys.:Condens. Matter 21 395502 (2009);
         "P. Giannozzi et al., J. Phys.:Condens. Matter 29 465901 (2017);
         "P. Giannozzi et al., J. Chem. Phys. 152 154105 (2020);
          URL http://www.quantum-espresso.org", 
     in publications or presentations arising from this work. More details at
     http://www.quantum-espresso.org/quote

     Parallel version (MPI), running on    10 processors

     MPI processes distributed on     1 nodes
     R & G space division:  proc/nbgrp/npool/nimage =      10
     115237 MiB available memory on the printing compute node when the environment starts
 
     Reading input from GSF110_0.35.in
Warning: card &CELL ignored
Warning: card / ignored

     Current dimensions of program PWSCF are:
     Max number of different atomic species (ntypx) = 10
     Max number of k-points (npk) =  40000
     Max angular momentum in pseudopotentials (lmaxx) =  4
     file Au.pbe-n-kjpaw_psl.1.0.0.UPF: wavefunction(s)  6S 5D renormalized
     Found identity + (  0.0000 -0.5000  0.0000) symmetry
     This is a supercell, fractional translations are disabled
     Message from routine setup:
     using ibrav=0 with symmetry is DISCOURAGED, use correct ibrav instead

     Subspace diagonalization in iterative solution of the eigenvalue problem:
     one sub-group per band group will be used
     scalapack distributed-memory algorithm (size of sub-group:  3*  3 procs)

 
     Parallelization info
     --------------------
     sticks:   dense  smooth     PW     G-vecs:    dense   smooth      PW
     Min         133     133     38                14227    14227    2178
     Max         134     134     39                14242    14242    2183
     Sum        1339    1339    389               142317   142317   21821
 
     Using Slab Decomposition
 


     bravais-lattice index     =            0
     lattice parameter (alat)  =       7.7101  a.u.
     unit-cell volume          =    2979.1368 (a.u.)^3
     number of atoms/cell      =           28
     number of atomic types    =            1
     number of electrons       =       308.00
     number of Kohn-Sham states=          185
     kinetic-energy cutoff     =      50.0000  Ry
     charge density cutoff     =     200.0000  Ry
     scf convergence threshold =      1.0E-06
     mixing beta               =       0.1000
     number of iterations used =            8  plain     mixing
     Exchange-correlation= SLA  PW   PBX  PBC
                           (   1   4   3   4   0   0   0)

     celldm(1)=   7.710083  celldm(2)=   0.000000  celldm(3)=   0.000000
     celldm(4)=   0.000000  celldm(5)=   0.000000  celldm(6)=   0.000000

     crystal axes: (cart. coord. in units of alat)
               a(1) = (   1.000000   0.000000   0.000000 )  
               a(2) = (   0.000000   1.414214   0.000000 )  
               a(3) = (   0.000000   0.000000   4.596194 )  

     reciprocal axes: (cart. coord. in units 2 pi/alat)
               b(1) = (  1.000000  0.000000  0.000000 )  
               b(2) = (  0.000000  0.707107  0.000000 )  
               b(3) = (  0.000000  0.000000  0.217571 )  


     PseudoPot. # 1 for Au read from file:
     ./Au.pbe-n-kjpaw_psl.1.0.0.UPF
     MD5 check sum: 4db85c736373c707a97ce4c36c2a9d23
     Pseudo is Projector augmented-wave + core cor, Zval = 11.0
     Generated using &quot;atomic&quot; code by A. Dal Corso  v.6.3
     Shape of augmentation charge: PSQ
     Using radial grid of 1279 points,  6 beta functions with: 
                l(1) =   0
                l(2) =   0
                l(3) =   1
                l(4) =   1
                l(5) =   2
                l(6) =   2
     Q(r) pseudized with 0 coefficients 


     atomic species   valence    mass     pseudopotential
        Au            11.00   196.96657     Au( 1.00)

      2 Sym. Ops. (no inversion) found



   Cartesian axes

     site n.     atom                  positions (alat units)
         1           Au  tau(   1) = (   0.5000000   0.3535534   0.0000000  )
         2           Au  tau(   2) = (   0.5000000   1.0606602   0.0000000  )
         3           Au  tau(   3) = (   0.0000000   0.0000000   0.3535534  )
         4           Au  tau(   4) = (   0.0000000   0.7071068   0.3535534  )
         5           Au  tau(   5) = (   0.5000000   0.3535534   0.7071068  )
         6           Au  tau(   6) = (   0.5000000   1.0606602   0.7071068  )
         7           Au  tau(   7) = (   0.0000000   0.0000000   1.0606602  )
         8           Au  tau(   8) = (   0.0000000   0.7071068   1.0606602  )
         9           Au  tau(   9) = (   0.5000000   0.3535534   1.4142136  )
        10           Au  tau(  10) = (   0.5000000   1.0606602   1.4142136  )
        11           Au  tau(  11) = (   0.0000000   0.0000000   1.7677670  )
        12           Au  tau(  12) = (   0.0000000   0.7071068   1.7677670  )
        13           Au  tau(  13) = (   0.5000000   0.3535534   2.1213203  )
        14           Au  tau(  14) = (   0.5000000   1.0606602   2.1213203  )
        15           Au  tau(  15) = (   0.0000000   0.0000000   2.4748737  )
        16           Au  tau(  16) = (   0.0000000   0.7071068   2.4748737  )
        17           Au  tau(  17) = (   0.8500000   0.3535534   2.8284271  )
        18           Au  tau(  18) = (   0.8500000   1.0606602   2.8284271  )
        19           Au  tau(  19) = (   0.3500000   0.0000000   3.1819805  )
        20           Au  tau(  20) = (   0.3500000   0.7071068   3.1819805  )
        21           Au  tau(  21) = (   0.8500000   0.3535534   3.5355339  )
        22           Au  tau(  22) = (   0.8500000   1.0606602   3.5355339  )
        23           Au  tau(  23) = (   0.3500000   0.0000000   3.8890873  )
        24           Au  tau(  24) = (   0.3500000   0.7071068   3.8890873  )
        25           Au  tau(  25) = (   0.8500000   0.3535534   4.2426407  )
        26           Au  tau(  26) = (   0.8500000   1.0606602   4.2426407  )
        27           Au  tau(  27) = (   0.3500000   0.0000000   4.5961941  )
        28           Au  tau(  28) = (   0.3500000   0.7071068   4.5961941  )

     number of k points=    35  Gaussian smearing, width (Ry)=  0.0200
                       cart. coord. in units 2pi/alat
        k(    1) = (   0.0000000   0.0000000   0.0000000), wk =   0.0208333
        k(    2) = (   0.0000000   0.0589256   0.0000000), wk =   0.0416667
        k(    3) = (   0.0000000   0.1178511   0.0000000), wk =   0.0416667
        k(    4) = (   0.0000000   0.1767767   0.0000000), wk =   0.0416667
        k(    5) = (   0.0000000   0.2357023   0.0000000), wk =   0.0416667
        k(    6) = (   0.0000000   0.2946278   0.0000000), wk =   0.0416667
        k(    7) = (   0.0000000  -0.3535534   0.0000000), wk =   0.0208333
        k(    8) = (   0.1250000   0.0000000   0.0000000), wk =   0.0416667
        k(    9) = (   0.1250000   0.0589256   0.0000000), wk =   0.0833333
        k(   10) = (   0.1250000   0.1178511   0.0000000), wk =   0.0833333
        k(   11) = (   0.1250000   0.1767767   0.0000000), wk =   0.0833333
        k(   12) = (   0.1250000   0.2357023   0.0000000), wk =   0.0833333
        k(   13) = (   0.1250000   0.2946278   0.0000000), wk =   0.0833333
        k(   14) = (   0.1250000  -0.3535534   0.0000000), wk =   0.0416667
        k(   15) = (   0.2500000   0.0000000   0.0000000), wk =   0.0416667
        k(   16) = (   0.2500000   0.0589256   0.0000000), wk =   0.0833333
        k(   17) = (   0.2500000   0.1178511   0.0000000), wk =   0.0833333
        k(   18) = (   0.2500000   0.1767767   0.0000000), wk =   0.0833333
        k(   19) = (   0.2500000   0.2357023   0.0000000), wk =   0.0833333
        k(   20) = (   0.2500000   0.2946278   0.0000000), wk =   0.0833333
        k(   21) = (   0.2500000  -0.3535534   0.0000000), wk =   0.0416667
        k(   22) = (   0.3750000   0.0000000   0.0000000), wk =   0.0416667
        k(   23) = (   0.3750000   0.0589256   0.0000000), wk =   0.0833333
        k(   24) = (   0.3750000   0.1178511   0.0000000), wk =   0.0833333
        k(   25) = (   0.3750000   0.1767767   0.0000000), wk =   0.0833333
        k(   26) = (   0.3750000   0.2357023   0.0000000), wk =   0.0833333
        k(   27) = (   0.3750000   0.2946278   0.0000000), wk =   0.0833333
        k(   28) = (   0.3750000  -0.3535534   0.0000000), wk =   0.0416667
        k(   29) = (  -0.5000000   0.0000000   0.0000000), wk =   0.0208333
        k(   30) = (  -0.5000000   0.0589256   0.0000000), wk =   0.0416667
        k(   31) = (  -0.5000000   0.1178511   0.0000000), wk =   0.0416667
        k(   32) = (  -0.5000000   0.1767767   0.0000000), wk =   0.0416667
        k(   33) = (  -0.5000000   0.2357023   0.0000000), wk =   0.0416667
        k(   34) = (  -0.5000000   0.2946278   0.0000000), wk =   0.0416667
        k(   35) = (  -0.5000000  -0.3535534   0.0000000), wk =   0.0208333

     Dense  grid:   142317 G-vectors     FFT dimensions: (  36,  50, 160)

     Estimated max dynamical RAM per process >     261.85 MB

     Estimated total dynamical RAM >       2.56 GB

     Initial potential from superposition of free atoms

     starting charge     307.9969, renormalised to     308.0000
     Starting wfcs are  252 randomized atomic wfcs
     Checking if some PAW data can be deallocated... 

     total cpu time spent up to now is       15.9 secs

     Self-consistent Calculation

     iteration #  1     ecut=    50.00 Ry     beta= 0.10
     Davidson diagonalization with overlap
     ethr =  1.00E-02,  avg # of iterations =  4.0

     total cpu time spent up to now is       58.4 secs

     total energy              =  -21688.46293749 Ry
     estimated scf accuracy    <      17.39004271 Ry

     iteration #  2     ecut=    50.00 Ry     beta= 0.10
     Davidson diagonalization with overlap
     ethr =  5.65E-03,  avg # of iterations =  2.8

     total cpu time spent up to now is       93.6 secs

     total energy              =  -21687.29021078 Ry
     estimated scf accuracy    <     161.18844946 Ry

     iteration #  3     ecut=    50.00 Ry     beta= 0.10
     Davidson diagonalization with overlap
     ethr =  5.65E-03,  avg # of iterations =  1.1

     total cpu time spent up to now is      122.9 secs

     total energy              =  -21691.14516991 Ry
     estimated scf accuracy    <       1.60863825 Ry

     iteration #  4     ecut=    50.00 Ry     beta= 0.10
     Davidson diagonalization with overlap
     ethr =  5.22E-04,  avg # of iterations =  5.4

     total cpu time spent up to now is      162.2 secs

     total energy              =  -21691.20866764 Ry
     estimated scf accuracy    <       0.96969058 Ry

     iteration #  5     ecut=    50.00 Ry     beta= 0.10
     Davidson diagonalization with overlap
     ethr =  3.15E-04,  avg # of iterations =  2.3

     total cpu time spent up to now is      196.2 secs

     total energy              =  -21691.12353675 Ry
     estimated scf accuracy    <       0.92942827 Ry

     iteration #  6     ecut=    50.00 Ry     beta= 0.10
     Davidson diagonalization with overlap
     ethr =  3.02E-04,  avg # of iterations =  2.0

     total cpu time spent up to now is      229.3 secs

     total energy              =  -21691.11116044 Ry
     estimated scf accuracy    <       0.24528738 Ry

     iteration #  7     ecut=    50.00 Ry     beta= 0.10
     Davidson diagonalization with overlap
     c_bands:  3 eigenvalues not converged
     ethr =  7.96E-05,  avg # of iterations =  9.7

     total cpu time spent up to now is      290.7 secs

     total energy              =  -21691.19210513 Ry
     estimated scf accuracy    <       0.05329233 Ry

     iteration #  8     ecut=    50.00 Ry     beta= 0.10
     Davidson diagonalization with overlap
     c_bands:  1 eigenvalues not converged
     c_bands:  1 eigenvalues not converged
     c_bands:  1 eigenvalues not converged
     c_bands:  1 eigenvalues not converged
     ethr =  1.73E-05,  avg # of iterations = 10.7

     total cpu time spent up to now is      354.9 secs

     total energy              =  -21691.20581590 Ry
     estimated scf accuracy    <       0.04113338 Ry

     iteration #  9     ecut=    50.00 Ry     beta= 0.10
     Davidson diagonalization with overlap
     ethr =  1.34E-05,  avg # of iterations =  2.3

     total cpu time spent up to now is      387.8 secs

     total energy              =  -21691.20943418 Ry
     estimated scf accuracy    <       0.02274030 Ry

     iteration # 10     ecut=    50.00 Ry     beta= 0.10
     Davidson diagonalization with overlap
     c_bands:  1 eigenvalues not converged
     ethr =  7.38E-06,  avg # of iterations =  6.1

     total cpu time spent up to now is      429.6 secs

     total energy              =  -21691.21253491 Ry
     estimated scf accuracy    <       0.01107850 Ry

     iteration # 11     ecut=    50.00 Ry     beta= 0.10
     Davidson diagonalization with overlap
     c_bands:  1 eigenvalues not converged
     ethr =  3.60E-06,  avg # of iterations =  4.8

     total cpu time spent up to now is      465.1 secs

     total energy              =  -21691.21361827 Ry
     estimated scf accuracy    <       0.00142897 Ry

     iteration # 12     ecut=    50.00 Ry     beta= 0.10
     Davidson diagonalization with overlap
     c_bands:  1 eigenvalues not converged
     ethr =  4.64E-07,  avg # of iterations =  5.4

     total cpu time spent up to now is      516.5 secs

     total energy              =  -21691.21418494 Ry
     estimated scf accuracy    <       0.00077526 Ry

     iteration # 13     ecut=    50.00 Ry     beta= 0.10
     Davidson diagonalization with overlap
     ethr =  2.52E-07,  avg # of iterations =  3.7

     total cpu time spent up to now is      560.4 secs

     total energy              =  -21691.21417996 Ry
     estimated scf accuracy    <       0.00041794 Ry

     iteration # 14     ecut=    50.00 Ry     beta= 0.10
     Davidson diagonalization with overlap
     ethr =  1.36E-07,  avg # of iterations =  1.7

     total cpu time spent up to now is      591.8 secs

     total energy              =  -21691.21413348 Ry
     estimated scf accuracy    <       0.00020382 Ry

     iteration # 15     ecut=    50.00 Ry     beta= 0.10
     Davidson diagonalization with overlap
     ethr =  6.62E-08,  avg # of iterations =  3.7

     total cpu time spent up to now is      637.2 secs

     total energy              =  -21691.21419046 Ry
     estimated scf accuracy    <       0.00018483 Ry

     iteration # 16     ecut=    50.00 Ry     beta= 0.10
     Davidson diagonalization with overlap
     ethr =  6.00E-08,  avg # of iterations =  1.8

     total cpu time spent up to now is      668.6 secs

     total energy              =  -21691.21418605 Ry
     estimated scf accuracy    <       0.00005897 Ry

     iteration # 17     ecut=    50.00 Ry     beta= 0.10
     Davidson diagonalization with overlap
     ethr =  1.91E-08,  avg # of iterations =  2.2

     total cpu time spent up to now is      710.3 secs

     total energy              =  -21691.21419442 Ry
     estimated scf accuracy    <       0.00001671 Ry

     iteration # 18     ecut=    50.00 Ry     beta= 0.10
     Davidson diagonalization with overlap
     ethr =  5.42E-09,  avg # of iterations =  4.7

     total cpu time spent up to now is      750.6 secs

     total energy              =  -21691.21419241 Ry
     estimated scf accuracy    <       0.00000672 Ry

     iteration # 19     ecut=    50.00 Ry     beta= 0.10
     Davidson diagonalization with overlap
     ethr =  2.18E-09,  avg # of iterations =  4.2

     total cpu time spent up to now is      801.7 secs

     total energy              =  -21691.21419379 Ry
     estimated scf accuracy    <       0.00000729 Ry

     iteration # 20     ecut=    50.00 Ry     beta= 0.10
     Davidson diagonalization with overlap
     ethr =  2.18E-09,  avg # of iterations =  2.0

     total cpu time spent up to now is      838.3 secs

     End of self-consistent calculation

          k = 0.0000 0.0000 0.0000 ( 17807 PWs)   bands (ev):

    -4.4795  -4.4794  -2.8935   0.1938   0.8428   0.8436   2.7680   3.8839
     4.3573   5.1154   6.1307   6.1310   6.4772   6.7977   7.0177   7.9882
     8.1670   8.5259   8.7030   8.7070   9.1806   9.5152   9.7667   9.9654
     9.9782  10.0316  10.0493  10.0548  10.4755  10.4762  10.5058  10.6563
    10.7290  10.7308  10.9507  11.0843  11.1028  11.1293  11.2648  11.2682
    11.3548  11.4301  11.4489  11.4789  11.5386  11.6057  11.6514  11.6617
    11.7370  11.7923  11.8411  11.8494  11.9175  11.9565  11.9810  12.0993
    12.1133  12.2175  12.3003  12.3319  12.3433  12.3868  12.3899  12.6385
    12.6674  12.7076  12.7163  12.8100  12.8165  12.8707  12.9022  13.0174
    13.0253  13.0667  13.1337  13.1730  13.2160  13.2160  13.2760  13.3570
    13.3634  13.3786  13.4647  13.4960  13.5401  13.6263  13.6441  13.6758
    13.7243  13.8273  13.8808  13.9291  14.0378  14.1665  14.1671  14.2515
    14.3063  14.3085  14.3170  14.3759  14.5131  14.5270  14.6525  14.6962
    14.6963  14.7546  14.7677  14.8638  14.8652  14.8889  14.9263  14.9459
    14.9886  15.0143  15.0157  15.0913  15.1246  15.2052  15.2433  15.3422
    15.3784  15.4109  15.4823  15.4972  15.5194  15.6708  15.6879  15.7649
    15.7682  15.7946  15.7985  15.8241  15.9484  15.9511  16.0605  16.0660
    16.0748  16.1404  16.2137  16.2160  16.2585  16.3313  16.4047  16.4226
    16.7007  17.5242  17.5353  17.7473  17.7693  17.8501  18.0038  18.0884
    18.0957  18.1906  18.2743  18.3219  18.5909  18.8272  18.8614  18.9231
    19.6493  19.6563  20.0271  20.4449  21.1955  21.1960  21.2856  21.8291
    22.6070  22.9905  23.6075  24.1462  24.3809  24.4071  24.4098  24.5892
    24.5974  24.7873  24.9723  24.9949  25.4437  25.7182  25.9780  26.0294
    26.2151

          k = 0.0000 0.0589 0.0000 ( 17795 PWs)   bands (ev):

    -4.5793  -4.2626  -2.8693   0.0422   0.2769   1.4440   2.4803   3.8750
     4.0788   5.1783   5.6714   6.5935   6.6877   7.0436   7.3169   8.0309
     8.2020   8.2938   8.5701   9.0010   9.2086   9.5174   9.5545   9.7845
     9.8513  10.0527  10.2249  10.2925  10.4896  10.4913  10.5361  10.6653
    10.6927  10.8154  10.9637  11.0448  11.1196  11.1801  11.2614  11.2931
    11.3973  11.4465  11.4608  11.5018  11.5390  11.5718  11.6238  11.6468
    11.7585  11.7643  11.8331  11.8481  11.8699  11.9295  12.0376  12.1227
    12.1523  12.2807  12.2904  12.3177  12.3366  12.3857  12.4532  12.5230
    12.6603  12.6943  12.7202  12.7408  12.8225  12.8722  12.9308  12.9683
    13.0384  13.0887  13.1113  13.1672  13.2117  13.2216  13.2714  13.3116
    13.3174  13.4007  13.4445  13.5063  13.5344  13.6175  13.6614  13.6921
    13.7184  13.8517  13.9053  13.9543  13.9656  14.1620  14.1714  14.2601
    14.2971  14.3082  14.3578  14.3883  14.5112  14.5240  14.6130  14.6420
    14.6942  14.7562  14.7797  14.8011  14.8178  14.8804  14.9400  14.9442
    14.9493  14.9803  15.0486  15.1246  15.1860  15.2312  15.2700  15.3148
    15.3727  15.4205  15.4418  15.4949  15.5277  15.5565  15.6643  15.6994
    15.7577  15.7793  15.7962  15.8848  15.9159  15.9294  15.9676  15.9878
    16.1353  16.1822  16.1954  16.2320  16.3265  16.3827  16.4027  16.4196
    16.6840  16.9746  17.1684  17.2731  17.4251  17.7590  17.9889  18.0786
    18.3178  18.3503  18.4879  18.5709  18.6483  19.0687  19.0788  19.1987
    19.8102  20.0386  20.1064  20.5265  21.0905  21.3418  21.3477  21.8803
    22.6410  23.0223  23.6210  23.8656  24.0041  24.1315  24.3766  24.5409
    24.7526  24.7946  25.0999  25.2407  25.4446  25.6348  25.7172  25.8822
    26.2276

          k = 0.0000 0.1179 0.0000 ( 17803 PWs)   bands (ev):

    -4.5581  -3.9337  -2.7979  -0.3970  -0.2494   1.7878   2.0724   3.5491
     4.1120   5.2250   5.3254   6.4815   7.0477   7.7842   7.8728   8.1573
     8.1677   8.3183   8.7019   9.0273   9.1939   9.2831   9.5244   9.6827
     9.8437  10.1196  10.3962  10.4600  10.5292  10.5353  10.6234  10.6405
    10.7984  10.8923  10.9941  11.0105  11.1648  11.2262  11.2872  11.3122
    11.3974  11.4390  11.4718  11.4942  11.5246  11.5604  11.6277  11.6977
    11.7169  11.7752  11.8262  11.8280  11.9108  12.0143  12.0841  12.1535
    12.2077  12.2385  12.2831  12.3189  12.3215  12.3759  12.5142  12.5430
    12.5936  12.6429  12.6831  12.7279  12.7596  12.8432  12.9413  12.9442
    12.9617  13.0494  13.0584  13.1565  13.1803  13.1996  13.2229  13.2799
    13.3434  13.4357  13.4490  13.4753  13.5600  13.6131  13.6917  13.7116
    13.7493  13.8380  13.8476  14.0163  14.0652  14.0877  14.1341  14.2599
    14.2985  14.3349  14.3824  14.4143  14.4750  14.5175  14.5317  14.5401
    14.6338  14.7055  14.7533  14.7606  14.8253  14.8294  14.8843  14.9117
    14.9454  15.0173  15.0848  15.0958  15.1888  15.2016  15.2690  15.2885
    15.3560  15.4062  15.4337  15.4444  15.5253  15.5671  15.5921  15.6026
    15.7070  15.7330  15.7685  15.7700  15.8580  15.8977  15.9380  15.9543
    16.1148  16.1196  16.1799  16.3068  16.3254  16.3691  16.3894  16.4326
    16.6063  16.6133  16.6697  16.7274  16.7811  17.5617  17.6812  17.8728
    18.0599  18.5666  18.7866  19.1089  19.1782  19.4292  19.7318  20.0767
    20.2712  20.3187  20.3274  20.7653  21.0166  21.5121  21.5232  22.0192
    22.7308  23.1151  23.4653  23.6249  23.6595  24.0802  24.1427  24.2850
    24.3609  24.7452  24.8151  25.3342  25.4395  25.6232  25.7065  26.0492
    26.1620

          k = 0.0000 0.1768 0.0000 ( 17795 PWs)   bands (ev):

    -4.4128  -3.4976  -2.6852  -1.0367  -0.7311   0.9331   2.7196   3.3543
     4.3355   4.8004   5.5569   6.1680   7.2143   7.4791   8.2608   8.3960
     8.4453   8.5971   8.9172   9.3053   9.3089   9.3595   9.5473   9.5748
     9.9441  10.2404  10.4201  10.4892  10.5951  10.6306  10.6515  10.7582
    10.9467  10.9495  10.9839  11.0371  11.1628  11.2148  11.2659  11.2794
    11.3240  11.3694  11.4378  11.5287  11.5665  11.6652  11.6699  11.7590
    11.7797  11.8147  11.8904  11.9056  11.9570  12.0435  12.1215  12.1476
    12.1879  12.2714  12.2726  12.3110  12.3650  12.3817  12.4716  12.5852
    12.6110  12.6232  12.6294  12.7185  12.7244  12.8395  12.8562  12.8680
    12.9177  12.9619  12.9669  13.0982  13.1206  13.1988  13.2475  13.2671
    13.3693  13.4626  13.4999  13.5274  13.5630  13.6372  13.7069  13.7270
    13.7990  13.8457  13.8687  13.9662  14.0855  14.0907  14.1732  14.2131
    14.2166  14.3002  14.3295  14.3842  14.4456  14.4540  14.4899  14.5428
    14.5742  14.6557  14.7176  14.7406  14.7899  14.8382  14.8591  14.8738
    14.9807  14.9841  15.0209  15.0409  15.0878  15.1094  15.2232  15.2498
    15.2773  15.2926  15.3985  15.4257  15.4645  15.5061  15.5117  15.5870
    15.6470  15.6631  15.7256  15.7396  15.8403  15.8407  15.8839  15.9396
    15.9842  16.0333  16.1001  16.1672  16.2022  16.2505  16.2858  16.3279
    16.3588  16.3787  16.4173  16.5095  16.9953  17.2513  17.3404  17.8194
    17.8491  18.8689  18.9890  19.7481  19.8479  19.9138  20.1021  20.2508
    20.6467  20.7792  20.7994  21.1448  21.1530  21.7452  21.7910  22.1966
    22.8311  23.0183  23.2624  23.3257  23.7217  23.9500  23.9777  24.0997
    24.3175  24.4119  24.8412  24.9435  25.2791  25.3948  25.4975  25.5514
    25.6900

          k = 0.0000 0.2357 0.0000 ( 17822 PWs)   bands (ev):

    -4.1421  -2.9601  -2.5664  -1.7111  -1.1641   0.0471   3.3613   3.3749
     4.4058   4.6516   5.7460   5.8741   6.6257   7.8510   7.8698   8.4413
     8.6793   8.9163   9.2061   9.3570   9.3884   9.4540   9.6987  10.0323
    10.2001  10.2082  10.3788  10.4271  10.6298  10.6525  10.7882  10.9226
    10.9296  10.9439  10.9958  11.0233  11.0666  11.2077  11.2244  11.2747
    11.3475  11.4537  11.4874  11.6073  11.6545  11.6778  11.7312  11.8166
    11.8246  11.8927  11.9139  11.9719  12.0406  12.1454  12.1742  12.1746
    12.1901  12.2371  12.2702  12.3287  12.4202  12.4288  12.4423  12.4771
    12.5943  12.6030  12.6196  12.6677  12.7246  12.7511  12.7789  12.8564
    12.9220  12.9549  12.9855  13.0682  13.0880  13.1356  13.2408  13.2682
    13.4046  13.4447  13.5828  13.6128  13.6241  13.6696  13.6875  13.7854
    13.8067  13.8488  13.9132  13.9760  14.0080  14.0568  14.0955  14.1654
    14.1923  14.2561  14.2694  14.3020  14.3506  14.4271  14.4480  14.5596
    14.5663  14.6128  14.6704  14.7442  14.7663  14.7961  14.8179  14.8686
    14.8907  14.8971  14.9631  14.9883  15.0097  15.0627  15.1321  15.1372
    15.2287  15.2461  15.2690  15.2920  15.3887  15.4345  15.4867  15.5283
    15.5294  15.6315  15.6946  15.6959  15.7227  15.7653  15.7820  15.9065
    15.9146  15.9617  15.9764  16.0569  16.1439  16.2009  16.2897  16.3332
    16.3737  16.3929  16.4036  16.4666  16.9364  17.0515  17.1372  17.8121
    17.8335  19.2057  19.2514  19.4006  20.2120  20.2849  20.5278  20.7248
    20.8096  20.9998  21.0062  21.6257  21.9713  22.1084  22.3426  22.3942
    22.5545  22.7372  22.8472  23.4482  23.7406  23.8930  23.9967  24.1979
    24.2530  24.4963  24.6024  24.7680  24.8127  24.8637  25.0206  25.2795
    25.3830

          k = 0.0000 0.2946 0.0000 ( 17818 PWs)   bands (ev):

    -3.7491  -2.7197  -2.3272  -2.0383  -1.5432  -0.8096   3.5066   4.0242
     4.0503   5.0501   5.2323   6.0528   6.2726   7.2761   8.1961   8.5116
     9.0137   9.1138   9.3206   9.3791   9.4186   9.5841   9.8325   9.8505
    10.1764  10.2038  10.4357  10.5436  10.5530  10.7388  10.8127  10.8365
    10.9630  10.9747  11.0098  11.0749  11.0801  11.2237  11.2818  11.3935
    11.4440  11.5272  11.5354  11.5914  11.7433  11.7596  11.8057  11.8294
    11.8548  11.9269  11.9720  12.0520  12.0766  12.1248  12.1502  12.1867
    12.2474  12.2474  12.2649  12.3097  12.3166  12.4291  12.4372  12.4644
    12.5427  12.6072  12.6279  12.6670  12.7542  12.7683  12.7827  12.8287
    12.8616  12.9756  12.9804  13.0470  13.0835  13.2093  13.3019  13.3641
    13.3988  13.4337  13.5422  13.5521  13.6100  13.7066  13.7718  13.7812
    13.8250  13.8810  13.9026  13.9890  14.0161  14.0266  14.0479  14.1026
    14.1457  14.1575  14.2020  14.2659  14.3429  14.3640  14.4322  14.4526
    14.4722  14.5107  14.5232  14.6337  14.6725  14.7021  14.7487  14.7869
    14.8286  14.8870  14.9239  15.0510  15.0656  15.0943  15.1106  15.1520
    15.2252  15.2282  15.2329  15.2799  15.3032  15.3147  15.3555  15.4352
    15.5398  15.5542  15.6103  15.6808  15.7054  15.8265  15.8314  15.9136
    15.9683  15.9907  16.0078  16.1362  16.1622  16.2307  16.3146  16.3368
    16.3742  16.3812  16.5144  16.5804  16.7403  16.8931  16.9604  17.8275
    17.8549  18.4115  19.5355  19.6058  20.2100  20.4058  20.7324  20.8410
    21.3430  21.3760  21.7523  21.8304  21.8772  22.2670  22.3567  22.6377
    22.7130  23.1336  23.1875  23.4339  23.6013  23.7776  23.8957  24.0444
    24.0945  24.1131  24.4874  24.6374  24.6958  24.7947  24.9426  24.9788
    24.9821

          k = 0.0000-0.3536 0.0000 ( 17844 PWs)   bands (ev):

    -3.2487  -3.2487  -1.8570  -1.8569  -1.6067  -1.6067   3.7452   3.7452
     4.6503   4.6504   5.5215   5.5215   6.7441   6.7441   8.4245   8.4245
     9.2290   9.2290   9.3781   9.3781   9.4441   9.4441   9.9642   9.9642
    10.0276  10.0276  10.3910  10.3910  10.7164  10.7164  10.8763  10.8763
    10.9473  10.9473  11.1117  11.1117  11.1867  11.1867  11.2586  11.2586
    11.5519  11.5519  11.6929  11.6929  11.7234  11.7234  11.8522  11.8522
    11.9603  11.9603  12.0027  12.0027  12.0300  12.0300  12.1293  12.1293
    12.1929  12.1929  12.3453  12.3453  12.3631  12.3632  12.4660  12.4660
    12.5808  12.5808  12.6578  12.6578  12.7547  12.7547  12.8128  12.8128
    12.8998  12.8998  13.0057  13.0057  13.2135  13.2135  13.3392  13.3392
    13.4273  13.4273  13.5323  13.5323  13.7133  13.7133  13.7671  13.7671
    13.8608  13.8608  13.9434  13.9434  13.9822  13.9822  14.0179  14.0179
    14.0704  14.0704  14.2560  14.2560  14.3039  14.3039  14.3854  14.3854
    14.5535  14.5535  14.5700  14.5700  14.5814  14.5814  14.6472  14.6472
    14.9121  14.9122  14.9746  14.9746  15.0921  15.0921  15.1681  15.1681
    15.1903  15.1903  15.2263  15.2263  15.3125  15.3125  15.4227  15.4227
    15.4561  15.4561  15.6122  15.6122  15.8151  15.8151  15.8359  15.8359
    16.0055  16.0055  16.1605  16.1605  16.2516  16.2516  16.3622  16.3622
    16.4857  16.4857  16.5510  16.5510  16.7961  16.7961  17.3105  17.3105
    17.8471  17.8471  19.8687  19.8687  20.0214  20.0214  21.1944  21.1944
    21.4537  21.4537  21.5716  21.5716  22.3476  22.3476  22.5331  22.5331
    23.0991  23.0991  23.3175  23.3175  23.6391  23.6391  23.9546  23.9546
    24.1607  24.1607  24.4087  24.4087  24.6052  24.6052  24.7321  24.7322
    25.2081

          k = 0.1250 0.0000 0.0000 ( 17777 PWs)   bands (ev):

    -4.4727  -4.4725  -2.8964   0.2054   0.8436   0.8444   2.7738   3.9467
     4.3432   5.1823   6.1742   6.1747   6.5072   6.8025   7.0412   8.1166
     8.3950   8.5275   8.6950   8.6990   9.2941   9.5734   9.7618   9.9465
     9.9506  10.0565  10.0578  10.0623  10.4385  10.4731  10.4731  10.5651
    10.6277  10.6310  10.9637  11.0774  11.1150  11.2317  11.2327  11.3356
    11.3806  11.4264  11.4965  11.5068  11.5463  11.6015  11.6184  11.6542
    11.6903  11.7038  11.7470  11.8339  11.9864  12.0091  12.0738  12.2312
    12.2568  12.2749  12.2814  12.3908  12.4700  12.4719  12.6205  12.6309
    12.7433  12.7664  12.8002  12.8757  12.9249  13.0074  13.0203  13.0258
    13.0272  13.1645  13.2049  13.2490  13.2874  13.3428  13.3553  13.3674
    13.3914  13.4025  13.4445  13.4632  13.5084  13.6289  13.6448  13.6609
    13.6771  13.7763  13.8152  13.9498  13.9719  14.0007  14.0051  14.1889
    14.1919  14.2703  14.2868  14.3933  14.4657  14.4743  14.4971  14.5980
    14.6161  14.6913  14.7640  14.7646  14.8139  14.8976  14.9013  14.9192
    14.9672  14.9678  15.0883  15.0892  15.1281  15.1344  15.2997  15.3136
    15.3663  15.3739  15.3934  15.4703  15.4973  15.5754  15.6100  15.7107
    15.7322  15.7468  15.7479  15.8723  15.8978  15.9132  15.9213  16.0362
    16.0509  16.1050  16.1677  16.1989  16.2020  16.2251  16.2992  16.3013
    16.6411  17.2282  17.6061  17.6136  17.7743  17.8067  17.8835  18.0224
    18.2445  18.2928  18.5432  18.5469  18.6342  18.7369  19.1019  19.3188
    19.3234  19.5219  19.7307  19.7490  21.0881  21.1112  21.1124  21.5450
    22.2735  22.5814  23.6576  23.7238  23.9889  24.0130  24.0880  24.2630
    24.2651  24.3760  24.4179  24.9025  24.9228  25.1201  25.1291  25.4403
    25.8753

          k = 0.1250 0.0589 0.0000 ( 17791 PWs)   bands (ev):

    -4.5733  -4.2550  -2.8722   0.0513   0.2769   1.4454   2.4883   3.9434
     4.0775   5.2455   5.7180   6.6334   6.6641   7.0593   7.3555   8.1595
     8.3061   8.4287   8.5717   8.9723   9.3231   9.5334   9.5734   9.7823
     9.8684  10.0846  10.2364  10.2897  10.4713  10.4824  10.4956  10.5708
    10.5974  10.6976  10.9849  11.0942  11.1274  11.1949  11.2650  11.3349
    11.4187  11.4455  11.4857  11.5293  11.5304  11.5944  11.6279  11.6621
    11.7079  11.7101  11.7925  11.8392  11.9435  12.0322  12.0518  12.2308
    12.2395  12.3122  12.3469  12.3872  12.4300  12.5017  12.5100  12.6280
    12.6904  12.7699  12.8183  12.8716  12.9008  12.9221  12.9848  13.0439
    13.0724  13.1483  13.1952  13.2490  13.2902  13.2958  13.3541  13.3572
    13.3763  13.3946  13.4339  13.4508  13.5034  13.6316  13.6346  13.6775
    13.7047  13.7657  13.8473  13.8885  13.9859  13.9955  14.0574  14.1322
    14.1834  14.2636  14.3062  14.3881  14.4373  14.4830  14.4851  14.5375
    14.6336  14.6588  14.7375  14.7476  14.8388  14.8783  14.8857  14.9299
    14.9935  15.0078  15.0799  15.0803  15.1311  15.1655  15.2229  15.3475
    15.3498  15.3585  15.3837  15.4629  15.5071  15.5533  15.6250  15.6903
    15.6910  15.7512  15.7589  15.8393  15.8486  15.8967  15.9485  15.9656
    16.0479  16.0554  16.0876  16.1698  16.2322  16.2606  16.2722  16.4782
    16.6559  17.0301  17.1573  17.2847  17.5161  17.6379  17.7884  18.0058
    18.3498  18.4919  18.7293  18.8085  18.8398  18.9940  19.1651  19.1845
    19.4286  19.5956  19.8893  20.1579  21.0661  21.1298  21.3396  21.5816
    22.3258  22.6443  23.4738  23.4984  23.6670  23.7421  23.7424  24.0933
    24.0986  24.3085  24.6170  24.9385  25.1580  25.4271  25.5285  25.7271
    25.9562

          k = 0.1250 0.1179 0.0000 ( 17815 PWs)   bands (ev):

    -4.5530  -3.9252  -2.8009  -0.3930  -0.2502   1.7989   2.0741   3.5932
     4.1549   5.2743   5.3916   6.4653   7.0825   7.8163   7.8375   8.2002
     8.2883   8.5364   8.7031   8.9863   9.1975   9.3970   9.5766   9.7022
     9.8552  10.1655  10.3835  10.4673  10.5313  10.5438  10.5680  10.5984
    10.6950  10.7504  11.0295  11.1497  11.1593  11.1666  11.2718  11.3561
    11.4070  11.4749  11.4842  11.5056  11.6000  11.6230  11.6409  11.6864
    11.7524  11.7783  11.8305  11.8834  11.9635  12.0356  12.0413  12.2326
    12.2389  12.2999  12.3377  12.3740  12.3985  12.4618  12.5122  12.5856
    12.6257  12.7392  12.7408  12.8314  12.8626  12.9134  12.9476  13.0028
    13.0311  13.0904  13.1921  13.2133  13.2346  13.2762  13.2842  13.3378
    13.3670  13.4164  13.4507  13.4583  13.5016  13.6130  13.6442  13.7224
    13.7261  13.7665  13.8488  13.9154  13.9236  13.9870  14.0425  14.1485
    14.1661  14.2229  14.2524  14.3595  14.3972  14.4396  14.4596  14.5499
    14.5597  14.6332  14.7052  14.7052  14.8308  14.8407  14.8888  14.9368
    14.9795  15.0058  15.0326  15.0898  15.0985  15.1675  15.2143  15.2846
    15.3352  15.3403  15.3944  15.4397  15.5094  15.5104  15.5691  15.6369
    15.6828  15.7259  15.7734  15.7795  15.8066  15.8443  15.8891  15.9016
    16.0122  16.0459  16.0649  16.1849  16.2019  16.2249  16.2988  16.5207
    16.6173  16.6246  16.7523  16.8883  17.0065  17.4100  17.5787  18.0413
    18.2107  18.5221  18.9254  19.1015  19.1319  19.3025  19.4185  19.6935
    19.8013  20.2081  20.3167  20.4692  21.2118  21.2498  21.5907  21.6784
    22.4727  22.7451  22.8282  23.1224  23.2813  23.4932  23.6659  23.6899
    23.8007  24.1064  24.7355  24.9978  25.3361  25.5525  25.7870  25.8522
    26.0556

          k = 0.1250 0.1768 0.0000 ( 17796 PWs)   bands (ev):

    -4.4084  -3.4884  -2.6883  -1.0357  -0.7326   0.9458   2.7209   3.4034
     4.3856   4.8524   5.6199   6.1565   7.2520   7.5183   8.3218   8.4517
     8.4961   8.7040   8.9181   9.2818   9.2857   9.4575   9.5682   9.6460
     9.9777  10.2924  10.3724  10.4525  10.6017  10.6619  10.7299  10.7583
    10.7709  10.8524  11.0646  11.1272  11.1939  11.2116  11.2502  11.3247
    11.3591  11.4611  11.5130  11.5349  11.6084  11.6780  11.7164  11.7853
    11.7971  11.8870  11.8880  11.9475  12.0230  12.0554  12.0860  12.1467
    12.2547  12.2682  12.3263  12.3440  12.3967  12.4794  12.4963  12.5403
    12.6114  12.6461  12.6952  12.7691  12.8072  12.8944  12.9362  12.9499
    12.9693  13.0261  13.1016  13.1304  13.1759  13.2637  13.2808  13.3313
    13.3404  13.4279  13.4619  13.5293  13.5640  13.5944  13.6834  13.6881
    13.7635  13.7916  13.7955  13.8727  13.9092  14.0233  14.0236  14.0816
    14.1343  14.1380  14.2607  14.2691  14.3491  14.4211  14.4266  14.4531
    14.5797  14.6494  14.6528  14.7302  14.7410  14.7751  14.7948  14.8486
    14.9202  14.9709  15.0217  15.0749  15.0897  15.1212  15.1578  15.2396
    15.2421  15.3255  15.3305  15.3852  15.4123  15.4998  15.5313  15.6080
    15.6226  15.6743  15.7298  15.7635  15.7992  15.8372  15.8717  15.9039
    15.9360  16.0427  16.0791  16.1054  16.1407  16.1723  16.2239  16.2326
    16.3236  16.4571  16.5571  16.6203  16.9694  17.3447  17.5751  17.7786
    18.1562  18.2265  19.1790  19.4401  19.5630  19.7649  19.9137  20.1028
    20.1286  20.3063  20.9929  21.1261  21.3433  21.4355  21.6805  21.8132
    22.1442  22.6705  22.7504  22.8860  23.1108  23.2517  23.3703  23.7236
    23.8948  24.1143  24.5880  24.8666  25.0325  25.4180  25.6303  25.8702
    26.0102

          k = 0.1250 0.2357 0.0000 ( 17785 PWs)   bands (ev):

    -4.1386  -2.9499  -2.5694  -1.7108  -1.1661   0.0602   3.3734   3.4125
     4.4619   4.7065   5.7399   5.9327   6.6784   7.8365   7.9421   8.5455
     8.7764   8.9455   9.2061   9.3378   9.4373   9.4726   9.7685  10.0752
    10.1574  10.2050  10.3519  10.4664  10.6554  10.7245  10.8027  10.9081
    10.9293  10.9826  10.9971  11.0424  11.1340  11.1423  11.3172  11.3561
    11.3735  11.5281  11.5733  11.6117  11.6581  11.6666  11.7448  11.8639
    11.8704  11.9710  11.9869  12.0361  12.0875  12.1203  12.1206  12.1859
    12.2296  12.2685  12.3481  12.3649  12.4122  12.4428  12.4777  12.5063
    12.5843  12.6242  12.6705  12.7111  12.7213  12.8460  12.8676  12.9348
    12.9363  12.9647  13.0075  13.0788  13.1877  13.1912  13.2741  13.2791
    13.3650  13.4126  13.4680  13.5879  13.6012  13.6233  13.6650  13.7242
    13.7615  13.7951  13.8571  13.8600  13.9086  13.9134  13.9894  13.9956
    14.1174  14.1349  14.1744  14.2277  14.2731  14.3664  14.4830  14.4914
    14.5213  14.5363  14.6093  14.6614  14.6861  14.7364  14.7542  14.8335
    14.8466  14.8931  14.9563  14.9947  15.0104  15.0916  15.1102  15.1677
    15.1928  15.2954  15.3132  15.3143  15.3981  15.4157  15.4373  15.5001
    15.5218  15.6237  15.6749  15.7010  15.7201  15.8033  15.8043  15.9044
    15.9103  15.9376  16.0221  16.0838  16.1423  16.1843  16.2276  16.2515
    16.3153  16.3222  16.4740  16.5828  16.9818  17.1683  17.4213  17.7251
    18.0898  18.3504  19.1955  19.4736  19.8105  19.9861  20.1827  20.4636
    20.6747  20.8073  21.0315  21.1578  21.4938  21.6670  21.9782  22.0950
    22.1892  22.4615  22.6689  22.8004  23.1634  23.3750  23.4156  23.7613
    23.9887  24.0800  24.5974  24.5993  24.8061  25.0524  25.1569  25.6795
    25.9435

          k = 0.1250 0.2946 0.0000 ( 17801 PWs)   bands (ev):

    -3.7467  -2.7205  -2.3161  -2.0396  -1.5456  -0.7969   3.5572   3.9809
     4.1483   5.1077   5.2333   6.1114   6.3248   7.3097   8.2335   8.5846
     9.0843   9.1646   9.3265   9.4044   9.4238   9.5987   9.8919   9.9012
    10.1979  10.2755  10.4431  10.5410  10.6275  10.6782  10.8262  10.8706
    10.9565  10.9732  11.0285  11.1148  11.1357  11.2240  11.3748  11.4076
    11.5159  11.5493  11.5690  11.6878  11.7175  11.7671  11.8096  11.8826
    11.8926  12.0042  12.0482  12.0549  12.0985  12.1371  12.1944  12.2408
    12.2566  12.3108  12.3407  12.3535  12.3918  12.4795  12.4800  12.5241
    12.5703  12.5760  12.6405  12.7244  12.7383  12.7796  12.8163  12.8563
    12.8769  12.9272  13.0071  13.0775  13.1203  13.2162  13.2286  13.2406
    13.3670  13.4116  13.4444  13.5102  13.6281  13.6884  13.7014  13.7450
    13.7646  13.8018  13.8020  13.8424  13.8847  13.9136  13.9645  13.9917
    14.0392  14.0763  14.1493  14.1656  14.2492  14.3247  14.3448  14.3860
    14.4698  14.5966  14.6036  14.6402  14.6464  14.7192  14.7216  14.8006
    14.8368  14.8627  14.8907  14.9376  14.9588  15.0105  15.0667  15.1322
    15.1780  15.2003  15.2499  15.3020  15.3085  15.3435  15.4234  15.4292
    15.4931  15.5902  15.6061  15.7633  15.7857  15.8104  15.8727  15.9275
    15.9510  15.9980  16.0652  16.1028  16.1792  16.2001  16.2207  16.2623
    16.2996  16.3091  16.4824  16.7658  16.8389  17.0391  17.1267  17.8747
    17.9576  18.4019  18.6482  19.6517  19.7980  20.1769  20.4898  20.6367
    20.7546  20.8540  21.1469  21.5418  21.7811  21.9053  21.9469  22.1719
    22.2028  22.6146  22.7787  22.8584  23.3674  23.4351  23.7078  23.8416
    23.9431  24.1165  24.4234  24.5738  24.6075  24.7173  24.8482  25.2857
    25.6190

          k = 0.1250-0.3536 0.0000 ( 17808 PWs)   bands (ev):

    -3.2475  -3.2475  -1.8594  -1.8593  -1.5947  -1.5947   3.7919   3.7919
     4.6571   4.6571   5.5818   5.5818   6.7885   6.7885   8.4702   8.4702
     9.2534   9.2534   9.3876   9.3876   9.5342   9.5342   9.9941   9.9941
    10.0497  10.0497  10.4660  10.4660  10.7463  10.7463  10.8560  10.8560
    10.9135  10.9135  11.1622  11.1622  11.1787  11.1787  11.3506  11.3506
    11.5684  11.5684  11.7405  11.7405  11.7793  11.7793  11.8468  11.8468
    11.9492  11.9492  12.0263  12.0263  12.1383  12.1383  12.2047  12.2047
    12.2492  12.2492  12.3981  12.3981  12.4499  12.4499  12.5043  12.5043
    12.5795  12.5795  12.6723  12.6723  12.7595  12.7595  12.8248  12.8248
    12.9287  12.9287  12.9830  12.9830  13.1533  13.1533  13.2319  13.2319
    13.3296  13.3296  13.5813  13.5813  13.6536  13.6536  13.7103  13.7103
    13.7785  13.7785  13.8262  13.8262  13.8606  13.8606  13.9574  13.9574
    14.0094  14.0094  14.0896  14.0896  14.2313  14.2313  14.4625  14.4625
    14.5251  14.5251  14.6073  14.6073  14.6853  14.6853  14.7009  14.7009
    14.8304  14.8304  14.9090  14.9090  14.9690  14.9690  15.0491  15.0491
    15.1168  15.1168  15.2043  15.2043  15.3879  15.3879  15.4353  15.4353
    15.5051  15.5051  15.6913  15.6913  15.8623  15.8623  15.9127  15.9127
    16.0069  16.0069  16.1418  16.1418  16.2161  16.2161  16.2796  16.2796
    16.4150  16.4150  16.5763  16.5763  16.9492  16.9492  17.3178  17.3178
    18.0153  18.0153  19.0912  19.0912  20.1426  20.1426  20.5131  20.5131
    21.0686  21.0686  21.2420  21.2420  21.9656  21.9656  22.1694  22.1694
    22.3728  22.3728  22.9477  22.9477  23.3854  23.3854  23.8621  23.8621
    24.0812  24.0812  24.3700  24.3700  24.7283  24.7283  24.9554  24.9554
    25.5340

          k = 0.2500 0.0000 0.0000 ( 17793 PWs)   bands (ev):

    -4.4562  -4.4560  -2.9033   0.2341   0.8456   0.8464   2.7892   4.0439
     4.3098   5.4838   6.2795   6.2802   6.5714   6.8411   7.0973   8.4205
     8.5290   8.6754   8.6791   9.0236   9.4167   9.7023   9.7501   9.8147
     9.8166  10.0719  10.0776  10.1443  10.2724  10.4473  10.4703  10.4720
    10.6197  10.6197  10.8825  11.0377  11.1464  11.3053  11.3326  11.3694
    11.3958  11.4115  11.4769  11.5146  11.5703  11.5858  11.6806  11.6988
    11.6998  11.8733  11.8892  11.9211  12.1216  12.1723  12.1877  12.3521
    12.3744  12.4128  12.5090  12.5102  12.6028  12.6038  12.6318  12.7173
    12.8728  12.9695  12.9757  12.9764  12.9805  13.0475  13.1259  13.1740
    13.1898  13.2575  13.2634  13.2875  13.3260  13.3664  13.3711  13.4201
    13.4401  13.5084  13.5169  13.5864  13.6431  13.6685  13.6706  13.6756
    13.7527  13.7897  13.8137  13.8838  13.8857  13.9120  13.9833  14.0237
    14.0567  14.1047  14.1688  14.2219  14.2947  14.3345  14.4062  14.4347
    14.4452  14.5199  14.5758  14.6165  14.6643  14.7190  14.7934  14.8394
    14.8901  14.9533  14.9878  15.0111  15.1036  15.1185  15.1508  15.2616
    15.2875  15.2910  15.3405  15.3908  15.4581  15.4642  15.4665  15.5667
    15.5837  15.5996  15.6131  15.7541  15.8105  15.8930  15.8991  15.9295
    16.0104  16.0163  16.0385  16.1532  16.2132  16.2288  16.2664  16.3164
    16.3274  16.7140  17.2228  17.4681  17.5771  17.6007  17.8535  17.8734
    17.8753  17.9533  18.5935  18.6647  18.8905  18.9291  19.1171  19.1876
    19.4150  19.5726  19.7298  19.7596  20.4842  20.5638  21.3920  21.3951
    21.6138  22.1041  22.6819  22.6871  23.0567  23.0612  23.3054  23.3282
    23.3857  23.5085  23.5480  23.6235  24.0133  24.0434  24.8989  24.9734
    25.1448

          k = 0.2500 0.0589 0.0000 ( 17783 PWs)   bands (ev):

    -4.5587  -4.2365  -2.8792   0.0732   0.2768   1.4493   2.5087   4.0469
     4.0912   5.5386   5.8327   6.6123   6.7267   7.1232   7.4295   8.3289
     8.4631   8.5734   8.9119   9.0543   9.4758   9.4840   9.6804   9.7880
     9.8996  10.0798  10.1797  10.2383  10.2993  10.4813  10.4877  10.4995
    10.5302  10.7483  10.9042  11.0713  11.1555  11.2822  11.3594  11.3764
    11.4276  11.4322  11.4669  11.5470  11.5922  11.6135  11.6573  11.6920
    11.7410  11.8688  11.9205  11.9275  12.1101  12.1796  12.1925  12.3390
    12.3791  12.4136  12.4955  12.5160  12.5304  12.5760  12.6444  12.7126
    12.8715  12.9106  12.9416  12.9691  12.9870  13.0367  13.1182  13.1283
    13.1799  13.1906  13.2182  13.2598  13.2903  13.3523  13.4263  13.4347
    13.4555  13.5383  13.5405  13.5755  13.6181  13.6269  13.6868  13.6948
    13.7583  13.7992  13.8059  13.8382  13.8587  13.9071  13.9551  14.0285
    14.0378  14.0901  14.1379  14.1632  14.2861  14.3371  14.3504  14.3932
    14.4456  14.4986  14.5683  14.5998  14.6385  14.7287  14.7475  14.8835
    14.9108  14.9170  15.0074  15.0087  15.0596  15.1240  15.1685  15.2407
    15.2689  15.2826  15.3595  15.3865  15.4269  15.4986  15.4991  15.5621
    15.5806  15.6284  15.6418  15.7630  15.8316  15.8695  15.8856  15.9596
    15.9763  16.0004  16.0282  16.0898  16.1220  16.2016  16.2355  16.2875
    16.5910  16.7104  17.0011  17.1557  17.3058  17.4989  17.8697  17.9187
    17.9309  18.1385  18.2566  18.7271  18.9726  19.1158  19.2578  19.3204
    19.4938  19.7804  19.8143  20.0751  20.2840  20.4427  21.6334  21.6335
    21.7203  22.0015  22.1232  22.3236  22.6400  22.7155  23.3596  23.4887
    23.5060  23.6753  23.9416  24.2027  24.2839  24.3997  24.6866  25.1365
    25.1630

          k = 0.2500 0.1179 0.0000 ( 17763 PWs)   bands (ev):

    -4.5404  -3.9047  -2.8080  -0.3834  -0.2521   1.8265   2.0793   3.6869
     4.2363   5.3963   5.6760   6.4255   7.1581   7.7436   7.8819   8.2858
     8.5889   8.7055   8.9219   9.1407   9.2198   9.6217   9.6657   9.7433
     9.8907  10.2462  10.2534  10.3362  10.4048  10.4967  10.5371  10.5894
    10.6162  10.8844  10.9594  11.1646  11.1891  11.2497  11.3745  11.4236
    11.4547  11.4735  11.5159  11.6043  11.6395  11.6444  11.6881  11.7379
    11.7683  11.8787  11.9553  11.9661  12.1062  12.1691  12.2192  12.3382
    12.3687  12.3689  12.4546  12.4596  12.5239  12.5484  12.6176  12.6770
    12.7941  12.8033  12.8989  12.9170  12.9600  13.0173  13.0475  13.0723
    13.1037  13.1261  13.1851  13.1898  13.3352  13.3720  13.4181  13.4300
    13.4570  13.5342  13.5402  13.5751  13.5968  13.6318  13.6702  13.6835
    13.7301  13.7590  13.7605  13.8152  13.8528  13.8604  13.9098  13.9687
    13.9770  14.0479  14.0801  14.1298  14.1997  14.2335  14.3182  14.3344
    14.4009  14.4857  14.5097  14.5117  14.6068  14.6386  14.7321  14.8770
    14.8843  14.9280  14.9470  14.9989  15.0662  15.1457  15.1563  15.1686
    15.2460  15.2888  15.3320  15.3852  15.4343  15.5094  15.5756  15.6248
    15.6361  15.6747  15.7107  15.7317  15.8028  15.8123  15.8574  15.8714
    15.9532  15.9579  16.0223  16.0707  16.1157  16.1359  16.1472  16.4432
    16.4538  16.5807  16.6948  16.7972  17.4121  17.4185  17.5740  17.6084
    17.8934  17.9912  18.3956  18.9535  19.1706  19.3821  19.4084  19.6216
    19.7218  19.8769  19.9319  20.0721  20.7438  20.9805  21.3528  21.5535
    21.6909  21.8131  22.1020  22.1756  22.1946  22.4884  23.1461  23.5181
    23.8062  23.8314  24.1158  24.6267  24.9325  25.0188  25.1716  25.2141
    25.4206

          k = 0.2500 0.1768 0.0000 ( 17751 PWs)   bands (ev):

    -4.3979  -3.4658  -2.6957  -1.0335  -0.7362   0.9770   2.7263   3.5214
     4.4781   4.9804   5.8930   6.1269   7.3268   7.5969   8.1687   8.5072
     8.7910   8.9203   9.2289   9.2635   9.2849   9.5893   9.6158   9.8615
    10.0686  10.2757  10.3567  10.3602  10.5629  10.6101  10.6185  10.7109
    10.8449  10.9765  11.0207  11.2324  11.2377  11.3167  11.3400  11.4089
    11.4754  11.5046  11.5743  11.6356  11.6568  11.7532  11.7641  11.8203
    11.8669  11.8856  12.0069  12.0098  12.1263  12.1485  12.2364  12.2559
    12.3490  12.4181  12.4351  12.4864  12.5281  12.5629  12.5664  12.6176
    12.6873  12.7042  12.7990  12.8533  12.9055  12.9829  12.9832  13.0435
    13.0566  13.0904  13.1769  13.1789  13.2821  13.3544  13.3569  13.4312
    13.4347  13.4826  13.4828  13.5372  13.5491  13.6180  13.6223  13.6776
    13.6907  13.7022  13.7637  13.7714  13.8236  13.8342  13.8627  13.8856
    13.9211  13.9444  14.0361  14.0844  14.1203  14.1890  14.1923  14.3223
    14.3224  14.4345  14.4434  14.5144  14.5635  14.5678  14.6864  14.7342
    14.8019  14.8912  14.9220  14.9799  15.0534  15.0871  15.1422  15.1431
    15.1833  15.2881  15.3541  15.3614  15.4477  15.5251  15.5783  15.5795
    15.6555  15.6561  15.6986  15.7228  15.7634  15.8166  15.8400  15.8495
    15.8993  15.9095  15.9750  15.9825  16.0651  16.0937  16.0957  16.2656
    16.3099  16.5953  16.7103  16.7500  16.9930  17.2605  17.3321  17.8483
    18.0648  18.1926  18.4715  18.5871  19.0941  19.3990  19.6296  19.6780
    19.9971  20.2169  20.3750  20.4524  20.7748  21.0647  21.2913  21.4378
    21.6720  21.7827  22.0326  22.2526  22.3465  22.5729  23.0172  23.5902
    23.7543  23.9022  24.0919  25.1311  25.2581  25.2734  25.4482  25.6961
    26.0591

          k = 0.2500 0.2357 0.0000 ( 17768 PWs)   bands (ev):

    -4.1304  -2.9252  -2.5767  -1.7103  -1.1709   0.0918   3.3763   3.5405
     4.5959   4.8094   5.7232   6.1899   6.7856   7.9393   8.0003   8.3990
     9.0537   9.2035   9.3306   9.3758   9.5223   9.5588   9.9022  10.0158
    10.2183  10.2848  10.2979  10.5623  10.6330  10.7104  10.8190  10.8636
    10.9424  11.0254  11.0508  11.1475  11.2342  11.3649  11.3760  11.4916
    11.5410  11.5471  11.5673  11.7057  11.7083  11.8121  11.8280  11.8800
    11.9363  11.9994  12.0703  12.1165  12.1472  12.1743  12.2448  12.3022
    12.3878  12.3959  12.4274  12.4437  12.5269  12.5283  12.5872  12.6133
    12.6695  12.7189  12.7190  12.7594  12.8405  12.8938  12.9633  13.0009
    13.0038  13.0765  13.1160  13.1524  13.2421  13.2744  13.3128  13.3517
    13.3780  13.3909  13.4590  13.4717  13.5120  13.5259  13.5811  13.6018
    13.6479  13.6533  13.6923  13.6976  13.7660  13.8003  13.8407  13.8807
    13.9123  13.9147  13.9905  14.0767  14.1255  14.1545  14.2100  14.2552
    14.3564  14.3704  14.4342  14.5094  14.5352  14.5778  14.6090  14.7057
    14.7419  14.7839  14.8413  14.9394  15.0012  15.0120  15.0922  15.1495
    15.1685  15.2526  15.2573  15.3211  15.3646  15.4274  15.4627  15.5087
    15.5257  15.6244  15.6253  15.6850  15.7341  15.7908  15.8019  15.8609
    15.8835  15.9015  15.9803  16.0319  16.0381  16.1267  16.1375  16.2647
    16.2900  16.5200  16.7023  16.7388  16.9912  17.1168  17.3230  18.0702
    18.1521  18.3577  18.3977  18.5099  18.8227  19.2148  19.6020  19.9237
    20.0236  20.2386  20.2815  20.6274  20.7610  21.0980  21.4855  21.6251
    21.9090  22.0001  22.1967  22.3504  22.4295  22.7065  22.9972  23.6637
    23.9403  24.0794  24.4490  25.1175  25.4590  25.4929  25.6880  25.7424
    25.7474

          k = 0.2500 0.2946 0.0000 ( 17790 PWs)   bands (ev):

    -3.7410  -2.7225  -2.2894  -2.0430  -1.5511  -0.7664   3.6870   3.9840
     4.2827   5.2186   5.2303   6.2288   6.5617   7.4862   8.2249   8.4725
     9.3209   9.3795   9.4139   9.4667   9.5183   9.6433  10.0270  10.0340
    10.2258  10.3757  10.4573  10.4914  10.7208  10.7683  10.8119  10.8781
    10.9456  10.9653  11.1450  11.1899  11.2632  11.3570  11.5034  11.5692
    11.5935  11.6285  11.6769  11.7433  11.7619  11.8288  11.8516  11.9336
    11.9941  12.0370  12.1229  12.1246  12.2123  12.2368  12.3453  12.3507
    12.3912  12.4272  12.4418  12.4429  12.5127  12.5402  12.5757  12.5875
    12.6266  12.6828  12.7234  12.7637  12.8432  12.8438  12.8776  12.9349
    12.9763  13.0302  13.0653  13.0753  13.1364  13.2088  13.2161  13.2522
    13.2737  13.3073  13.3403  13.4588  13.4689  13.5131  13.5567  13.5597
    13.5948  13.6225  13.6393  13.6922  13.7172  13.8032  13.8066  13.8612
    13.8673  13.9648  13.9860  14.0788  14.1077  14.1981  14.2510  14.2559
    14.3636  14.4379  14.4452  14.5128  14.5184  14.6083  14.6219  14.7008
    14.7017  14.7592  14.8059  14.8093  14.8820  14.9394  14.9936  15.0647
    15.0972  15.1539  15.2051  15.2299  15.2598  15.3561  15.4169  15.5624
    15.5892  15.6443  15.6753  15.6789  15.7549  15.8117  15.8350  15.8508
    15.9011  15.9718  16.0214  16.0504  16.1292  16.1552  16.1785  16.2375
    16.2958  16.3701  16.4876  16.9887  17.0049  17.3346  17.4379  17.7010
    18.0199  18.2321  18.5511  18.6135  18.7423  18.8879  19.5789  19.7678
    19.8116  20.2044  20.3761  20.6555  20.7624  21.0864  21.5489  21.8977
    22.0718  22.1689  22.4724  22.5028  22.7573  22.9121  23.0734  23.6319
    24.4256  24.7171  24.8535  24.8537  25.0881  25.1861  25.6468  25.6877
    25.8111

          k = 0.2500-0.3536 0.0000 ( 17788 PWs)   bands (ev):

    -3.2447  -3.2447  -1.8650  -1.8650  -1.5659  -1.5659   3.9161   3.9161
     4.6669   4.6669   5.6996   5.6996   6.9990   6.9990   8.4105   8.4105
     9.3911   9.3912   9.4602   9.4602   9.7410   9.7410  10.0301  10.0301
    10.1386  10.1386  10.6242  10.6242  10.6788  10.6788  10.8919  10.8919
    10.9329  10.9329  11.2154  11.2154  11.2916  11.2916  11.5474  11.5474
    11.6614  11.6614  11.7622  11.7622  11.8226  11.8226  11.9244  11.9244
    12.0031  12.0031  12.1127  12.1127  12.2568  12.2568  12.3673  12.3673
    12.4082  12.4082  12.4507  12.4507  12.5632  12.5632  12.6153  12.6153
    12.6657  12.6657  12.7068  12.7068  12.8329  12.8329  12.8816  12.8816
    12.9648  12.9648  13.0277  13.0277  13.0989  13.0989  13.1956  13.1956
    13.2119  13.2119  13.3793  13.3793  13.5090  13.5090  13.5392  13.5392
    13.6408  13.6408  13.6829  13.6829  13.7618  13.7618  13.8084  13.8084
    13.8645  13.8645  13.9791  13.9791  14.2153  14.2153  14.2757  14.2757
    14.4306  14.4306  14.5201  14.5201  14.5804  14.5804  14.6542  14.6542
    14.7282  14.7282  14.7595  14.7595  14.8207  14.8207  14.8852  14.8852
    15.1019  15.1019  15.1968  15.1968  15.3089  15.3089  15.4957  15.4957
    15.6496  15.6496  15.7313  15.7313  15.7702  15.7702  15.8802  15.8802
    15.9948  15.9948  16.0945  16.0945  16.2310  16.2310  16.2389  16.2389
    16.3157  16.3157  16.6171  16.6171  17.2289  17.2289  17.6636  17.6636
    17.8972  17.8972  18.3930  18.3930  19.1524  19.1524  19.3099  19.3099
    20.0609  20.0609  20.4695  20.4695  21.1046  21.1046  21.5474  21.5474
    22.2518  22.2518  22.6066  22.6066  22.9488  22.9488  23.7688  23.7688
    24.0533  24.0533  25.2675  25.2675  25.4388  25.4389  25.4996  25.4999
    25.7556

          k = 0.3750 0.0000 0.0000 ( 17794 PWs)   bands (ev):

    -4.4395  -4.4394  -2.9101   0.2632   0.8481   0.8489   2.8067   4.0754
     4.2775   6.0566   6.3848   6.3857   6.6135   6.9386   7.1526   8.5158
     8.6570   8.6605   8.7227   8.8965   9.6601   9.6631   9.7385   9.8720
    10.0636  10.0663  10.1363  10.2423  10.3682  10.4842  10.4868  10.5264
    10.6933  10.7164  10.7226  10.8953  11.0413  11.1848  11.2375  11.2919
    11.3551  11.3870  11.4698  11.6333  11.6446  11.7297  11.8573  11.9077
    11.9446  11.9964  12.1313  12.1650  12.1848  12.2631  12.4572  12.4606
    12.5366  12.5401  12.5675  12.5956  12.7425  12.7638  12.8578  12.8788
    12.8910  12.9618  12.9880  13.0241  13.0414  13.0614  13.0724  13.1352
    13.1517  13.1709  13.2075  13.2537  13.3085  13.3230  13.3524  13.3935
    13.4293  13.4366  13.5256  13.5452  13.5678  13.6248  13.6343  13.7091
    13.7209  13.7441  13.7905  13.8079  13.8319  13.9478  14.0075  14.0383
    14.0507  14.0610  14.1206  14.1929  14.2050  14.2495  14.3212  14.3517
    14.4012  14.4067  14.5869  14.6213  14.6384  14.7224  14.8221  14.8232
    14.8291  14.8436  15.0148  15.0150  15.0229  15.0399  15.1547  15.2130
    15.2300  15.2301  15.2461  15.3106  15.3389  15.3801  15.3884  15.5396
    15.5538  15.6045  15.6496  15.7067  15.7721  15.8825  15.8827  15.9491
    15.9686  16.0133  16.0289  16.0390  16.0884  16.1496  16.2051  16.2236
    16.3264  16.4054  16.4062  16.6477  17.1555  17.1945  17.3118  17.5768
    17.7473  18.0089  18.0290  18.1052  18.6283  18.6376  18.8234  19.5857
    19.8097  19.8682  20.0683  20.2925  20.5365  21.2519  21.2865  21.4385
    21.4785  21.4787  21.7198  21.7920  21.9355  22.0621  22.1716  22.2199
    22.7369  22.7563  23.4633  23.5808  23.6064  23.7009  24.4506  24.4601
    24.7617

          k = 0.3750 0.0589 0.0000 ( 17796 PWs)   bands (ev):

    -4.5441  -4.2179  -2.8861   0.0953   0.2771   1.4542   2.5309   4.0452
     4.1514   5.9510   6.0965   6.5689   6.8131   7.2300   7.4651   8.3405
     8.5603   8.7684   8.8711   9.0023   9.4634   9.7185   9.8101   9.9058
     9.9155  10.1527  10.2010  10.2812  10.4277  10.4857  10.5262  10.5631
    10.5889  10.7245  10.8901  10.9273  11.0680  11.1845  11.2739  11.3171
    11.3884  11.4027  11.4861  11.6452  11.6459  11.7312  11.8599  11.9231
    11.9518  12.0134  12.1239  12.1679  12.1791  12.2814  12.4359  12.4596
    12.5155  12.5341  12.5484  12.6064  12.7169  12.7646  12.8177  12.8731
    12.8796  12.9157  12.9759  12.9781  12.9901  13.0633  13.0946  13.1259
    13.1396  13.1799  13.1988  13.2275  13.2757  13.3193  13.3278  13.3910
    13.4340  13.4392  13.5203  13.5210  13.5814  13.6076  13.6409  13.6613
    13.7036  13.7574  13.7748  13.8254  13.8493  13.8773  13.9470  14.0190
    14.0372  14.0661  14.1299  14.1676  14.1970  14.2188  14.3158  14.3476
    14.3504  14.4348  14.5295  14.5989  14.6612  14.7157  14.7674  14.7757
    14.8368  14.8663  14.9687  14.9963  15.0538  15.0546  15.1078  15.1333
    15.2077  15.2224  15.2619  15.2725  15.3095  15.3842  15.4488  15.5315
    15.5564  15.6249  15.6476  15.7323  15.7614  15.8250  15.8726  15.9439
    15.9786  15.9849  16.0407  16.0488  16.0972  16.0973  16.1722  16.1858
    16.2209  16.4551  16.5743  16.7392  16.9418  17.2806  17.3637  17.4430
    17.6543  17.7858  17.8586  18.2676  18.7153  18.8433  19.0413  19.2642
    19.5379  19.8987  20.3758  20.5554  20.5741  20.9011  21.1065  21.2070
    21.2900  21.4729  21.4926  21.7312  22.1255  22.3589  22.5323  22.7579
    23.0831  23.3746  23.4904  23.5075  23.6010  23.8402  24.1231  24.5140
    24.8011

          k = 0.3750 0.1179 0.0000 ( 17793 PWs)   bands (ev):

    -4.5278  -3.8841  -2.8151  -0.3740  -0.2540   1.8553   2.0863   3.7666
     4.2872   5.5235   6.2149   6.3868   7.2167   7.6354   7.9219   8.3226
     8.6922   8.8964   8.9423   9.2601   9.3124   9.6749   9.7749   9.9190
     9.9881  10.2087  10.2976  10.3904  10.5165  10.5341  10.6050  10.6098
    10.6785  10.8108  11.0158  11.0519  11.1398  11.1942  11.3655  11.3754
    11.4519  11.4689  11.5493  11.6529  11.6608  11.7515  11.8493  11.9610
    11.9848  12.0407  12.1136  12.1498  12.2113  12.3055  12.3662  12.4470
    12.4592  12.5188  12.5539  12.6251  12.6295  12.7128  12.7417  12.8205
    12.8374  12.8523  12.9448  12.9464  12.9728  12.9958  13.0790  13.0931
    13.1325  13.1537  13.1885  13.1977  13.2692  13.2999  13.3364  13.3545
    13.3938  13.4354  13.4553  13.5017  13.5802  13.5897  13.6167  13.6588
    13.6621  13.7249  13.7296  13.7683  13.8563  13.8767  13.9246  13.9358
    13.9680  14.0348  14.0430  14.0927  14.1409  14.2322  14.2414  14.3269
    14.3307  14.4108  14.5235  14.5270  14.6047  14.6289  14.6870  14.6886
    14.7802  14.7911  14.8746  14.9175  14.9653  14.9980  14.9998  15.0867
    15.1518  15.1922  15.2357  15.3135  15.3630  15.4057  15.4625  15.5482
    15.6026  15.6252  15.6504  15.7004  15.7162  15.7971  15.8509  15.8717
    15.9148  15.9527  15.9693  16.0016  16.0460  16.0928  16.1061  16.2844
    16.3831  16.4137  16.6577  16.6863  16.8906  16.9347  17.3981  17.5928
    17.7458  17.8809  17.9458  17.9510  18.2947  18.9819  19.1398  19.3499
    19.4399  19.9847  20.2204  20.3987  20.6230  20.6928  20.8888  21.1220
    21.2450  21.5383  21.7119  21.8304  22.5769  22.9585  23.1123  23.3784
    23.5514  23.5695  23.6636  23.7241  23.9735  24.1144  24.2248  24.5554
    24.9146

          k = 0.3750 0.1768 0.0000 ( 17788 PWs)   bands (ev):

    -4.3875  -3.4431  -2.7031  -1.0315  -0.7397   1.0087   2.7349   3.6395
     4.5347   5.1133   6.0913   6.4208   7.3943   7.6038   7.9056   8.7144
     8.9060   9.0933   9.2159   9.2409   9.6263   9.6588   9.6638  10.0026
    10.0822  10.3412  10.3504  10.5355  10.5510  10.5898  10.7039  10.8013
    10.9212  10.9586  11.1314  11.1414  11.2369  11.2489  11.3692  11.5066
    11.5099  11.5693  11.6105  11.6357  11.7638  11.7852  11.8119  11.9313
    12.0590  12.0712  12.1181  12.1662  12.2470  12.2717  12.2998  12.4618
    12.4938  12.5229  12.5330  12.5948  12.6467  12.6602  12.6892  12.7672
    12.8068  12.8378  12.9216  12.9377  12.9617  12.9648  13.0047  13.0491
    13.0902  13.1150  13.1700  13.1808  13.1958  13.2394  13.2907  13.3350
    13.3403  13.3941  13.4133  13.5045  13.5305  13.5528  13.5865  13.6282
    13.6705  13.7071  13.7218  13.7320  13.7895  13.8225  13.8378  13.9086
    13.9378  13.9495  13.9915  14.0007  14.0981  14.1908  14.1921  14.2120
    14.2585  14.3149  14.4105  14.4327  14.4732  14.5500  14.5564  14.6208
    14.6841  14.7065  14.7813  14.8025  14.8606  14.8958  14.9137  15.0603
    15.0686  15.1629  15.2166  15.2794  15.3628  15.4195  15.4493  15.4687
    15.5502  15.5979  15.6328  15.6710  15.7010  15.7670  15.7761  15.8204
    15.8285  15.8628  15.9405  16.0006  16.1017  16.1078  16.1452  16.2310
    16.3849  16.4336  16.6356  16.7074  16.7779  17.2229  17.5369  17.5790
    17.7310  17.9424  17.9722  18.0327  18.2439  18.6584  18.8082  19.1127
    19.7610  19.8567  19.9848  20.1160  20.1716  20.6900  20.9026  21.5038
    21.6269  21.7410  22.0302  22.2409  22.7798  23.1462  23.5128  23.6506
    23.6936  23.7745  23.8205  24.1743  24.4561  24.7419  24.8329  25.0784
    25.0863

          k = 0.3750 0.2357 0.0000 ( 17756 PWs)   bands (ev):

    -4.1222  -2.9004  -2.5840  -1.7099  -1.1757   0.1237   3.3869   3.6766
     4.7308   4.8738   5.6993   6.6949   6.8639   7.8650   8.0723   8.3383
     9.1861   9.3143   9.3492   9.5725   9.5989   9.7551   9.8641  10.0788
    10.1813  10.3130  10.5628  10.5987  10.6644  10.7337  10.7844  10.9760
    11.0032  11.0181  11.2114  11.2184  11.3173  11.3752  11.4030  11.4763
    11.6085  11.6593  11.7109  11.7569  11.7622  11.7932  11.9061  11.9206
    12.0455  12.0835  12.1875  12.2176  12.2533  12.2991  12.3569  12.4740
    12.4862  12.5203  12.5852  12.6081  12.6721  12.6956  12.7070  12.7892
    12.8103  12.8202  12.8451  12.8825  12.8932  12.9269  12.9513  13.0128
    13.0243  13.1009  13.1034  13.1642  13.1866  13.2401  13.2570  13.2886
    13.3061  13.3421  13.3671  13.4568  13.4670  13.5171  13.5295  13.5377
    13.6142  13.6171  13.6845  13.7357  13.7445  13.7711  13.7998  13.8203
    13.9115  13.9293  13.9326  14.0041  14.0078  14.0614  14.0863  14.1495
    14.1906  14.2819  14.3106  14.3137  14.3940  14.4222  14.5157  14.5700
    14.6448  14.6676  14.6949  14.7392  14.7850  14.8214  14.9302  14.9420
    15.0327  15.0861  15.1822  15.1884  15.2658  15.3067  15.3752  15.4173
    15.4358  15.5252  15.5781  15.5978  15.6455  15.7243  15.7697  15.7908
    15.8272  15.9870  15.9976  16.0932  16.1035  16.1335  16.1373  16.2119
    16.2266  16.3986  16.6878  16.9254  17.0676  17.2634  17.5208  17.5751
    17.7984  17.8005  18.2048  18.2703  18.2719  18.4272  18.5924  18.7313
    19.3379  19.5169  19.6971  20.2428  20.2520  20.3004  21.2035  21.6537
    21.7789  21.7995  22.5347  22.6190  23.0213  23.2056  23.4163  23.8547
    23.9382  24.0041  24.4555  24.8127  25.0070  25.1754  25.4101  25.4708
    25.5729

          k = 0.3750 0.2946 0.0000 ( 17761 PWs)   bands (ev):

    -3.7353  -2.7246  -2.2624  -2.0464  -1.5566  -0.7357   3.8312   4.0167
     4.3955   5.2137   5.2934   6.3103   7.0359   7.8260   8.1367   8.1664
     9.4181   9.4290   9.5179   9.6273   9.6860   9.7136  10.1280  10.2062
    10.2239  10.2526  10.4583  10.5895  10.8101  10.8366  10.8709  10.9047
    11.0059  11.1690  11.1773  11.3118  11.3760  11.4641  11.5519  11.5609
    11.6933  11.6947  11.7536  11.7779  11.8463  11.9124  11.9386  11.9643
    12.0313  12.1404  12.1798  12.2355  12.2664  12.3009  12.4075  12.4604
    12.5196  12.5558  12.5707  12.6356  12.6436  12.6912  12.7509  12.7586
    12.7824  12.7911  12.8079  12.8853  12.8890  12.9384  12.9492  13.0015
    13.0504  13.0583  13.0727  13.1124  13.1538  13.1690  13.2103  13.2502
    13.2566  13.2865  13.3279  13.3681  13.4314  13.4362  13.4903  13.4906
    13.5628  13.5890  13.6256  13.6385  13.6876  13.7026  13.7651  13.7715
    13.8333  13.8655  13.9000  13.9134  13.9391  14.0441  14.0955  14.1776
    14.2296  14.2831  14.2912  14.3298  14.3748  14.4497  14.4780  14.5138
    14.5293  14.5913  14.6277  14.6805  14.7041  14.7770  14.8258  14.9347
    14.9847  15.0931  15.1179  15.1548  15.2375  15.3086  15.3235  15.4255
    15.4664  15.5082  15.5434  15.5965  15.6649  15.7163  15.7301  15.8209
    15.9073  15.9591  16.0061  16.0082  16.0720  16.1567  16.1824  16.2668
    16.4429  16.6237  16.6322  16.9958  17.2464  17.2814  17.3760  17.3982
    17.8249  17.8989  18.0667  18.1480  18.2907  18.4311  18.5704  18.9555
    18.9714  19.0680  19.2531  19.8011  20.5224  20.6526  21.2378  21.4116
    21.5789  22.0211  22.4581  22.7742  23.3989  23.7312  24.0024  24.0514
    24.1458  24.5242  24.6716  24.8397  25.2575  25.5915  25.8215  25.9976
    26.1668

          k = 0.3750-0.3536 0.0000 ( 17776 PWs)   bands (ev):

    -3.2420  -3.2420  -1.8706  -1.8706  -1.5370  -1.5370   4.0645   4.0645
     4.6592   4.6593   5.7783   5.7783   7.4272   7.4272   8.1874   8.1874
     9.4811   9.4811   9.5556   9.5556   9.9351   9.9351  10.0468  10.0468
    10.2289  10.2289  10.4716  10.4716  10.8751  10.8751  10.9303  10.9303
    11.0811  11.0811  11.2892  11.2892  11.4268  11.4268  11.6508  11.6508
    11.7061  11.7061  11.7583  11.7583  11.9418  11.9418  11.9887  11.9887
    12.0610  12.0610  12.2030  12.2030  12.2515  12.2515  12.4738  12.4738
    12.5342  12.5342  12.6197  12.6197  12.6785  12.6785  12.7535  12.7535
    12.7836  12.7836  12.8548  12.8548  12.9145  12.9145  12.9529  12.9529
    13.0267  13.0267  13.0940  13.0940  13.1158  13.1158  13.2059  13.2059
    13.2534  13.2534  13.3049  13.3049  13.3913  13.3913  13.4836  13.4836
    13.5488  13.5488  13.6200  13.6200  13.6760  13.6760  13.7429  13.7429
    13.8195  13.8195  13.8562  13.8562  14.0131  14.0131  14.2111  14.2111
    14.2536  14.2536  14.3574  14.3574  14.4054  14.4054  14.4363  14.4363
    14.4968  14.4968  14.6579  14.6579  14.6653  14.6653  14.8036  14.8036
    15.0422  15.0422  15.1629  15.1629  15.2118  15.2118  15.3947  15.3948
    15.4575  15.4575  15.6323  15.6323  15.7042  15.7042  15.8546  15.8546
    15.9048  15.9048  16.0369  16.0369  16.1488  16.1488  16.4550  16.4550
    16.5783  16.5783  16.8101  16.8101  16.9480  16.9480  17.5748  17.5748
    17.7051  17.7051  17.9928  17.9928  18.5564  18.5564  18.7097  18.7097
    18.8841  18.8841  19.3746  19.3746  20.8403  20.8403  21.0273  21.0273
    22.0060  22.0060  22.3673  22.3673  24.0885  24.0885  24.2933  24.2933
    24.3819  24.3819  24.8700  24.8700  25.1088  25.1088  26.0567  26.0567
    26.3406

          k =-0.5000 0.0000 0.0000 ( 17814 PWs)   bands (ev):

    -4.4327  -4.4325  -2.9129   0.2754   0.8493   0.8501   2.8146   4.0754
     4.2644   6.4281   6.4292   6.4492   6.6187   7.0176   7.1754   8.4646
     8.5155   8.6506   8.6540   8.8524   9.5995   9.6030   9.7337  10.0534
    10.0542  10.0964  10.3927  10.4951  10.5014  10.5019  10.6134  10.7299
    10.7670  10.7825  10.7827  10.8575  10.8666  10.9233  11.0040  11.1264
    11.2348  11.3762  11.5058  11.6334  11.6365  11.8349  11.9988  12.0820
    12.0942  12.1280  12.1591  12.3504  12.3898  12.4115  12.5438  12.5499
    12.5784  12.6012  12.6057  12.6510  12.7638  12.7795  12.8417  12.8842
    12.9175  12.9468  12.9824  12.9875  13.0045  13.0376  13.0605  13.0849
    13.0933  13.1100  13.1734  13.1840  13.2417  13.2843  13.2907  13.3309
    13.3802  13.4062  13.5098  13.5285  13.5294  13.5509  13.6153  13.6567
    13.7224  13.7649  13.7650  13.7751  13.8142  13.8673  14.0105  14.0200
    14.0213  14.0512  14.1346  14.1346  14.1992  14.2830  14.3572  14.3950
    14.4156  14.5036  14.5059  14.6315  14.6362  14.6779  14.6800  14.7094
    14.7960  14.8583  14.8636  14.9064  14.9997  15.0957  15.1988  15.2075
    15.2112  15.2801  15.3458  15.4019  15.4025  15.4932  15.6089  15.6518
    15.6607  15.6695  15.7206  15.7371  15.8222  15.9346  15.9695  15.9722
    16.0160  16.0181  16.0240  16.0632  16.1170  16.1171  16.1471  16.1765
    16.1916  16.2316  16.4122  16.5024  16.5098  16.6660  16.6838  16.7200
    17.6985  18.0296  18.1456  18.1773  18.3005  18.6193  18.7487  19.2450
    20.1035  20.1178  20.4435  20.5530  20.9485  21.0919  21.1192  21.1819
    21.2043  21.2757  21.3583  21.3879  21.4994  21.9074  22.3112  22.5284
    22.6055  22.6161  22.6957  22.8613  23.6607  23.7046  24.0587  24.2169
    24.8230

          k =-0.5000 0.0589 0.0000 ( 17814 PWs)   bands (ev):

    -4.5381  -4.2102  -2.8889   0.1045   0.2773   1.4564   2.5406   4.0390
     4.1689   6.0013   6.4942   6.5453   6.8460   7.3091   7.4353   8.3417
     8.5583   8.6177   8.8638   8.8950   9.4814   9.6804   9.7211   9.9157
    10.1295  10.1809  10.4594  10.5058  10.5271  10.5325  10.6191  10.6447
    10.7624  10.8118  10.8929  10.9021  10.9564  10.9581  11.0465  11.1394
    11.2742  11.3889  11.5028  11.6350  11.6433  11.8444  12.0098  12.0619
    12.1075  12.1320  12.1658  12.3562  12.3785  12.4477  12.4896  12.5415
    12.5737  12.6217  12.6303  12.6530  12.6632  12.7987  12.8225  12.8788
    12.9053  12.9187  12.9327  12.9766  12.9862  13.0106  13.0398  13.0608
    13.0944  13.1259  13.1436  13.1851  13.1926  13.2816  13.3077  13.3708
    13.3902  13.4133  13.4858  13.5018  13.5328  13.5379  13.5851  13.6245
    13.6789  13.7381  13.7486  13.7721  13.8210  13.8973  13.9579  13.9756
    14.0141  14.0425  14.1047  14.1355  14.2433  14.2614  14.3503  14.3723
    14.4054  14.4640  14.4902  14.5679  14.6182  14.6801  14.6866  14.7242
    14.7759  14.8219  14.9457  14.9637  15.0101  15.0634  15.1058  15.1709
    15.2467  15.3037  15.3507  15.3612  15.4277  15.4844  15.5254  15.5725
    15.6101  15.6239  15.6383  15.7149  15.7819  15.8031  15.8705  15.9120
    15.9228  15.9950  16.0134  16.0539  16.1262  16.1596  16.1811  16.1857
    16.2342  16.3023  16.3446  16.3624  16.7035  16.7216  16.9729  17.0046
    17.6109  17.7433  17.8266  18.2020  18.5450  18.5835  18.6764  19.2552
    19.7124  19.9548  20.0922  20.5424  20.8866  21.1104  21.1603  21.1683
    21.4755  21.5045  21.6679  21.8860  21.9380  21.9591  22.2130  22.4429
    22.6297  22.6588  22.7112  23.2976  23.5682  23.8969  24.0772  24.4028
    24.7812

          k =-0.5000 0.1179 0.0000 ( 17794 PWs)   bands (ev):

    -4.5226  -3.8756  -2.8181  -0.3702  -0.2547   1.8675   2.0896   3.7963
     4.3020   5.5781   6.3608   6.6180   7.2343   7.5260   7.9288   8.3232
     8.6909   8.9852   8.9989   9.0480   9.2788   9.6883   9.7612   9.7851
    10.2342  10.2818  10.5319  10.5567  10.5866  10.6202  10.6554  10.7431
    10.8520  10.8942  10.9884  11.0103  11.0511  11.0909  11.1688  11.1743
    11.3913  11.4252  11.4943  11.6325  11.6555  11.8708  12.0056  12.0635
    12.1405  12.1494  12.1874  12.3334  12.3748  12.3864  12.5053  12.5104
    12.5326  12.5767  12.6233  12.6507  12.6823  12.7189  12.7693  12.7777
    12.8258  12.8835  12.9186  12.9287  12.9571  12.9860  13.0008  13.0566
    13.0925  13.1180  13.1449  13.1616  13.2231  13.2802  13.3266  13.3335
    13.4226  13.4321  13.4417  13.4512  13.4901  13.5083  13.5364  13.5559
    13.6175  13.6551  13.7617  13.7875  13.7961  13.8430  13.8479  13.9004
    14.0218  14.0444  14.0662  14.0997  14.1488  14.2579  14.3119  14.3400
    14.4331  14.4485  14.4899  14.5239  14.5396  14.5839  14.6945  14.7306
    14.7486  14.7573  14.8581  14.9171  14.9580  15.0092  15.0646  15.0648
    15.1842  15.1975  15.2572  15.2829  15.3311  15.3852  15.4578  15.4819
    15.5089  15.5166  15.5466  15.6697  15.7233  15.7643  15.8248  15.8561
    15.8877  15.9013  15.9240  16.0505  16.0593  16.0943  16.1208  16.1754
    16.3224  16.3957  16.4893  16.6615  16.7369  17.0892  17.1510  17.2655
    17.4263  17.4778  17.8356  17.8646  18.3637  18.5248  19.0070  19.1595
    19.2873  19.5160  19.6103  19.9018  20.9160  21.3160  21.3962  21.5275
    21.8595  21.9014  22.0336  22.1223  22.2399  22.3284  22.6690  22.6716
    22.7601  23.0400  23.1038  23.3855  23.9480  24.1858  24.4309  24.8751
    25.0674

          k =-0.5000 0.1768 0.0000 ( 17756 PWs)   bands (ev):

    -4.3832  -3.4337  -2.7062  -1.0307  -0.7411   1.0220   2.7395   3.6887
     4.5514   5.1702   6.0749   6.8174   7.4333   7.5672   7.6945   8.9051
     8.9844   9.0947   9.1874   9.2107   9.4124   9.6484   9.6756   9.8627
    10.3454  10.3859  10.5362  10.6167  10.6537  10.7508  10.8201  10.9652
    11.0169  11.0320  11.1253  11.1591  11.1865  11.2042  11.2063  11.3568
    11.4600  11.4955  11.5092  11.6096  11.6536  11.8898  11.9375  12.1311
    12.1639  12.2179  12.2362  12.2606  12.2980  12.3723  12.3906  12.5310
    12.5366  12.5730  12.6043  12.6525  12.6794  12.7207  12.7638  12.7717
    12.7783  12.8534  12.8789  12.9268  12.9404  12.9474  12.9542  13.0556
    13.0662  13.1013  13.1411  13.1679  13.2458  13.2539  13.3091  13.3156
    13.3491  13.3517  13.4224  13.4349  13.4523  13.4887  13.5050  13.5572
    13.6012  13.6379  13.6438  13.7119  13.7485  13.7950  13.8050  13.9120
    13.9392  13.9975  14.0031  14.0775  14.1024  14.2040  14.2466  14.2513
    14.3419  14.3565  14.4240  14.4297  14.5666  14.6075  14.6218  14.6531
    14.6790  14.6959  14.7429  14.7685  14.7812  14.7906  14.8814  14.8907
    14.9495  15.0027  15.1633  15.1944  15.2786  15.3171  15.3517  15.4052
    15.4678  15.4783  15.5699  15.6109  15.7039  15.7544  15.7907  15.8145
    15.8397  15.8868  15.9239  15.9888  16.0107  16.0697  16.1140  16.2618
    16.3299  16.6325  16.6425  16.6888  16.9294  17.0627  17.1647  17.1698
    17.4791  17.6797  17.9356  18.1226  18.1479  18.3054  18.7126  19.0161
    19.2164  19.3001  19.3679  19.4090  20.4955  21.0548  21.4886  21.5621
    21.8355  22.2034  22.5959  22.6689  22.7445  22.8492  22.8673  23.1502
    23.4948  23.6964  23.7963  23.9873  24.3504  24.4499  24.6758  24.9387
    24.9503

          k =-0.5000 0.2357 0.0000 ( 17778 PWs)   bands (ev):

    -4.1189  -2.8901  -2.5870  -1.7098  -1.1777   0.1370   3.3932   3.7360
     4.7875   4.8927   5.6860   6.8900   7.0887   7.8116   7.8241   8.6188
     9.1870   9.1939   9.4513   9.5899   9.5939   9.6228   9.8193   9.9846
    10.3420  10.4419  10.5582  10.6797  10.7316  10.8893  10.9424  11.0160
    11.0496  11.1502  11.2386  11.3064  11.3300  11.3923  11.4142  11.4262
    11.4878  11.5371  11.5983  11.6919  11.7430  11.8198  11.9517  12.0569
    12.1809  12.2116  12.2410  12.3216  12.3535  12.4034  12.4082  12.5323
    12.5413  12.5951  12.6400  12.6684  12.6934  12.7022  12.7162  12.7658
    12.7925  12.8309  12.8679  12.9334  12.9449  12.9850  12.9860  13.0162
    13.0437  13.1238  13.1264  13.1716  13.2068  13.2169  13.2247  13.2582
    13.3244  13.3459  13.3653  13.3733  13.4027  13.4739  13.4881  13.5173
    13.5787  13.6244  13.6891  13.7237  13.7273  13.7678  13.7852  13.8025
    13.8919  13.9044  13.9742  14.0038  14.0374  14.1061  14.1425  14.1625
    14.2154  14.2473  14.2658  14.3570  14.3650  14.4191  14.5371  14.5569
    14.5708  14.6251  14.6349  14.6369  14.6915  14.7122  14.7611  14.8547
    14.9773  14.9920  15.0239  15.0884  15.1922  15.2032  15.2794  15.3415
    15.4357  15.4505  15.5157  15.5626  15.6340  15.7320  15.7630  15.7695
    15.8761  15.9114  15.9232  15.9833  15.9988  16.0751  16.1495  16.2933
    16.3894  16.4901  16.8499  16.9220  16.9889  17.0435  17.1988  17.2284
    17.4514  17.8583  18.0039  18.0432  18.3075  18.3439  18.6137  18.6785
    18.7462  18.9000  19.3874  19.6974  20.1347  20.7085  20.8648  21.2551
    21.9029  22.4545  22.8555  22.9861  23.4944  23.5057  23.6810  23.9072
    24.0883  24.1107  24.1537  24.2397  24.3929  24.5726  25.0602  25.2430
    25.5562

          k =-0.5000 0.2946 0.0000 ( 17762 PWs)   bands (ev):

    -3.7331  -2.7255  -2.2513  -2.0478  -1.5590  -0.7229   3.8966   4.0351
     4.4398   5.2036   5.3145   6.3355   7.4230   7.9208   7.9437   8.2142
     9.3226   9.4451   9.5412   9.5734   9.7025   9.7448  10.1164  10.2253
    10.2340  10.3752  10.4559  10.5950  10.8318  10.8619  10.9330  11.0126
    11.1258  11.2522  11.2562  11.3925  11.4561  11.4905  11.5087  11.5747
    11.5963  11.7212  11.7358  11.7574  11.8237  11.8829  11.9147  11.9985
    12.1579  12.1749  12.2737  12.3137  12.3573  12.4616  12.4907  12.5232
    12.5494  12.5521  12.5581  12.6148  12.6547  12.7101  12.8005  12.8108
    12.8340  12.8888  12.8938  12.9297  12.9492  12.9797  13.0284  13.0523
    13.0606  13.1035  13.1164  13.1226  13.1347  13.1911  13.2335  13.2347
    13.2599  13.3018  13.3347  13.3497  13.3842  13.4259  13.4826  13.5123
    13.5674  13.5981  13.6460  13.6547  13.7105  13.7336  13.7531  13.7982
    13.8210  13.8368  13.8754  13.8866  13.9374  13.9843  14.0068  14.0544
    14.1580  14.1857  14.2553  14.2649  14.3235  14.3499  14.3733  14.4212
    14.4767  14.4925  14.5575  14.6236  14.6724  14.7863  14.8500  14.8528
    14.9009  14.9347  15.0852  15.1238  15.1309  15.1763  15.3088  15.3377
    15.3655  15.4853  15.5494  15.5603  15.6293  15.6523  15.6566  15.7114
    15.7760  15.9005  16.0456  16.0670  16.1668  16.2463  16.2618  16.2977
    16.4220  16.5117  16.5955  16.8727  16.9837  17.2400  17.2797  17.4081
    17.5331  17.7483  17.7957  17.9971  18.1036  18.2356  18.3029  18.4516
    18.8639  19.2890  19.4981  19.8433  19.9559  20.1357  20.4564  20.6087
    22.3302  22.7826  23.0191  23.1759  23.3495  23.4465  23.6899  23.7092
    24.6331  24.7759  24.8879  25.0017  25.1743  25.5246  26.0313  26.0510
    26.1503

          k =-0.5000-0.3536 0.0000 ( 17712 PWs)   bands (ev):

    -3.2409  -3.2409  -1.8728  -1.8728  -1.5250  -1.5250   4.1381   4.1381
     4.6459   4.6459   5.8020   5.8020   7.8055   7.8055   7.9702   7.9702
     9.4644   9.4644   9.5123   9.5123  10.0130  10.0130  10.0518  10.0519
    10.2586  10.2586  10.4742  10.4742  10.9068  10.9068  10.9417  10.9417
    11.2209  11.2209  11.3252  11.3252  11.5156  11.5156  11.6254  11.6254
    11.6855  11.6855  11.7544  11.7544  11.9397  11.9397  12.0371  12.0371
    12.1039  12.1039  12.2248  12.2248  12.4127  12.4127  12.5142  12.5142
    12.5641  12.5641  12.5907  12.5908  12.6775  12.6775  12.7957  12.7957
    12.8748  12.8748  12.9544  12.9544  12.9877  12.9877  13.0186  13.0186
    13.0807  13.0807  13.1550  13.1550  13.1689  13.1689  13.2146  13.2146
    13.2483  13.2483  13.2924  13.2924  13.3728  13.3728  13.4955  13.4955
    13.5650  13.5650  13.5889  13.5889  13.6725  13.6725  13.7277  13.7277
    13.8135  13.8135  13.8604  13.8605  13.9298  13.9298  14.1450  14.1450
    14.1767  14.1767  14.2085  14.2085  14.2444  14.2444  14.3605  14.3605
    14.3713  14.3713  14.6582  14.6582  14.7025  14.7025  14.8098  14.8098
    14.9702  14.9702  15.0306  15.0306  15.1971  15.1971  15.2658  15.2658
    15.4618  15.4618  15.5636  15.5636  15.5719  15.5719  15.7094  15.7094
    16.0199  16.0199  16.1469  16.1469  16.2747  16.2747  16.3485  16.3485
    16.5743  16.5743  16.6310  16.6310  16.8039  16.8039  17.5426  17.5426
    17.6166  17.6166  17.8417  17.8417  18.0469  18.0469  18.1798  18.1798
    19.4761  19.4761  19.6264  19.6264  19.9524  19.9524  20.2001  20.2002
    22.8284  22.8284  23.1390  23.1390  23.2843  23.2843  23.4174  23.4174
    25.3855  25.3855  25.6011  25.6011  25.9343  25.9343  26.0755  26.0757
    26.3279

     the Fermi energy is    18.1668 ev

!    total energy              =  -21691.21419318 Ry

     total all-electron energy =  -1064658.904743 Ry
     estimated scf accuracy    <       0.00000095 Ry
     smearing contrib. (-TS)   =      -0.02581330 Ry
     internal energy E=F+TS    =  -21691.18837988 Ry

     The total energy is F=E-TS. E is the sum of the following terms:
     one-electron contribution =      36.09350415 Ry
     hartree contribution      =     403.76886063 Ry
     xc contribution           =    -907.69852541 Ry
     ewald contribution        =   -1829.57980928 Ry
     one-center paw contrib.   =  -19393.77240996 Ry

     convergence has been achieved in  20 iterations

     Forces acting on atoms (cartesian axes, Ry/au):

     atom    1 type  1   force =     3.32455628   -0.00002767    0.54095100
     atom    2 type  1   force =     3.32455628    0.00002767    0.54095100
     atom    3 type  1   force =    -0.64025526    0.00000000    0.71969844
     atom    4 type  1   force =    -0.64025539    0.00000000    0.71969615
     atom    5 type  1   force =     0.01642951    0.00000260    0.04942152
     atom    6 type  1   force =     0.01642951   -0.00000260    0.04942152
     atom    7 type  1   force =    -0.00113788    0.00000000    0.00710482
     atom    8 type  1   force =    -0.00113887    0.00000000    0.00709735
     atom    9 type  1   force =    -0.00073389    0.00000154    0.00302810
     atom   10 type  1   force =    -0.00073389   -0.00000154    0.00302810
     atom   11 type  1   force =    -0.00019411    0.00000000   -0.00328015
     atom   12 type  1   force =    -0.00019257    0.00000000   -0.00327691
     atom   13 type  1   force =    -0.01189656    0.00000159    0.00026449
     atom   14 type  1   force =    -0.01189656   -0.00000159    0.00026449
     atom   15 type  1   force =     0.34631219    0.00000000   -0.76381062
     atom   16 type  1   force =     0.34631067    0.00000000   -0.76380157
     atom   17 type  1   force =    -0.34605705    0.00000988    0.76390318
     atom   18 type  1   force =    -0.34605705   -0.00000988    0.76390318
     atom   19 type  1   force =     0.01363381    0.00000000   -0.00394474
     atom   20 type  1   force =     0.01363652    0.00000000   -0.00394438
     atom   21 type  1   force =     0.00125487    0.00000092   -0.00348060
     atom   22 type  1   force =     0.00125487   -0.00000092   -0.00348060
     atom   23 type  1   force =    -0.01690826    0.00000000   -0.04847333
     atom   24 type  1   force =    -0.01690484    0.00000000   -0.04848494
     atom   25 type  1   force =     0.63976756    0.00000012   -0.72059658
     atom   26 type  1   force =     0.63976756   -0.00000012   -0.72059658
     atom   27 type  1   force =    -3.32476561    0.00000000   -0.54078240
     atom   28 type  1   force =    -3.32478186    0.00000000   -0.54077996

     Total force =     7.205655     Total SCF correction =     0.002484

     Writing all to output data dir ./pwscf.save/
 
     init_run     :     15.14s CPU     15.57s WALL (       1 calls)
     electrons    :    813.38s CPU    822.50s WALL (       1 calls)
     forces       :      6.51s CPU      6.57s WALL (       1 calls)

     Called by init_run:
     wfcinit      :     14.41s CPU     14.71s WALL (       1 calls)
     potinit      :      0.45s CPU      0.50s WALL (       1 calls)
     hinit0       :      0.14s CPU      0.17s WALL (       1 calls)

     Called by electrons:
     c_bands      :    734.02s CPU    742.38s WALL (      20 calls)
     sum_band     :     71.96s CPU     72.56s WALL (      20 calls)
     v_of_rho     :      0.51s CPU      0.57s WALL (      21 calls)
     newd         :      0.70s CPU      0.81s WALL (      21 calls)
     PAW_pot      :      6.52s CPU      6.54s WALL (      21 calls)
     mix_rho      :      0.09s CPU      0.09s WALL (      20 calls)

     Called by c_bands:
     init_us_2    :      4.16s CPU      4.19s WALL (    1470 calls)
     init_us_2:cp :      4.15s CPU      4.18s WALL (    1470 calls)
     cegterg      :    701.81s CPU    709.88s WALL (     700 calls)

     Called by *egterg:
     cdiaghg      :     76.62s CPU     77.33s WALL (    3525 calls)
     h_psi        :    336.55s CPU    340.86s WALL (    3560 calls)
     s_psi        :     66.46s CPU     66.75s WALL (    3560 calls)
     g_psi        :      1.10s CPU      1.10s WALL (    2825 calls)

     Called by h_psi:
     h_psi:calbec :     74.93s CPU     75.18s WALL (    3560 calls)
     vloc_psi     :    189.30s CPU    191.49s WALL (    3560 calls)
     add_vuspsi   :     71.10s CPU     71.71s WALL (    3560 calls)

     General routines
     calbec       :    107.19s CPU    107.54s WALL (    4400 calls)
     fft          :      0.49s CPU      0.62s WALL (     242 calls)
     ffts         :      0.02s CPU      0.02s WALL (      20 calls)
     fftw         :    208.65s CPU    210.81s WALL (  788492 calls)
 
     Parallel routines
 
     PWSCF        :  14m 2.28s CPU  14m17.88s WALL

 
   This run was terminated on:   9:51:47   2Mar2024            

=------------------------------------------------------------------------------=
   JOB DONE.
=------------------------------------------------------------------------------=
