MPI startup(): Warning: I_MPI_PMI_LIBRARY will be ignored since the hydra process manager was found
MPI startup(): Warning: I_MPI_PMI_LIBRARY will be ignored since the hydra process manager was found
MPI startup(): Warning: I_MPI_PMI_LIBRARY will be ignored since the hydra process manager was found
MPI startup(): Warning: I_MPI_PMI_LIBRARY will be ignored since the hydra process manager was found
MPI startup(): Warning: I_MPI_PMI_LIBRARY will be ignored since the hydra process manager was found
MPI startup(): Warning: I_MPI_PMI_LIBRARY will be ignored since the hydra process manager was found
MPI startup(): Warning: I_MPI_PMI_LIBRARY will be ignored since the hydra process manager was found
MPI startup(): Warning: I_MPI_PMI_LIBRARY will be ignored since the hydra process manager was found
MPI startup(): Warning: I_MPI_PMI_LIBRARY will be ignored since the hydra process manager was found
MPI startup(): Warning: I_MPI_PMI_LIBRARY will be ignored since the hydra process manager was found

     Program PWSCF v.7.0 starts on 17Mar2024 at  7:26:26 

     This program is part of the open-source Quantum ESPRESSO suite
     for quantum simulation of materials; please cite
         "P. Giannozzi et al., J. Phys.:Condens. Matter 21 395502 (2009);
         "P. Giannozzi et al., J. Phys.:Condens. Matter 29 465901 (2017);
         "P. Giannozzi et al., J. Chem. Phys. 152 154105 (2020);
          URL http://www.quantum-espresso.org", 
     in publications or presentations arising from this work. More details at
     http://www.quantum-espresso.org/quote

     Parallel version (MPI), running on    10 processors

     MPI processes distributed on     1 nodes
     R & G space division:  proc/nbgrp/npool/nimage =      10
     155480 MiB available memory on the printing compute node when the environment starts
 
     Reading input from GSF110R_0.3.in
Warning: card &CELL ignored
Warning: card / ignored

     Current dimensions of program PWSCF are:
     Max number of different atomic species (ntypx) = 10
     Max number of k-points (npk) =  40000
     Max angular momentum in pseudopotentials (lmaxx) =  4
     file Au.pbe-n-kjpaw_psl.1.0.0.UPF: wavefunction(s)  6S 5D renormalized
     Found identity + (  0.0000 -0.5000  0.0000) symmetry
     This is a supercell, fractional translations are disabled

     Subspace diagonalization in iterative solution of the eigenvalue problem:
     one sub-group per band group will be used
     scalapack distributed-memory algorithm (size of sub-group:  3*  3 procs)

 
     Parallelization info
     --------------------
     sticks:   dense  smooth     PW     G-vecs:    dense   smooth      PW
     Min         133     133     38                14227    14227    2178
     Max         134     134     39                14242    14242    2183
     Sum        1339    1339    389               142317   142317   21821
 
     Using Slab Decomposition
 


     bravais-lattice index     =            0
     lattice parameter (alat)  =       7.7101  a.u.
     unit-cell volume          =    2979.1368 (a.u.)^3
     number of atoms/cell      =           28
     number of atomic types    =            1
     number of electrons       =       308.00
     number of Kohn-Sham states=          185
     kinetic-energy cutoff     =      50.0000  Ry
     charge density cutoff     =     200.0000  Ry
     scf convergence threshold =      1.0E-06
     mixing beta               =       0.1000
     number of iterations used =            8  plain     mixing
     energy convergence thresh.=      1.0E-04
     force convergence thresh. =      1.0E-03
     Exchange-correlation= SLA  PW   PBX  PBC
                           (   1   4   3   4   0   0   0)
     nstep                     =           50


     celldm(1)=   7.710083  celldm(2)=   0.000000  celldm(3)=   0.000000
     celldm(4)=   0.000000  celldm(5)=   0.000000  celldm(6)=   0.000000

     crystal axes: (cart. coord. in units of alat)
               a(1) = (   1.000000   0.000000   0.000000 )  
               a(2) = (   0.000000   1.414214   0.000000 )  
               a(3) = (   0.000000   0.000000   4.596194 )  

     reciprocal axes: (cart. coord. in units 2 pi/alat)
               b(1) = (  1.000000  0.000000  0.000000 )  
               b(2) = (  0.000000  0.707107  0.000000 )  
               b(3) = (  0.000000  0.000000  0.217571 )  


     PseudoPot. # 1 for Au read from file:
     ./Au.pbe-n-kjpaw_psl.1.0.0.UPF
     MD5 check sum: 4db85c736373c707a97ce4c36c2a9d23
     Pseudo is Projector augmented-wave + core cor, Zval = 11.0
     Generated using &quot;atomic&quot; code by A. Dal Corso  v.6.3
     Shape of augmentation charge: PSQ
     Using radial grid of 1279 points,  6 beta functions with: 
                l(1) =   0
                l(2) =   0
                l(3) =   1
                l(4) =   1
                l(5) =   2
                l(6) =   2
     Q(r) pseudized with 0 coefficients 


     atomic species   valence    mass     pseudopotential
        Au            11.00   196.96657     Au( 1.00)

     No symmetry found



   Cartesian axes

     site n.     atom                  positions (alat units)
         1           Au  tau(   1) = (   0.5000000   0.3535534   0.0000000  )
         2           Au  tau(   2) = (   0.5000000   1.0606602   0.0000000  )
         3           Au  tau(   3) = (   0.0000000   0.0000000   0.3535534  )
         4           Au  tau(   4) = (   0.0000000   0.7071068   0.3535534  )
         5           Au  tau(   5) = (   0.5000000   0.3535534   0.7071068  )
         6           Au  tau(   6) = (   0.5000000   1.0606602   0.7071068  )
         7           Au  tau(   7) = (   0.0000000   0.0000000   1.0606602  )
         8           Au  tau(   8) = (   0.0000000   0.7071068   1.0606602  )
         9           Au  tau(   9) = (   0.5000000   0.3535534   1.4142136  )
        10           Au  tau(  10) = (   0.5000000   1.0606602   1.4142136  )
        11           Au  tau(  11) = (   0.0000000   0.0000000   1.7677670  )
        12           Au  tau(  12) = (   0.0000000   0.7071068   1.7677670  )
        13           Au  tau(  13) = (   0.5000000   0.3535534   2.1213203  )
        14           Au  tau(  14) = (   0.5000000   1.0606602   2.1213203  )
        15           Au  tau(  15) = (   0.0000000   0.0000000   2.4748737  )
        16           Au  tau(  16) = (   0.0000000   0.7071068   2.4748737  )
        17           Au  tau(  17) = (   0.8000000   0.3535534   2.8284271  )
        18           Au  tau(  18) = (   0.8000000   1.0606602   2.8284271  )
        19           Au  tau(  19) = (   0.3000000   0.0000000   3.1819805  )
        20           Au  tau(  20) = (   0.3000000   0.7071068   3.1819805  )
        21           Au  tau(  21) = (   0.8000000   0.3535534   3.5355339  )
        22           Au  tau(  22) = (   0.8000000   1.0606602   3.5355339  )
        23           Au  tau(  23) = (   0.3000000   0.0000000   3.8890873  )
        24           Au  tau(  24) = (   0.3000000   0.7071068   3.8890873  )
        25           Au  tau(  25) = (   0.8000000   0.3535534   4.2426407  )
        26           Au  tau(  26) = (   0.8000000   1.0606602   4.2426407  )
        27           Au  tau(  27) = (   0.3000000   0.0000000   4.5961941  )
        28           Au  tau(  28) = (   0.3000000   0.7071068   4.5961941  )

     number of k points=    50  Gaussian smearing, width (Ry)=  0.2000
                       cart. coord. in units 2pi/alat
        k(    1) = (   0.0000000   0.0000000   0.0000000), wk =   0.0208333
        k(    2) = (   0.0000000   0.0589256   0.0000000), wk =   0.0416667
        k(    3) = (   0.0000000   0.1178511   0.0000000), wk =   0.0416667
        k(    4) = (   0.0000000   0.1767767   0.0000000), wk =   0.0416667
        k(    5) = (   0.0000000   0.2357023   0.0000000), wk =   0.0416667
        k(    6) = (   0.0000000   0.2946278   0.0000000), wk =   0.0416667
        k(    7) = (   0.0000000  -0.3535534   0.0000000), wk =   0.0208333
        k(    8) = (   0.1250000   0.0000000   0.0000000), wk =   0.0416667
        k(    9) = (   0.1250000   0.0589256   0.0000000), wk =   0.0416667
        k(   10) = (   0.1250000   0.1178511   0.0000000), wk =   0.0416667
        k(   11) = (   0.1250000   0.1767767   0.0000000), wk =   0.0416667
        k(   12) = (   0.1250000   0.2357023   0.0000000), wk =   0.0416667
        k(   13) = (   0.1250000   0.2946278   0.0000000), wk =   0.0416667
        k(   14) = (   0.1250000  -0.3535534   0.0000000), wk =   0.0416667
        k(   15) = (   0.1250000  -0.2946278   0.0000000), wk =   0.0416667
        k(   16) = (   0.1250000  -0.2357023   0.0000000), wk =   0.0416667
        k(   17) = (   0.1250000  -0.1767767   0.0000000), wk =   0.0416667
        k(   18) = (   0.1250000  -0.1178511   0.0000000), wk =   0.0416667
        k(   19) = (   0.1250000  -0.0589256   0.0000000), wk =   0.0416667
        k(   20) = (   0.2500000   0.0000000   0.0000000), wk =   0.0416667
        k(   21) = (   0.2500000   0.0589256   0.0000000), wk =   0.0416667
        k(   22) = (   0.2500000   0.1178511   0.0000000), wk =   0.0416667
        k(   23) = (   0.2500000   0.1767767   0.0000000), wk =   0.0416667
        k(   24) = (   0.2500000   0.2357023   0.0000000), wk =   0.0416667
        k(   25) = (   0.2500000   0.2946278   0.0000000), wk =   0.0416667
        k(   26) = (   0.2500000  -0.3535534   0.0000000), wk =   0.0416667
        k(   27) = (   0.2500000  -0.2946278   0.0000000), wk =   0.0416667
        k(   28) = (   0.2500000  -0.2357023   0.0000000), wk =   0.0416667
        k(   29) = (   0.2500000  -0.1767767   0.0000000), wk =   0.0416667
        k(   30) = (   0.2500000  -0.1178511   0.0000000), wk =   0.0416667
        k(   31) = (   0.2500000  -0.0589256   0.0000000), wk =   0.0416667
        k(   32) = (   0.3750000   0.0000000   0.0000000), wk =   0.0416667
        k(   33) = (   0.3750000   0.0589256   0.0000000), wk =   0.0416667
        k(   34) = (   0.3750000   0.1178511   0.0000000), wk =   0.0416667
        k(   35) = (   0.3750000   0.1767767   0.0000000), wk =   0.0416667
        k(   36) = (   0.3750000   0.2357023   0.0000000), wk =   0.0416667
        k(   37) = (   0.3750000   0.2946278   0.0000000), wk =   0.0416667
        k(   38) = (   0.3750000  -0.3535534   0.0000000), wk =   0.0416667
        k(   39) = (   0.3750000  -0.2946278   0.0000000), wk =   0.0416667
        k(   40) = (   0.3750000  -0.2357023   0.0000000), wk =   0.0416667
        k(   41) = (   0.3750000  -0.1767767   0.0000000), wk =   0.0416667
        k(   42) = (   0.3750000  -0.1178511   0.0000000), wk =   0.0416667
        k(   43) = (   0.3750000  -0.0589256   0.0000000), wk =   0.0416667
        k(   44) = (  -0.5000000   0.0000000   0.0000000), wk =   0.0208333
        k(   45) = (  -0.5000000   0.0589256   0.0000000), wk =   0.0416667
        k(   46) = (  -0.5000000   0.1178511   0.0000000), wk =   0.0416667
        k(   47) = (  -0.5000000   0.1767767   0.0000000), wk =   0.0416667
        k(   48) = (  -0.5000000   0.2357023   0.0000000), wk =   0.0416667
        k(   49) = (  -0.5000000   0.2946278   0.0000000), wk =   0.0416667
        k(   50) = (  -0.5000000  -0.3535534   0.0000000), wk =   0.0208333

     Dense  grid:   142317 G-vectors     FFT dimensions: (  36,  50, 160)

     Estimated max dynamical RAM per process >     337.14 MB

     Estimated total dynamical RAM >       3.29 GB

     Initial potential from superposition of free atoms

     starting charge     307.9969, renormalised to     308.0000
     Starting wfcs are  252 randomized atomic wfcs
     Checking if some PAW data can be deallocated... 

     total cpu time spent up to now is       22.9 secs

     Self-consistent Calculation

     iteration #  1     ecut=    50.00 Ry     beta= 0.10
     Davidson diagonalization with overlap
     ethr =  1.00E-02,  avg # of iterations =  4.1

     total cpu time spent up to now is       75.8 secs

     total energy              =  -21692.61847445 Ry
     estimated scf accuracy    <      12.06322751 Ry

     iteration #  2     ecut=    50.00 Ry     beta= 0.10
     Davidson diagonalization with overlap
     ethr =  3.92E-03,  avg # of iterations =  7.7

     total cpu time spent up to now is      129.3 secs

     total energy              =  -21691.92341294 Ry
     estimated scf accuracy    <     132.29041340 Ry

     iteration #  3     ecut=    50.00 Ry     beta= 0.10
     Davidson diagonalization with overlap
     ethr =  3.92E-03,  avg # of iterations =  3.2

     total cpu time spent up to now is      173.1 secs

     total energy              =  -21694.59906766 Ry
     estimated scf accuracy    <       1.80796634 Ry

     iteration #  4     ecut=    50.00 Ry     beta= 0.10
     Davidson diagonalization with overlap
     ethr =  5.87E-04,  avg # of iterations =  7.0

     total cpu time spent up to now is      225.0 secs

     total energy              =  -21694.50931618 Ry
     estimated scf accuracy    <       0.96331585 Ry

     iteration #  5     ecut=    50.00 Ry     beta= 0.10
     Davidson diagonalization with overlap
     ethr =  3.13E-04,  avg # of iterations =  5.7

     total cpu time spent up to now is      276.8 secs

     total energy              =  -21694.47704700 Ry
     estimated scf accuracy    <       2.18231204 Ry

     iteration #  6     ecut=    50.00 Ry     beta= 0.10
     Davidson diagonalization with overlap
     ethr =  3.13E-04,  avg # of iterations =  1.7

     total cpu time spent up to now is      318.3 secs

     total energy              =  -21694.48981204 Ry
     estimated scf accuracy    <       0.31248994 Ry

     iteration #  7     ecut=    50.00 Ry     beta= 0.10
     Davidson diagonalization with overlap
     c_bands:  1 eigenvalues not converged
     c_bands:  1 eigenvalues not converged
     c_bands:  1 eigenvalues not converged
     ethr =  1.01E-04,  avg # of iterations =  7.5

     total cpu time spent up to now is      388.1 secs

     total energy              =  -21694.56398243 Ry
     estimated scf accuracy    <       0.07453299 Ry

     iteration #  8     ecut=    50.00 Ry     beta= 0.10
     Davidson diagonalization with overlap
     c_bands:  1 eigenvalues not converged
     c_bands:  1 eigenvalues not converged
     c_bands:  1 eigenvalues not converged
     c_bands:  1 eigenvalues not converged
     c_bands:  1 eigenvalues not converged
     c_bands:  2 eigenvalues not converged
     c_bands:  1 eigenvalues not converged
     c_bands:  2 eigenvalues not converged
     c_bands:  1 eigenvalues not converged
     ethr =  2.42E-05,  avg # of iterations = 10.3

     total cpu time spent up to now is      466.1 secs

     total energy              =  -21694.57753612 Ry
     estimated scf accuracy    <       0.04290987 Ry

     iteration #  9     ecut=    50.00 Ry     beta= 0.10
     Davidson diagonalization with overlap
     ethr =  1.39E-05,  avg # of iterations =  3.7

     total cpu time spent up to now is      513.7 secs

     total energy              =  -21694.58478255 Ry
     estimated scf accuracy    <       0.02563748 Ry

     iteration # 10     ecut=    50.00 Ry     beta= 0.10
     Davidson diagonalization with overlap
     ethr =  8.32E-06,  avg # of iterations =  3.4

     total cpu time spent up to now is      563.3 secs

     total energy              =  -21694.58704457 Ry
     estimated scf accuracy    <       0.00774142 Ry

     iteration # 11     ecut=    50.00 Ry     beta= 0.10
     Davidson diagonalization with overlap
     c_bands:  1 eigenvalues not converged
     c_bands:  1 eigenvalues not converged
     c_bands:  1 eigenvalues not converged
     c_bands:  1 eigenvalues not converged
     c_bands:  1 eigenvalues not converged
     c_bands:  1 eigenvalues not converged
     ethr =  2.51E-06,  avg # of iterations = 11.2

     total cpu time spent up to now is      625.4 secs

     total energy              =  -21694.58758297 Ry
     estimated scf accuracy    <       0.00189368 Ry

     iteration # 12     ecut=    50.00 Ry     beta= 0.10
     Davidson diagonalization with overlap
     c_bands:  1 eigenvalues not converged
     ethr =  6.15E-07,  avg # of iterations =  5.6

     total cpu time spent up to now is      694.6 secs

     total energy              =  -21694.58818045 Ry
     estimated scf accuracy    <       0.00065812 Ry

     iteration # 13     ecut=    50.00 Ry     beta= 0.10
     Davidson diagonalization with overlap
     c_bands:  1 eigenvalues not converged
     ethr =  2.14E-07,  avg # of iterations =  5.0

     total cpu time spent up to now is      753.7 secs

     total energy              =  -21694.58828375 Ry
     estimated scf accuracy    <       0.00034409 Ry

     iteration # 14     ecut=    50.00 Ry     beta= 0.10
     Davidson diagonalization with overlap
     c_bands:  1 eigenvalues not converged
     ethr =  1.12E-07,  avg # of iterations =  4.5

     total cpu time spent up to now is      820.9 secs

     total energy              =  -21694.58825147 Ry
     estimated scf accuracy    <       0.00088742 Ry

     iteration # 15     ecut=    50.00 Ry     beta= 0.10
     Davidson diagonalization with overlap
     ethr =  1.12E-07,  avg # of iterations =  1.5

     total cpu time spent up to now is      861.5 secs

     total energy              =  -21694.58826512 Ry
     estimated scf accuracy    <       0.00012553 Ry

     iteration # 16     ecut=    50.00 Ry     beta= 0.10
     Davidson diagonalization with overlap
     ethr =  4.08E-08,  avg # of iterations =  2.6

     total cpu time spent up to now is      918.4 secs

     total energy              =  -21694.58827780 Ry
     estimated scf accuracy    <       0.00001974 Ry

     iteration # 17     ecut=    50.00 Ry     beta= 0.10
     Davidson diagonalization with overlap
     ethr =  6.41E-09,  avg # of iterations =  5.3

     total cpu time spent up to now is      987.7 secs

     total energy              =  -21694.58827951 Ry
     estimated scf accuracy    <       0.00001742 Ry

     iteration # 18     ecut=    50.00 Ry     beta= 0.10
     Davidson diagonalization with overlap
     ethr =  5.66E-09,  avg # of iterations =  2.0

     total cpu time spent up to now is     1031.8 secs

     total energy              =  -21694.58827686 Ry
     estimated scf accuracy    <       0.00000973 Ry

     iteration # 19     ecut=    50.00 Ry     beta= 0.10
     Davidson diagonalization with overlap
     ethr =  3.16E-09,  avg # of iterations =  4.4

     total cpu time spent up to now is     1081.3 secs

     total energy              =  -21694.58827684 Ry
     estimated scf accuracy    <       0.00000301 Ry

     iteration # 20     ecut=    50.00 Ry     beta= 0.10
     Davidson diagonalization with overlap
     ethr =  9.78E-10,  avg # of iterations =  5.3

     total cpu time spent up to now is     1158.9 secs

     total energy              =  -21694.58827716 Ry
     estimated scf accuracy    <       0.00000201 Ry

     iteration # 21     ecut=    50.00 Ry     beta= 0.10
     Davidson diagonalization with overlap
     ethr =  6.52E-10,  avg # of iterations =  2.5

     total cpu time spent up to now is     1214.5 secs

     End of self-consistent calculation

          k = 0.0000 0.0000 0.0000 ( 17807 PWs)   bands (ev):

    -1.6932  -1.6932   0.5683   1.1438   1.7951   1.7951   2.0773   4.0578
     4.5037   5.6771   6.1329   6.1812   6.1812   7.9323   8.1694   8.4761
     8.4765   8.8599   8.8923   8.9995   9.4483   9.6369   9.7882   9.8647
     9.8738   9.9255   9.9331  10.1270  10.4768  10.4789  10.4883  10.5468
    10.7769  10.8786  10.9105  10.9783  11.0401  11.0510  11.0782  11.1599
    11.2093  11.2498  11.2520  11.2876  11.3294  11.3662  11.4754  11.5136
    11.5624  11.6035  11.6572  11.6640  11.7371  11.8101  11.8401  11.9376
    12.0062  12.0120  12.1539  12.1744  12.2123  12.2671  12.4103  12.5622
    12.5773  12.6848  12.6881  12.7366  12.7840  12.8214  12.8413  12.8432
    12.9171  13.0045  13.0659  13.0724  13.0818  13.0933  13.1332  13.1892
    13.2492  13.2526  13.2695  13.3436  13.3973  13.5293  13.5761  13.5923
    13.6683  13.7628  13.9130  13.9796  13.9939  14.0924  14.1120  14.1411
    14.1851  14.2680  14.2946  14.3043  14.3529  14.4311  14.4711  14.4916
    14.5140  14.6787  14.6956  14.7106  14.7298  14.7335  14.7705  14.8158
    14.8211  14.8335  14.9144  14.9710  15.0403  15.0960  15.0973  15.1312
    15.2074  15.2599  15.2867  15.3064  15.3198  15.4166  15.5039  15.5201
    15.5398  15.5840  15.6390  15.6782  15.7164  15.7304  15.8338  15.8491
    15.8949  15.9163  15.9750  16.0043  16.0312  16.0766  16.1137  16.1218
    16.3448  16.9652  17.2114  17.4542  17.4629  17.5116  17.5498  17.7833
    17.8635  18.0775  18.1046  18.3193  18.5656  18.5899  18.6004  18.9009
    18.9087  19.1445  20.0326  20.5764  20.7524  20.7539  21.3508  22.0245
    22.4355  22.8042  23.6254  24.0083  24.2666  24.2814  24.3542  24.4127
    24.4620  24.8094  24.9329  24.9598  25.2656  25.8191  25.8758  25.9130
    26.0631

          k = 0.0000 0.0589 0.0000 ( 17795 PWs)   bands (ev):

    -1.9028  -1.3857   0.5560   0.9464   1.5171   2.0937   2.1220   4.2784
     4.5493   5.6437   5.8522   6.1824   6.5067   7.9734   8.1985   8.3265
     8.4113   8.5436   8.8987   8.9935   9.4093   9.4840   9.6151   9.7673
    10.0712  10.1117  10.1807  10.2108  10.4844  10.4963  10.5250  10.5839
    10.7913  10.8660  10.9349  10.9694  10.9759  11.0548  11.1197  11.1597
    11.2539  11.2594  11.2827  11.3016  11.3771  11.4020  11.5047  11.5271
    11.5303  11.5894  11.6251  11.7023  11.7087  11.7942  11.8827  11.9454
    12.0013  12.0864  12.1171  12.1654  12.2528  12.2982  12.3924  12.4790
    12.5383  12.6296  12.6510  12.7319  12.7709  12.8099  12.8401  12.8533
    12.8928  12.9851  13.0459  13.0578  13.0897  13.1309  13.1389  13.1833
    13.2310  13.2546  13.2924  13.3851  13.4258  13.5174  13.5377  13.6099
    13.6889  13.7349  13.9097  13.9237  13.9285  14.0734  14.1219  14.1285
    14.1843  14.2640  14.2673  14.3084  14.3612  14.4176  14.4399  14.4580
    14.5232  14.5914  14.6476  14.7049  14.7158  14.7285  14.7457  14.7541
    14.8239  14.8707  14.9618  14.9914  15.0430  15.0635  15.0943  15.1482
    15.1952  15.2486  15.2557  15.3247  15.3892  15.4472  15.4977  15.5136
    15.5276  15.6051  15.6218  15.6555  15.6585  15.7205  15.7780  15.7877
    15.9216  15.9349  15.9566  15.9662  16.0146  16.0291  16.0991  16.3360
    16.3765  16.8795  16.8998  16.9402  17.0824  17.1630  17.2100  17.9974
    18.1262  18.3384  18.3573  18.3959  18.4540  18.6217  18.9912  19.1509
    19.2712  19.3431  20.1147  20.6435  20.7800  21.0008  21.4072  22.0674
    22.4646  22.8368  23.6289  23.7370  23.8054  23.9977  24.3516  24.3889
    24.7458  24.8120  25.0207  25.2665  25.3006  25.4871  25.7115  25.8248
    26.0728

          k = 0.0000 0.1179 0.0000 ( 17803 PWs)   bands (ev):

    -2.0094  -0.9927   0.4900   0.5229   1.2989   2.1351   2.4887   4.6843
     4.7664   5.5333   5.5760   6.3272   6.8149   7.5138   8.0523   8.1016
     8.2818   8.5542   8.9767   9.0513   9.0529   9.4750   9.6420   9.6602
    10.1209  10.2195  10.3449  10.5163  10.5282  10.5333  10.6652  10.6912
    10.8094  10.8231  10.9328  10.9625  11.0017  11.1053  11.1431  11.1856
    11.2299  11.3312  11.3465  11.3785  11.3958  11.4415  11.4904  11.4994
    11.5379  11.6297  11.6667  11.7199  11.8079  11.8093  11.9293  11.9688
    12.0423  12.0858  12.1579  12.1793  12.1920  12.3431  12.3718  12.4130
    12.4772  12.5426  12.5502  12.6561  12.7153  12.7699  12.7866  12.8336
    12.8700  12.9547  12.9915  13.0055  13.0877  13.1401  13.1796  13.1929
    13.2210  13.2730  13.3945  13.3973  13.4741  13.4916  13.5232  13.6417
    13.6951  13.7038  13.7585  13.7887  13.8772  14.0372  14.0716  14.1428
    14.1780  14.1970  14.2679  14.3139  14.3589  14.3627  14.3851  14.4251
    14.5391  14.5450  14.5592  14.5793  14.6463  14.6558  14.7284  14.7826
    14.8379  14.8398  14.9119  14.9786  15.0030  15.0203  15.0799  15.1117
    15.1709  15.2123  15.2789  15.3121  15.3348  15.3608  15.4066  15.4966
    15.5301  15.5653  15.6488  15.6550  15.6847  15.6951  15.7178  15.8628
    15.9000  15.9316  15.9560  15.9870  16.0020  16.0178  16.2097  16.2633
    16.2780  16.3709  16.4009  16.5036  16.6257  16.8790  17.0983  17.6031
    17.9770  18.4886  18.5893  18.7700  19.0141  19.0741  19.5280  19.6113
    19.9568  19.9806  20.3429  20.8404  20.9699  21.2751  21.5662  22.1833
    22.5456  22.9311  23.3041  23.5140  23.6371  23.9611  23.9899  24.3338
    24.3378  24.8162  24.8857  25.1703  25.2637  25.4088  25.7216  25.8283
    25.9823

          k = 0.0000 0.1768 0.0000 ( 17795 PWs)   bands (ev):

    -2.0118  -0.5428  -0.0433   0.4780   1.1605   2.1751   2.8861   4.9045
     5.0417   5.2407   5.7555   6.5514   6.5944   7.0876   7.6301   8.2972
     8.3955   8.5215   8.6574   9.0149   9.2358   9.5479   9.5935   9.7229
    10.1814  10.2524  10.3928  10.5662  10.5958  10.6607  10.7263  10.7905
    10.8320  10.8637  10.9858  11.0336  11.0426  11.0757  11.1776  11.1835
    11.2287  11.2383  11.3726  11.4208  11.4559  11.5312  11.5493  11.6097
    11.6226  11.7429  11.7464  11.7652  11.7716  11.9444  11.9679  11.9687
    12.0564  12.0616  12.1055  12.1183  12.2804  12.2964  12.4016  12.4040
    12.4254  12.4538  12.5383  12.5733  12.6490  12.6781  12.7335  12.8003
    12.8613  12.8943  12.8994  12.9013  13.0919  13.1300  13.1625  13.1857
    13.2517  13.3182  13.3593  13.4644  13.4728  13.4985  13.6008  13.6056
    13.6372  13.6679  13.6884  13.7057  13.7914  13.9965  14.0008  14.0485
    14.1300  14.1724  14.2382  14.2861  14.3024  14.3289  14.3631  14.4014
    14.4428  14.4782  14.5288  14.5303  14.5784  14.6213  14.7169  14.7276
    14.7661  14.7799  14.8294  14.8850  14.9219  14.9742  14.9957  15.0569
    15.1493  15.1518  15.2028  15.2490  15.2497  15.2653  15.3649  15.3729
    15.4791  15.4864  15.6090  15.6165  15.6387  15.6591  15.7137  15.7741
    15.8057  15.8522  15.8611  15.8983  15.9504  15.9755  15.9988  16.0355
    16.0940  16.1416  16.1920  16.5818  16.7097  16.7759  17.1268  17.2109
    17.8410  18.8423  18.8496  18.9867  19.5079  19.8288  19.9587  20.0817
    20.6323  20.6694  20.6930  21.1547  21.2266  21.4550  21.8009  22.3323
    22.6494  22.8730  23.0761  23.5491  23.6480  23.8598  23.8895  24.0694
    24.2809  24.4909  24.7571  24.8032  25.0412  25.2367  25.3756  25.4286
    25.6388

          k = 0.0000 0.2357 0.0000 ( 17822 PWs)   bands (ev):

    -1.9106  -0.5620  -0.1048   0.4309   1.1499   2.1613   3.3033   4.8545
     4.9985   5.1994   5.7754   6.3139   6.8536   7.1098   7.2937   8.2951
     8.4380   8.4583   8.6011   9.0996   9.4612   9.4845   9.6960   9.8644
    10.0543  10.2761  10.3206  10.5797  10.6221  10.7532  10.7657  10.8342
    10.8670  10.9112  11.0740  11.0833  11.0877  11.1338  11.1709  11.1793
    11.2389  11.2874  11.3706  11.4705  11.5182  11.6275  11.6470  11.6527
    11.6615  11.7366  11.7432  11.8228  11.8933  11.9185  11.9773  11.9881
    12.0530  12.0657  12.1268  12.2033  12.2624  12.3008  12.3290  12.3627
    12.4174  12.4915  12.4940  12.5029  12.6264  12.7054  12.7258  12.7572
    12.7601  12.8541  12.8644  12.9200  13.0340  13.0496  13.1261  13.1606
    13.2591  13.2910  13.4218  13.4282  13.4650  13.5087  13.5132  13.5738
    13.6233  13.6613  13.7164  13.7308  13.8198  13.8727  13.8793  13.9908
    13.9988  14.1233  14.1803  14.1870  14.2413  14.2843  14.3289  14.3301
    14.3833  14.4052  14.4682  14.4977  14.5479  14.5551  14.5933  14.6488
    14.6511  14.7206  14.7678  14.8063  14.8331  14.9073  14.9397  14.9515
    14.9927  15.0392  15.0992  15.1103  15.1365  15.2352  15.2757  15.3404
    15.3833  15.4351  15.4497  15.4930  15.5232  15.5590  15.6020  15.6213
    15.6311  15.6977  15.8097  15.8849  15.9250  15.9553  15.9738  16.0243
    16.0939  16.1571  16.2487  16.4338  16.6703  16.9069  17.2222  17.3855
    17.7554  19.1526  19.2567  19.4380  19.4451  20.4638  20.6115  20.6815
    20.7352  20.7660  21.0283  21.5540  21.9580  22.0628  22.1107  22.4545
    22.5601  22.6885  23.0244  23.2550  23.6490  23.8042  24.0793  24.0795
    24.1734  24.3183  24.5272  24.6993  24.7040  24.7111  24.9955  25.1388
    25.1496

          k = 0.0000 0.2946 0.0000 ( 17818 PWs)   bands (ev):

    -1.7088  -1.0249   0.1966   0.3853   1.3479   2.0171   3.7272   4.5272
     4.8492   5.1461   5.6153   6.5686   6.8528   7.1967   7.3700   7.9335
     8.3984   8.4348   8.9329   9.2641   9.4444   9.5843   9.7048   9.9265
    10.0123  10.0765  10.4547  10.5029  10.5668  10.7702  10.8305  10.8788
    10.9123  10.9544  11.0294  11.1176  11.1547  11.1932  11.2220  11.2546
    11.3217  11.3359  11.3705  11.3920  11.5404  11.6150  11.6675  11.6883
    11.7343  11.7448  11.7850  11.8891  11.9088  11.9433  11.9626  12.0351
    12.0365  12.1064  12.1591  12.1676  12.1924  12.2579  12.3149  12.4009
    12.4526  12.4664  12.5320  12.5627  12.6089  12.6219  12.6258  12.6958
    12.7331  12.8980  12.9022  12.9848  13.0350  13.1224  13.1282  13.2097
    13.2351  13.3319  13.3637  13.3637  13.3721  13.4524  13.4722  13.5642
    13.6640  13.6773  13.6954  13.7437  13.7834  13.8240  13.8839  13.9505
    13.9938  14.0114  14.0177  14.0287  14.1499  14.1845  14.2320  14.2369
    14.2909  14.3089  14.3444  14.4242  14.4425  14.4742  14.5305  14.5916
    14.6197  14.6672  14.7133  14.7235  14.8077  14.8512  14.8844  14.9161
    14.9538  14.9836  15.0263  15.0321  15.0542  15.1083  15.1994  15.2505
    15.2722  15.3350  15.4131  15.4301  15.4729  15.5205  15.5513  15.6231
    15.6316  15.6768  15.8468  15.8693  15.9254  15.9437  15.9853  16.0194
    16.0764  16.1795  16.3356  16.3758  16.5846  16.6868  17.3498  17.6332
    18.0605  19.1507  19.4849  19.5634  19.9733  20.2081  20.6198  21.1389
    21.3507  21.4217  21.5329  21.7797  22.0867  22.2596  22.3516  22.5677
    22.6425  22.9519  23.0738  23.3571  23.4330  23.6299  23.8322  23.8860
    23.9019  24.1261  24.3998  24.5289  24.6272  24.7665  24.8125  24.8875
    24.9634

          k = 0.0000-0.3536 0.0000 ( 17844 PWs)   bands (ev):

    -1.4111  -1.4111   0.3271   0.3271   1.7071   1.7071   4.1419   4.1419
     4.8676   4.8676   6.0586   6.0586   7.2286   7.2286   7.5635   7.5635
     8.3947   8.3947   9.3121   9.3121   9.3978   9.3978   9.7373   9.7373
    10.2514  10.2514  10.3056  10.3056  10.6765  10.6765  10.8192  10.8192
    11.0555  11.0555  11.1002  11.1002  11.1911  11.1911  11.2347  11.2347
    11.2690  11.2690  11.4196  11.4196  11.5831  11.5831  11.6847  11.6847
    11.8119  11.8119  11.8310  11.8310  11.9116  11.9116  11.9676  11.9676
    12.0461  12.0461  12.1918  12.1918  12.2659  12.2659  12.3345  12.3345
    12.4644  12.4644  12.5293  12.5293  12.5788  12.5788  12.6492  12.6492
    12.8219  12.8219  13.0192  13.0192  13.0596  13.0596  13.2561  13.2561
    13.3089  13.3089  13.3389  13.3389  13.3608  13.3608  13.5500  13.5500
    13.6012  13.6012  13.7623  13.7623  13.8103  13.8103  13.8467  13.8467
    13.8673  13.8673  14.0625  14.0625  14.1268  14.1268  14.1798  14.1798
    14.2045  14.2045  14.3330  14.3330  14.3956  14.3956  14.5718  14.5718
    14.6928  14.6928  14.7058  14.7058  14.7701  14.7701  14.8766  14.8766
    14.9115  14.9115  15.0692  15.0692  15.1327  15.1327  15.1627  15.1627
    15.1935  15.1935  15.4128  15.4128  15.4810  15.4810  15.6323  15.6323
    15.6392  15.6392  15.8864  15.8864  15.8977  15.8977  16.0060  16.0060
    16.1235  16.1235  16.3978  16.3978  16.5602  16.5602  17.4917  17.4917
    18.6684  18.6684  19.8206  19.8206  19.8867  19.8867  21.1495  21.1495
    21.5806  21.5806  21.8255  21.8255  22.2013  22.2013  22.3326  22.3326
    22.9802  22.9802  23.1986  23.1986  23.5337  23.5337  23.8240  23.8240
    24.0148  24.0148  24.3133  24.3133  24.5360  24.5361  24.7411  24.7411
    25.2280

          k = 0.1250 0.0000 0.0000 ( 17777 PWs)   bands (ev):

    -1.6827  -1.6827   0.5622   1.1460   1.8027   1.8027   2.1286   4.0817
     4.6043   5.6523   6.1679   6.2230   6.2231   8.0638   8.3870   8.4341
     8.4344   8.7378   8.8678   9.0694   9.5542   9.7353   9.7911   9.8779
     9.8790   9.9351   9.9367  10.1209  10.4096  10.4894  10.4926  10.5528
    10.7564  10.7713  10.8016  10.9592  11.0246  11.1067  11.1195  11.1287
    11.1986  11.2606  11.2725  11.3220  11.3562  11.3801  11.4440  11.4657
    11.4784  11.5242  11.5534  11.6048  11.6729  11.8640  11.8645  12.0265
    12.1015  12.2235  12.2503  12.2960  12.5410  12.5510  12.6189  12.6272
    12.7064  12.7281  12.7479  12.8284  12.8625  12.8917  12.9364  12.9386
    12.9879  13.0300  13.0599  13.1037  13.1293  13.1713  13.1850  13.2000
    13.2509  13.2584  13.3236  13.3513  13.4005  13.5042  13.5305  13.5655
    13.5879  13.7020  13.7261  13.8201  13.8634  13.9835  14.0159  14.0683
    14.0835  14.1902  14.2078  14.3320  14.3558  14.3700  14.4321  14.4890
    14.5474  14.5610  14.5613  14.6495  14.6670  14.6882  14.7715  14.7999
    14.8170  14.8396  14.9123  14.9531  15.0155  15.0743  15.0962  15.1086
    15.1931  15.2421  15.2471  15.2618  15.2743  15.4456  15.4690  15.4752
    15.5356  15.5474  15.6088  15.6492  15.6516  15.6929  15.7781  15.7942
    15.7946  15.8431  15.8722  15.8988  15.9049  15.9992  16.1765  16.1800
    16.3177  16.8988  17.2385  17.4507  17.4542  17.5642  17.5884  17.6196
    17.9801  18.0229  18.2956  18.3285  18.4804  18.7766  18.8270  18.8839
    19.0417  19.3056  19.3523  19.5376  20.9170  20.9188  20.9932  21.4425
    22.3189  22.7059  23.5285  23.6266  23.6364  23.9523  24.0209  24.0381
    24.1559  24.2350  24.2771  24.7014  24.7600  24.9225  24.9286  25.2170
    25.6156

          k = 0.1250 0.0589 0.0000 ( 17791 PWs)   bands (ev):

    -1.8907  -1.3772   0.5498   0.9526   1.5237   2.1303   2.1416   4.2934
     4.6550   5.6203   5.9028   6.2156   6.5381   8.1011   8.2933   8.3200
     8.4603   8.5012   8.9087   9.0460   9.4644   9.4953   9.6915   9.7824
    10.0807  10.0811  10.1724  10.1930  10.4735  10.4940  10.5156  10.6130
    10.7319  10.7908  10.8146  10.9680  11.0072  11.0902  11.1427  11.1777
    11.2086  11.2639  11.3079  11.3451  11.3636  11.3880  11.4292  11.4800
    11.5273  11.5488  11.5634  11.6672  11.6884  11.7849  11.9406  12.0389
    12.1086  12.2016  12.2558  12.2815  12.4626  12.5325  12.5638  12.5895
    12.6522  12.7158  12.7500  12.8357  12.8443  12.9027  12.9123  12.9133
    12.9891  13.0329  13.0617  13.1151  13.1187  13.1654  13.1788  13.2060
    13.2196  13.2598  13.3274  13.3489  13.4187  13.4877  13.5064  13.5788
    13.6177  13.6742  13.7316  13.7547  13.8607  13.9166  14.0235  14.0545
    14.0868  14.1598  14.2154  14.2947  14.3177  14.3491  14.4333  14.4490
    14.5247  14.5314  14.6094  14.6288  14.6446  14.6915  14.7435  14.7589
    14.8501  14.8538  14.9139  14.9300  15.0078  15.0587  15.0946  15.1246
    15.1666  15.2330  15.2607  15.2861  15.3497  15.4002  15.4264  15.5077
    15.5198  15.5674  15.5931  15.6182  15.6794  15.6962  15.7241  15.7621
    15.8045  15.8437  15.8505  15.8822  15.8878  15.9835  16.0259  16.3343
    16.4247  16.8629  16.8736  16.9243  17.1649  17.2804  17.4713  17.7412
    18.0385  18.3085  18.5047  18.5796  18.5868  18.8399  18.9150  19.1140
    19.1442  19.4267  19.5988  19.6027  20.9733  21.0349  21.2343  21.4790
    22.3705  22.7658  22.7679  23.4368  23.5395  23.5888  23.9216  23.9620
    24.1146  24.1605  24.5821  24.6151  25.0201  25.1846  25.2024  25.5457
    25.7580

          k = 0.1250 0.1179 0.0000 ( 17815 PWs)   bands (ev):

    -1.9961  -0.9867   0.4978   0.5206   1.3044   2.1758   2.4972   4.7180
     4.8429   5.5556   5.5916   6.3558   6.8320   7.5250   8.0447   8.2345
     8.5010   8.5145   9.0204   9.0611   9.0754   9.5125   9.6586   9.7443
    10.0973  10.2112  10.3772  10.3789  10.5294  10.5623  10.5916  10.7272
    10.7891  10.7927  10.8558  10.9578  11.0733  11.0851  11.1457  11.2394
    11.2440  11.3005  11.3314  11.3910  11.4026  11.4479  11.4806  11.5623
    11.5880  11.6311  11.6361  11.6989  11.7314  11.7986  11.9764  12.0599
    12.1198  12.1625  12.2286  12.2502  12.3607  12.3938  12.4747  12.5454
    12.5541  12.6974  12.6986  12.7643  12.8027  12.8356  12.8717  12.9287
    12.9453  12.9950  13.0493  13.0562  13.1261  13.1414  13.1781  13.2006
    13.2080  13.3011  13.3216  13.3433  13.4384  13.4728  13.5146  13.5664
    13.6159  13.6618  13.6937  13.7573  13.7879  13.8422  13.9647  13.9863
    14.0684  14.0789  14.1935  14.2168  14.2829  14.3017  14.4035  14.4396
    14.4662  14.5048  14.5083  14.5911  14.6388  14.6603  14.7091  14.7693
    14.7869  14.8667  14.8793  14.9494  14.9597  15.0156  15.0787  15.0817
    15.1262  15.1979  15.2472  15.2812  15.2931  15.3628  15.3924  15.4585
    15.5398  15.5727  15.5805  15.6124  15.6259  15.6983  15.6993  15.7682
    15.7973  15.8242  15.8450  15.8775  15.9001  15.9441  16.1337  16.2817
    16.3483  16.3527  16.5476  16.6761  16.8456  16.8523  17.0481  18.0033
    18.0412  18.3210  18.6790  18.8150  19.0261  19.1172  19.2080  19.3226
    19.5283  19.7911  20.1886  20.3111  21.1536  21.2010  21.4389  21.5791
    22.0916  22.5189  22.9402  23.0661  23.1105  23.4147  23.4876  23.5713
    23.9885  24.1732  24.4795  24.7827  25.1221  25.5646  25.6501  25.7789
    25.9256

          k = 0.1250 0.1768 0.0000 ( 17796 PWs)   bands (ev):

    -1.9974  -0.5400  -0.0289   0.4725   1.1651   2.2061   2.8941   4.9828
     5.0559   5.3062   5.7266   6.5782   6.6573   7.0802   7.6687   8.4317
     8.4780   8.5797   8.6929   9.0859   9.2335   9.5651   9.6326   9.8091
    10.1667  10.2272  10.4207  10.5355  10.5870  10.6328  10.6909  10.7458
    10.8034  10.8615  10.9554  11.0380  11.0681  11.1337  11.1857  11.2269
    11.2765  11.3345  11.4273  11.4480  11.4758  11.5232  11.6232  11.6300
    11.6727  11.6889  11.7275  11.7473  11.8159  11.8801  11.9749  12.0430
    12.1024  12.1261  12.1869  12.2079  12.2877  12.3091  12.4029  12.4335
    12.4834  12.6007  12.6310  12.6864  12.7284  12.7816  12.8238  12.8729
    12.9103  12.9238  12.9741  12.9944  13.0956  13.1105  13.1235  13.1968
    13.2179  13.2991  13.3371  13.4010  13.4459  13.4641  13.5120  13.5693
    13.5876  13.6053  13.6819  13.7000  13.8066  13.8562  13.8646  13.9142
    13.9571  14.0002  14.0992  14.1665  14.2018  14.2437  14.3381  14.3901
    14.3950  14.4444  14.4977  14.5000  14.5439  14.6209  14.6333  14.7389
    14.7459  14.8213  14.8349  14.8846  14.8877  14.9543  15.0051  15.0422
    15.0830  15.1141  15.1143  15.2351  15.3130  15.3179  15.3803  15.3923
    15.4456  15.4825  15.5573  15.5650  15.6115  15.6331  15.6799  15.7296
    15.7802  15.7973  15.8095  15.8630  15.8812  15.9030  15.9517  16.0644
    16.1301  16.2383  16.2434  16.6771  16.7191  16.7998  17.0773  17.7236
    18.1439  18.3005  18.8723  19.1020  19.3221  19.4948  19.6430  20.0295
    20.0838  20.1760  20.6630  20.9791  21.3155  21.3358  21.3808  21.7212
    21.8358  22.6437  22.7308  22.8148  23.2081  23.2132  23.2782  23.6221
    24.0185  24.1897  24.3316  24.6058  24.8605  25.5123  25.5936  25.8424
    25.9381

          k = 0.1250 0.2357 0.0000 ( 17785 PWs)   bands (ev):

    -1.8953  -0.5460  -0.1057   0.4258   1.1535   2.1799   3.3096   4.8481
     5.0712   5.3001   5.7792   6.3558   6.8709   7.1108   7.3365   8.2760
     8.4884   8.5829   8.7177   9.2039   9.4628   9.5017   9.7472   9.9400
    10.0676  10.3089  10.3258  10.6160  10.6485  10.7070  10.7818  10.7864
    10.8931  10.9111  10.9891  11.0912  11.1111  11.1711  11.1968  11.2404
    11.3076  11.4073  11.4485  11.4818  11.5809  11.5888  11.6240  11.6707
    11.7012  11.7831  11.8341  11.8457  11.9216  11.9470  12.0157  12.0251
    12.0995  12.1012  12.1630  12.2133  12.2469  12.2693  12.3468  12.3867
    12.4155  12.4894  12.5737  12.6019  12.6495  12.7508  12.7802  12.7935
    12.8371  12.8626  12.9536  12.9725  13.0342  13.0488  13.1096  13.1638
    13.1951  13.2344  13.3457  13.3666  13.4570  13.4800  13.4933  13.5472
    13.5644  13.5909  13.6683  13.7225  13.7307  13.8004  13.8364  13.8463
    13.9152  13.9616  14.0043  14.0546  14.0939  14.1707  14.2597  14.2734
    14.3281  14.3502  14.4231  14.4444  14.4883  14.5613  14.5720  14.6044
    14.6412  14.7407  14.8010  14.8338  14.8564  14.8575  14.8986  14.9447
    14.9991  15.0961  15.1066  15.1272  15.1739  15.2414  15.2668  15.3386
    15.3865  15.4224  15.4496  15.4598  15.5335  15.5489  15.5978  15.6081
    15.6935  15.7394  15.8003  15.8311  15.8509  15.9032  15.9407  16.0057
    16.0413  16.1110  16.2930  16.6043  16.7208  17.1260  17.3825  17.3881
    17.9748  18.5910  19.0049  19.4116  19.6899  19.9580  20.0417  20.1249
    20.4542  20.7027  20.9387  21.0848  21.3181  21.5652  21.8860  21.9680
    22.0607  22.2623  22.6043  22.8707  23.1771  23.3532  23.5072  23.6864
    23.9864  24.2026  24.4269  24.4521  24.5890  24.9838  25.2081  25.5545
    25.9444

          k = 0.1250 0.2946 0.0000 ( 17801 PWs)   bands (ev):

    -1.6929  -1.0084   0.1931   0.3807   1.3494   2.0234   3.7301   4.5211
     4.9285   5.2211   5.7011   6.6351   6.8343   7.2084   7.3448   7.9309
     8.4482   8.5395   9.0347   9.3685   9.4603   9.6310   9.7744   9.9650
    10.0891  10.1477  10.5090  10.5270  10.5976  10.8183  10.8427  10.9066
    10.9131  10.9495  10.9880  11.0825  11.1265  11.1985  11.2600  11.2698
    11.3762  11.3801  11.4410  11.4968  11.5706  11.5843  11.6735  11.7223
    11.7817  11.8361  11.8721  11.8994  11.9550  11.9975  12.0018  12.0819
    12.0935  12.1434  12.1689  12.2165  12.2543  12.2638  12.3560  12.3867
    12.4111  12.4847  12.5225  12.5666  12.6053  12.6602  12.6682  12.7053
    12.7888  12.8903  12.9053  12.9987  13.0180  13.0710  13.0780  13.1716
    13.1758  13.2209  13.2614  13.3555  13.3815  13.4074  13.5178  13.5381
    13.5797  13.5909  13.6337  13.6656  13.6975  13.7220  13.7708  13.7842
    13.8730  13.9016  13.9522  13.9652  14.0590  14.0729  14.0998  14.1619
    14.2408  14.3278  14.4074  14.4330  14.4647  14.5223  14.5289  14.5987
    14.5997  14.6603  14.6746  14.7258  14.7595  14.7916  14.8564  14.8751
    14.9325  14.9628  15.0188  15.0518  15.0622  15.1363  15.1879  15.2019
    15.2787  15.3621  15.4057  15.4898  15.5167  15.5694  15.5925  15.6342
    15.6731  15.7740  15.7990  15.8238  15.8463  15.8776  15.9031  15.9438
    16.0955  16.1169  16.3964  16.5153  16.7243  17.0932  17.3488  17.7796
    17.9620  18.8616  18.9086  19.4839  19.7407  20.0870  20.4341  20.4871
    20.7278  20.8659  20.9625  21.3591  21.6389  21.8109  21.9520  22.0567
    22.0893  22.5795  22.6058  22.7027  23.4842  23.5061  23.7117  23.7714
    23.8494  24.1444  24.3542  24.5113  24.5305  24.6801  24.8395  25.1682
    25.5653

          k = 0.1250-0.3536 0.0000 ( 17808 PWs)   bands (ev):

    -1.3947  -1.3947   0.3228   0.3229   1.7076   1.7076   4.1396   4.1396
     4.9500   4.9500   6.1425   6.1425   7.1905   7.1905   7.5689   7.5689
     8.4737   8.4737   9.3616   9.3616   9.4855   9.4855   9.8326   9.8326
    10.2974  10.2974  10.3598  10.3598  10.7102  10.7102  10.8494  10.8494
    11.0260  11.0260  11.0935  11.0935  11.2097  11.2097  11.2516  11.2516
    11.3010  11.3010  11.4461  11.4461  11.6389  11.6389  11.7132  11.7132
    11.8454  11.8454  11.8684  11.8684  11.9741  11.9741  12.0324  12.0324
    12.1219  12.1219  12.2376  12.2376  12.2929  12.2929  12.3618  12.3618
    12.4556  12.4556  12.5055  12.5055  12.6147  12.6147  12.6852  12.6852
    12.8004  12.8004  12.9820  12.9820  13.0029  13.0029  13.1115  13.1115
    13.2401  13.2401  13.3090  13.3090  13.4183  13.4183  13.4782  13.4782
    13.5601  13.5601  13.6336  13.6336  13.6951  13.6951  13.7412  13.7412
    13.8217  13.8217  13.8969  13.8969  13.9698  13.9698  14.2310  14.2310
    14.2690  14.2690  14.3985  14.3985  14.5015  14.5015  14.5387  14.5387
    14.6156  14.6157  14.6652  14.6652  14.7071  14.7071  14.8231  14.8231
    14.8894  14.8894  14.9515  14.9515  15.1409  15.1409  15.1928  15.1928
    15.2685  15.2685  15.4325  15.4325  15.5580  15.5580  15.6395  15.6395
    15.7124  15.7124  15.8203  15.8203  15.8561  15.8561  15.9159  15.9159
    16.1143  16.1143  16.4649  16.4649  16.8562  16.8562  17.5659  17.5659
    18.5203  18.5203  19.1221  19.1221  20.0850  20.0850  20.4884  20.4884
    20.9418  20.9418  21.2352  21.2352  21.7918  21.7918  22.0662  22.0662
    22.2438  22.2438  23.0244  23.0244  23.2011  23.2011  23.8075  23.8075
    24.0748  24.0748  24.4567  24.4567  24.7181  24.7181  24.8767  24.8767
    25.4223

          k = 0.1250-0.2946 0.0000 ( 17801 PWs)   bands (ev):

    -1.6929  -1.0084   0.1931   0.3807   1.3494   2.0234   3.7301   4.5211
     4.9285   5.2211   5.7011   6.6351   6.8343   7.2084   7.3448   7.9309
     8.4482   8.5395   9.0347   9.3685   9.4603   9.6310   9.7744   9.9650
    10.0891  10.1477  10.5090  10.5270  10.5976  10.8183  10.8427  10.9066
    10.9131  10.9495  10.9880  11.0825  11.1265  11.1985  11.2600  11.2698
    11.3762  11.3801  11.4410  11.4968  11.5706  11.5843  11.6735  11.7223
    11.7817  11.8361  11.8721  11.8994  11.9550  11.9975  12.0018  12.0819
    12.0935  12.1434  12.1689  12.2165  12.2543  12.2638  12.3560  12.3867
    12.4111  12.4847  12.5225  12.5666  12.6053  12.6602  12.6682  12.7053
    12.7888  12.8903  12.9053  12.9987  13.0180  13.0710  13.0780  13.1716
    13.1758  13.2209  13.2614  13.3555  13.3815  13.4074  13.5178  13.5381
    13.5797  13.5909  13.6337  13.6656  13.6975  13.7220  13.7708  13.7842
    13.8730  13.9016  13.9522  13.9652  14.0590  14.0729  14.0998  14.1618
    14.2408  14.3278  14.4074  14.4330  14.4647  14.5223  14.5289  14.5987
    14.5997  14.6603  14.6746  14.7258  14.7595  14.7916  14.8564  14.8751
    14.9325  14.9628  15.0188  15.0518  15.0622  15.1363  15.1879  15.2019
    15.2787  15.3621  15.4057  15.4898  15.5167  15.5694  15.5925  15.6342
    15.6731  15.7740  15.7990  15.8238  15.8463  15.8776  15.9031  15.9438
    16.0955  16.1169  16.3964  16.5153  16.7243  17.0932  17.3488  17.7796
    17.9620  18.8616  18.9086  19.4839  19.7407  20.0870  20.4341  20.4871
    20.7278  20.8659  20.9625  21.3591  21.6389  21.8109  21.9520  22.0567
    22.0893  22.5795  22.6058  22.7027  23.4842  23.5061  23.7117  23.7714
    23.8493  24.1444  24.3542  24.5113  24.5305  24.6801  24.8395  25.1681
    25.5653

          k = 0.1250-0.2357 0.0000 ( 17785 PWs)   bands (ev):

    -1.8953  -0.5460  -0.1057   0.4258   1.1535   2.1799   3.3096   4.8481
     5.0712   5.3001   5.7792   6.3558   6.8709   7.1108   7.3365   8.2760
     8.4884   8.5829   8.7177   9.2039   9.4628   9.5017   9.7472   9.9400
    10.0676  10.3089  10.3258  10.6160  10.6485  10.7070  10.7818  10.7864
    10.8931  10.9111  10.9891  11.0912  11.1111  11.1711  11.1968  11.2404
    11.3076  11.4073  11.4485  11.4818  11.5809  11.5888  11.6240  11.6707
    11.7012  11.7831  11.8341  11.8457  11.9216  11.9470  12.0157  12.0251
    12.0995  12.1012  12.1630  12.2133  12.2469  12.2693  12.3468  12.3867
    12.4155  12.4894  12.5737  12.6019  12.6495  12.7508  12.7802  12.7935
    12.8371  12.8626  12.9536  12.9725  13.0342  13.0488  13.1096  13.1638
    13.1951  13.2344  13.3457  13.3666  13.4570  13.4800  13.4933  13.5472
    13.5644  13.5909  13.6683  13.7225  13.7307  13.8004  13.8364  13.8462
    13.9152  13.9616  14.0043  14.0546  14.0939  14.1707  14.2597  14.2734
    14.3281  14.3502  14.4231  14.4444  14.4883  14.5613  14.5720  14.6044
    14.6412  14.7407  14.8010  14.8338  14.8564  14.8575  14.8986  14.9447
    14.9991  15.0961  15.1066  15.1272  15.1739  15.2414  15.2668  15.3386
    15.3865  15.4224  15.4496  15.4598  15.5335  15.5489  15.5978  15.6081
    15.6935  15.7394  15.8003  15.8311  15.8509  15.9032  15.9407  16.0057
    16.0413  16.1110  16.2930  16.6043  16.7208  17.1260  17.3825  17.3881
    17.9748  18.5910  19.0049  19.4116  19.6899  19.9580  20.0417  20.1249
    20.4542  20.7027  20.9387  21.0848  21.3181  21.5652  21.8860  21.9680
    22.0607  22.2623  22.6043  22.8707  23.1771  23.3532  23.5072  23.6864
    23.9864  24.2026  24.4269  24.4521  24.5890  24.9839  25.2081  25.5545
    25.9447

          k = 0.1250-0.1768 0.0000 ( 17796 PWs)   bands (ev):

    -1.9974  -0.5400  -0.0289   0.4725   1.1651   2.2061   2.8941   4.9828
     5.0559   5.3062   5.7266   6.5782   6.6573   7.0802   7.6687   8.4317
     8.4780   8.5797   8.6929   9.0859   9.2335   9.5651   9.6326   9.8091
    10.1667  10.2272  10.4207  10.5355  10.5870  10.6328  10.6909  10.7458
    10.8034  10.8615  10.9554  11.0380  11.0681  11.1337  11.1857  11.2269
    11.2765  11.3345  11.4273  11.4480  11.4758  11.5232  11.6232  11.6300
    11.6727  11.6889  11.7275  11.7473  11.8159  11.8801  11.9749  12.0430
    12.1024  12.1261  12.1869  12.2079  12.2877  12.3091  12.4029  12.4335
    12.4834  12.6007  12.6310  12.6864  12.7284  12.7816  12.8238  12.8729
    12.9103  12.9238  12.9741  12.9944  13.0956  13.1105  13.1235  13.1968
    13.2179  13.2991  13.3371  13.4010  13.4459  13.4641  13.5120  13.5693
    13.5876  13.6053  13.6819  13.7000  13.8066  13.8562  13.8646  13.9142
    13.9571  14.0002  14.0992  14.1665  14.2018  14.2437  14.3381  14.3901
    14.3950  14.4444  14.4977  14.5000  14.5439  14.6209  14.6333  14.7389
    14.7459  14.8213  14.8349  14.8846  14.8877  14.9543  15.0051  15.0422
    15.0830  15.1141  15.1143  15.2351  15.3130  15.3179  15.3803  15.3923
    15.4456  15.4825  15.5573  15.5650  15.6115  15.6331  15.6799  15.7296
    15.7802  15.7973  15.8095  15.8630  15.8812  15.9030  15.9517  16.0644
    16.1301  16.2383  16.2434  16.6771  16.7191  16.7998  17.0773  17.7236
    18.1439  18.3005  18.8723  19.1020  19.3221  19.4948  19.6430  20.0295
    20.0838  20.1760  20.6630  20.9791  21.3155  21.3358  21.3808  21.7212
    21.8358  22.6437  22.7308  22.8148  23.2081  23.2132  23.2782  23.6221
    24.0185  24.1897  24.3316  24.6058  24.8605  25.5123  25.5936  25.8423
    25.9388

          k = 0.1250-0.1179 0.0000 ( 17815 PWs)   bands (ev):

    -1.9961  -0.9867   0.4978   0.5206   1.3044   2.1758   2.4972   4.7180
     4.8429   5.5556   5.5916   6.3558   6.8320   7.5250   8.0447   8.2345
     8.5010   8.5145   9.0204   9.0611   9.0754   9.5125   9.6586   9.7443
    10.0973  10.2112  10.3772  10.3789  10.5294  10.5623  10.5916  10.7272
    10.7891  10.7927  10.8558  10.9578  11.0733  11.0851  11.1457  11.2394
    11.2440  11.3005  11.3314  11.3910  11.4026  11.4479  11.4806  11.5623
    11.5880  11.6311  11.6361  11.6989  11.7314  11.7986  11.9764  12.0599
    12.1198  12.1625  12.2286  12.2502  12.3607  12.3938  12.4747  12.5454
    12.5541  12.6974  12.6986  12.7643  12.8027  12.8356  12.8717  12.9287
    12.9453  12.9950  13.0493  13.0562  13.1261  13.1414  13.1781  13.2006
    13.2080  13.3011  13.3216  13.3433  13.4384  13.4728  13.5146  13.5664
    13.6159  13.6618  13.6937  13.7573  13.7879  13.8422  13.9647  13.9863
    14.0684  14.0789  14.1935  14.2168  14.2829  14.3017  14.4035  14.4396
    14.4662  14.5048  14.5083  14.5911  14.6388  14.6603  14.7091  14.7693
    14.7869  14.8667  14.8793  14.9494  14.9597  15.0156  15.0787  15.0817
    15.1262  15.1979  15.2472  15.2812  15.2931  15.3628  15.3924  15.4585
    15.5398  15.5727  15.5805  15.6124  15.6259  15.6983  15.6993  15.7682
    15.7973  15.8242  15.8450  15.8775  15.9001  15.9441  16.1337  16.2817
    16.3483  16.3527  16.5476  16.6761  16.8456  16.8523  17.0481  18.0033
    18.0412  18.3210  18.6790  18.8150  19.0261  19.1172  19.2080  19.3226
    19.5283  19.7911  20.1886  20.3111  21.1536  21.2010  21.4389  21.5791
    22.0916  22.5189  22.9402  23.0661  23.1105  23.4147  23.4876  23.5713
    23.9885  24.1732  24.4795  24.7827  25.1221  25.5645  25.6500  25.7788
    25.9256

          k = 0.1250-0.0589 0.0000 ( 17791 PWs)   bands (ev):

    -1.8907  -1.3772   0.5498   0.9526   1.5237   2.1303   2.1416   4.2934
     4.6550   5.6203   5.9028   6.2156   6.5381   8.1011   8.2933   8.3200
     8.4603   8.5012   8.9087   9.0460   9.4644   9.4953   9.6915   9.7824
    10.0807  10.0811  10.1724  10.1930  10.4735  10.4940  10.5156  10.6130
    10.7319  10.7908  10.8146  10.9680  11.0072  11.0902  11.1427  11.1777
    11.2086  11.2639  11.3079  11.3451  11.3636  11.3880  11.4292  11.4800
    11.5273  11.5488  11.5634  11.6672  11.6884  11.7849  11.9406  12.0389
    12.1086  12.2016  12.2558  12.2815  12.4626  12.5325  12.5638  12.5895
    12.6522  12.7158  12.7500  12.8357  12.8443  12.9027  12.9123  12.9133
    12.9891  13.0329  13.0617  13.1151  13.1187  13.1654  13.1788  13.2060
    13.2196  13.2598  13.3274  13.3489  13.4187  13.4878  13.5064  13.5788
    13.6177  13.6742  13.7316  13.7547  13.8607  13.9166  14.0235  14.0545
    14.0868  14.1598  14.2154  14.2947  14.3177  14.3491  14.4333  14.4490
    14.5247  14.5314  14.6094  14.6288  14.6446  14.6915  14.7435  14.7589
    14.8501  14.8538  14.9139  14.9300  15.0078  15.0587  15.0946  15.1246
    15.1666  15.2330  15.2607  15.2861  15.3497  15.4002  15.4264  15.5077
    15.5198  15.5674  15.5931  15.6182  15.6794  15.6962  15.7241  15.7621
    15.8045  15.8437  15.8505  15.8822  15.8878  15.9835  16.0259  16.3343
    16.4247  16.8629  16.8736  16.9243  17.1649  17.2804  17.4713  17.7412
    18.0385  18.3085  18.5047  18.5796  18.5868  18.8399  18.9150  19.1140
    19.1442  19.4267  19.5988  19.6027  20.9733  21.0349  21.2343  21.4790
    22.3705  22.7658  22.7679  23.4368  23.5395  23.5888  23.9216  23.9620
    24.1146  24.1605  24.5821  24.6151  25.0201  25.1846  25.2024  25.5457
    25.7577

          k = 0.2500 0.0000 0.0000 ( 17793 PWs)   bands (ev):

    -1.6573  -1.6572   0.5474   1.1554   1.8215   1.8215   2.2516   4.1407
     4.8366   5.5884   6.3259   6.3260   6.3516   8.3403   8.3406   8.3848
     8.5243   8.8655   8.9639   9.2700   9.6064   9.7219   9.7739   9.7763
     9.9402   9.9453   9.9742  10.1064  10.2583  10.5252  10.5274  10.5667
    10.6546  10.6586  10.7562  10.9177  10.9712  11.1930  11.1961  11.2273
    11.2447  11.2645  11.2984  11.3309  11.3479  11.4039  11.4146  11.5347
    11.5428  11.5533  11.7494  11.7693  11.7765  12.0577  12.0775  12.0805
    12.2408  12.3758  12.4107  12.4286  12.6775  12.6887  12.6959  12.7176
    12.8466  12.8573  12.8655  12.8665  12.8748  12.9524  13.0142  13.0265
    13.1170  13.1464  13.1470  13.1964  13.2502  13.2674  13.2817  13.3386
    13.3664  13.4029  13.4043  13.4111  13.4674  13.5137  13.5476  13.5914
    13.5931  13.7395  13.7627  13.8015  13.8101  13.8275  13.8627  13.8909
    13.9552  14.0402  14.0472  14.0579  14.1738  14.2623  14.2676  14.3171
    14.3419  14.3828  14.3898  14.4696  14.5266  14.5386  14.6727  14.7603
    14.7639  14.8150  14.8808  14.8964  14.9097  14.9393  14.9666  15.0600
    15.1407  15.1502  15.1651  15.2347  15.3045  15.3504  15.3731  15.3750
    15.4715  15.5010  15.5465  15.6078  15.6301  15.6460  15.6580  15.7314
    15.7513  15.7712  15.7918  15.8168  15.9277  15.9460  16.1337  16.3017
    16.3036  16.6993  16.7718  17.1517  17.2901  17.2922  17.3088  17.4311
    17.6867  17.7131  18.2156  18.2287  18.7792  18.8083  18.9303  19.0672
    19.3102  19.3426  19.4568  19.6182  20.3713  20.4247  21.3313  21.3346
    21.5334  22.2623  22.4356  22.4438  22.8626  22.8759  22.9154  22.9535
    23.2232  23.2717  23.2849  23.4505  23.4952  23.6458  24.6179  24.6726
    25.1245

          k = 0.2500 0.0589 0.0000 ( 17783 PWs)   bands (ev):

    -1.8614  -1.3566   0.5351   0.9696   1.5400   2.1510   2.2585   4.3357
     4.8928   5.5582   6.0334   6.3949   6.6052   8.2218   8.2578   8.4040
     8.4561   8.9077   8.9532   9.2096   9.4833   9.5570   9.8055   9.8061
    10.0171  10.0177  10.0798  10.1223  10.3027  10.5241  10.5376  10.5651
    10.7009  10.7728  10.7810  10.9518  10.9883  11.1595  11.2039  11.2631
    11.2729  11.3029  11.3044  11.3366  11.3852  11.4212  11.4478  11.5102
    11.5492  11.6001  11.7325  11.7878  11.8082  12.0337  12.0827  12.0990
    12.2448  12.3794  12.4080  12.4164  12.6059  12.6727  12.6914  12.6996
    12.7976  12.8111  12.8447  12.8874  12.8920  12.9388  12.9892  13.0548
    13.0874  13.1176  13.1495  13.1915  13.2136  13.2610  13.2769  13.3285
    13.3489  13.3920  13.4036  13.4292  13.4692  13.5015  13.5123  13.5629
    13.6070  13.7119  13.7291  13.7371  13.7751  13.7973  13.8536  13.8842
    13.9609  13.9877  13.9928  14.0817  14.1029  14.2080  14.2283  14.2941
    14.3029  14.3512  14.4169  14.4660  14.5183  14.5921  14.6658  14.7311
    14.7471  14.8352  14.8442  14.8876  14.9194  14.9698  14.9915  15.0540
    15.1065  15.1267  15.1716  15.2782  15.3137  15.3156  15.3964  15.3973
    15.4341  15.4859  15.5576  15.6164  15.6262  15.6319  15.6630  15.7206
    15.7629  15.7636  15.7992  15.8422  15.8922  15.9117  16.0561  16.1987
    16.4709  16.6840  16.7947  16.8401  16.9871  17.1116  17.3132  17.5621
    17.6379  17.8098  18.0946  18.5464  18.7827  18.8511  18.9026  19.1284
    19.4121  19.6734  19.7405  19.8921  20.1616  20.2321  21.4392  21.5525
    21.6935  21.7815  22.0943  22.1753  22.2764  22.4900  22.7522  23.3360
    23.4673  23.6551  23.6977  23.7578  24.0484  24.1896  24.3529  24.8551
    25.1418

          k = 0.2500 0.1179 0.0000 ( 17763 PWs)   bands (ev):

    -1.9636  -0.9723   0.4980   0.5347   1.3181   2.2770   2.5190   4.7515
     5.0588   5.4982   5.7454   6.5230   6.8490   7.6122   8.0308   8.4254
     8.5666   8.9368   9.0328   9.1489   9.2493   9.6145   9.6894   9.9047
    10.0172  10.1758  10.2170  10.2190  10.4078  10.4479  10.5653  10.6256
    10.8277  10.8562  10.9251  11.0306  11.0560  11.1388  11.2600  11.2885
    11.3295  11.3416  11.3703  11.4099  11.4733  11.4978  11.5028  11.5321
    11.5746  11.6523  11.7363  11.8171  11.8815  12.0041  12.0929  12.1108
    12.2460  12.3600  12.3639  12.4051  12.4939  12.5898  12.6486  12.6644
    12.7181  12.7643  12.7952  12.8267  12.8453  12.9046  12.9622  12.9817
    13.0279  13.0805  13.1167  13.1538  13.2011  13.2344  13.2670  13.3263
    13.3399  13.3490  13.4046  13.4231  13.4430  13.4659  13.5122  13.5375
    13.5660  13.6227  13.6474  13.6690  13.6809  13.7559  13.7726  13.8277
    13.8651  13.9425  13.9738  14.0114  14.0402  14.0869  14.1342  14.2398
    14.2694  14.2984  14.4228  14.4232  14.5088  14.5733  14.6205  14.6353
    14.7106  14.7622  14.8203  14.8740  14.9279  14.9355  15.0093  15.0253
    15.0991  15.1371  15.1574  15.2524  15.2948  15.3841  15.4119  15.4305
    15.4650  15.4984  15.5282  15.5367  15.6072  15.6211  15.6521  15.6591
    15.7088  15.7490  15.7934  15.8126  15.8684  15.8939  16.0729  16.1259
    16.3181  16.3535  16.7143  16.7289  16.8648  17.1598  17.1941  17.4689
    17.5225  17.7898  18.1855  18.5607  19.0348  19.2486  19.2730  19.4360
    19.6277  19.6377  19.8358  19.8420  20.5470  20.8017  21.1991  21.2893
    21.4228  21.6083  21.7096  22.0643  22.3169  22.3426  22.6152  23.4863
    23.6712  23.8529  23.8632  24.5331  24.6917  24.8535  24.9878  25.1915
    25.3003

          k = 0.2500 0.1768 0.0000 ( 17751 PWs)   bands (ev):

    -1.9622  -0.5335   0.0067   0.4591   1.1763   2.2831   2.9154   5.0181
     5.2230   5.4806   5.6579   6.7086   6.8747   7.0199   7.7594   8.4094
     8.7579   8.8147   8.9141   9.2256   9.3924   9.6009   9.7406   9.9539
    10.1260  10.1946  10.3217  10.3600  10.4526  10.5489  10.6291  10.7229
    10.8757  10.8938  11.0391  11.1139  11.1503  11.2134  11.2912  11.3688
    11.3703  11.4196  11.4306  11.4834  11.5516  11.5737  11.6390  11.6432
    11.6689  11.6748  11.7891  11.8604  11.9481  11.9985  12.0916  12.0935
    12.2050  12.2970  12.3080  12.3653  12.4218  12.4800  12.5682  12.5743
    12.6053  12.6788  12.7271  12.7614  12.8148  12.8443  12.8668  12.8807
    12.9472  12.9953  13.0768  13.1349  13.1855  13.1983  13.2369  13.2741
    13.2962  13.3021  13.3403  13.3995  13.4294  13.4432  13.4487  13.5003
    13.5252  13.5582  13.5724  13.6264  13.6402  13.6534  13.6898  13.7127
    13.8173  13.8201  13.9460  13.9623  13.9631  14.0394  14.0457  14.1630
    14.2169  14.2774  14.2958  14.3704  14.3875  14.4614  14.4858  14.5584
    14.6880  14.6968  14.7430  14.8561  14.8600  14.9100  14.9214  15.0213
    15.1024  15.1540  15.1630  15.2278  15.3163  15.3189  15.3511  15.4277
    15.4476  15.4512  15.4947  15.5172  15.5580  15.5648  15.6180  15.6295
    15.6512  15.6580  15.6862  15.7631  15.7752  15.8033  15.9445  15.9532
    16.3291  16.4946  16.5492  16.7800  16.8293  16.9977  17.1766  17.4341
    17.8198  18.0742  18.3284  18.3884  19.0370  19.1586  19.2498  19.4927
    19.9475  20.1074  20.1207  20.3303  20.6602  20.8347  20.9491  21.1550
    21.3797  21.6987  21.9486  22.0925  22.3802  22.3840  22.8988  23.4772
    23.6711  23.7168  24.1086  25.0874  25.2580  25.2762  25.6187  25.6310
    25.7763

          k = 0.2500 0.2357 0.0000 ( 17768 PWs)   bands (ev):

    -1.8581  -0.5069  -0.1084   0.4132   1.1619   2.2250   3.3282   4.8372
     5.2643   5.5241   5.7917   6.4540   7.0204   7.0256   7.4678   8.2962
     8.5911   8.8516   9.0110   9.4289   9.5418   9.6005   9.8732  10.0674
    10.1108  10.2836  10.3402  10.5406  10.5681  10.6997  10.7172  10.7947
    10.8805  10.9368  11.1310  11.1502  11.2174  11.2240  11.3308  11.3610
    11.4247  11.4295  11.5187  11.6030  11.6393  11.6400  11.6977  11.7353
    11.7457  11.8481  11.8837  11.9228  11.9621  12.0486  12.0758  12.1147
    12.1658  12.2504  12.2792  12.2887  12.3999  12.4084  12.4432  12.4814
    12.5133  12.5740  12.6732  12.6992  12.7433  12.7754  12.7905  12.8232
    12.8941  12.8997  12.9758  13.0688  13.1034  13.1203  13.1808  13.1952
    13.2079  13.2278  13.3129  13.3327  13.3522  13.3707  13.4040  13.4238
    13.4608  13.4929  13.5286  13.5501  13.5972  13.6315  13.6465  13.6778
    13.7177  13.8048  13.8330  13.9541  13.9602  13.9785  13.9821  14.0832
    14.1124  14.1924  14.2521  14.2591  14.3606  14.3788  14.4600  14.5310
    14.5650  14.5999  14.7145  14.7203  14.7908  14.8543  14.9037  14.9117
    15.0018  15.0492  15.1046  15.1518  15.1885  15.2508  15.2535  15.3175
    15.3518  15.3777  15.4207  15.4664  15.4887  15.5214  15.5859  15.6037
    15.6315  15.6695  15.6968  15.7255  15.7991  15.8069  15.8703  15.9871
    16.2637  16.4495  16.5526  16.6909  17.0054  17.0671  17.4033  17.7781
    18.0301  18.1628  18.2059  18.4065  18.7797  18.8495  19.4453  19.7984
    19.8332  20.0649  20.2965  20.4983  20.5613  21.0065  21.1589  21.5761
    21.7988  21.8242  22.0568  22.2541  22.4638  22.6587  22.9370  23.6204
    23.8952  23.9282  24.4517  25.1617  25.4888  25.5048  25.6712  25.7263
    25.9028

          k = 0.2500 0.2946 0.0000 ( 17790 PWs)   bands (ev):

    -1.6539  -0.9681   0.1843   0.3691   1.3526   2.0379   3.7433   4.5170
     5.1367   5.4026   5.9048   6.7411   6.7566   7.2794   7.3419   8.0137
     8.5781   8.7575   9.2882   9.5070   9.5396   9.8676   9.9266  10.0583
    10.2087  10.2834  10.5739  10.5852  10.6803  10.7333  10.7946  10.8928
    10.9300  10.9819  10.9883  11.1405  11.2066  11.2709  11.3038  11.3878
    11.4287  11.5615  11.5744  11.6192  11.6454  11.7096  11.7258  11.7892
    11.8260  11.8362  11.9710  12.0115  12.0280  12.1090  12.1441  12.1798
    12.2127  12.2189  12.2549  12.2852  12.3624  12.4028  12.4108  12.4511
    12.5129  12.5207  12.5788  12.6562  12.6677  12.7162  12.7336  12.7915
    12.8182  12.8342  12.9133  12.9206  12.9778  13.0425  13.0430  13.1127
    13.1230  13.1398  13.2285  13.2837  13.2962  13.3016  13.3349  13.3740
    13.4139  13.4153  13.4410  13.4943  13.5543  13.5805  13.6002  13.6662
    13.6800  13.7740  13.8048  13.8726  13.9558  13.9938  14.0370  14.0574
    14.1515  14.2304  14.2386  14.3009  14.3207  14.4050  14.4182  14.4840
    14.4860  14.5429  14.5597  14.6279  14.6298  14.7209  14.7455  14.8439
    14.8481  14.9093  14.9794  15.0149  15.0230  15.1336  15.2116  15.3208
    15.3489  15.3899  15.3968  15.4415  15.4806  15.5634  15.5776  15.6023
    15.6354  15.6792  15.7307  15.8034  15.8227  15.8520  15.8941  15.9991
    16.0895  16.2149  16.7814  16.8643  16.9870  17.2663  17.6278  17.8151
    17.8788  18.1260  18.5125  18.5398  18.6164  18.7777  19.3896  19.6166
    19.6543  20.1292  20.2070  20.6842  20.7624  20.9578  21.5334  21.7618
    21.9629  21.9869  22.4946  22.5673  22.6651  22.8040  23.0251  23.6488
    24.4250  24.6659  24.7233  24.9055  25.0384  25.0936  25.6366  25.6672
    25.8888

          k = 0.2500-0.3536 0.0000 ( 17788 PWs)   bands (ev):

    -1.3546  -1.3546   0.3123   0.3123   1.7080   1.7080   4.1446   4.1446
     5.1606   5.1606   6.3234   6.3234   7.0678   7.0678   7.6816   7.6816
     8.6540   8.6540   9.4682   9.4682   9.6833   9.6833  10.0805  10.0805
    10.3721  10.3721  10.4794  10.4794  10.7511  10.7511  10.8757  10.8757
    10.9386  10.9386  11.1330  11.1331  11.1932  11.1932  11.3937  11.3937
    11.4822  11.4822  11.6018  11.6018  11.6629  11.6629  11.7426  11.7426
    11.8864  11.8864  11.9604  11.9604  12.1103  12.1103  12.2001  12.2001
    12.2902  12.2902  12.3262  12.3262  12.3581  12.3581  12.4335  12.4335
    12.5188  12.5188  12.5701  12.5701  12.6697  12.6697  12.7304  12.7304
    12.8136  12.8136  12.8675  12.8675  12.9338  12.9338  13.0157  13.0157
    13.1114  13.1114  13.1768  13.1768  13.2698  13.2698  13.3402  13.3402
    13.3844  13.3844  13.4350  13.4350  13.5597  13.5597  13.6571  13.6571
    13.6998  13.6998  13.7900  13.7900  13.9868  13.9868  14.1561  14.1561
    14.2072  14.2072  14.3048  14.3048  14.3558  14.3558  14.3990  14.3990
    14.4837  14.4837  14.5387  14.5387  14.6018  14.6018  14.6468  14.6468
    14.8682  14.8682  14.9333  14.9333  15.0676  15.0676  15.2606  15.2606
    15.3758  15.3758  15.4107  15.4107  15.5155  15.5155  15.6041  15.6041
    15.6631  15.6631  15.7844  15.7844  15.8991  15.8991  15.9443  15.9443
    16.0582  16.0582  16.8972  16.8972  17.2130  17.2130  17.5624  17.5625
    18.1775  18.1775  18.4115  18.4115  18.9516  18.9516  19.1824  19.1824
    19.9040  19.9040  20.4506  20.4506  21.1179  21.1179  21.4297  21.4297
    22.1603  22.1603  22.6818  22.6818  22.8644  22.8644  23.7600  23.7600
    23.9433  23.9433  25.2312  25.2313  25.4213  25.4214  25.4965  25.4967
    25.7220

          k = 0.2500-0.2946 0.0000 ( 17790 PWs)   bands (ev):

    -1.6539  -0.9681   0.1843   0.3691   1.3526   2.0379   3.7433   4.5170
     5.1367   5.4026   5.9048   6.7411   6.7566   7.2794   7.3419   8.0137
     8.5781   8.7575   9.2882   9.5070   9.5396   9.8676   9.9266  10.0583
    10.2087  10.2834  10.5739  10.5852  10.6803  10.7333  10.7946  10.8928
    10.9300  10.9819  10.9883  11.1405  11.2066  11.2709  11.3038  11.3878
    11.4287  11.5615  11.5744  11.6192  11.6454  11.7096  11.7258  11.7892
    11.8260  11.8362  11.9710  12.0115  12.0280  12.1090  12.1441  12.1798
    12.2127  12.2189  12.2549  12.2852  12.3624  12.4028  12.4108  12.4511
    12.5129  12.5207  12.5788  12.6562  12.6677  12.7162  12.7336  12.7915
    12.8182  12.8342  12.9133  12.9206  12.9778  13.0425  13.0430  13.1127
    13.1230  13.1398  13.2285  13.2837  13.2962  13.3016  13.3349  13.3740
    13.4139  13.4153  13.4410  13.4943  13.5543  13.5805  13.6002  13.6662
    13.6799  13.7740  13.8048  13.8726  13.9558  13.9938  14.0370  14.0574
    14.1515  14.2304  14.2386  14.3009  14.3207  14.4050  14.4182  14.4840
    14.4860  14.5429  14.5597  14.6279  14.6298  14.7209  14.7455  14.8439
    14.8481  14.9093  14.9794  15.0149  15.0230  15.1336  15.2116  15.3208
    15.3489  15.3899  15.3968  15.4415  15.4806  15.5634  15.5776  15.6023
    15.6354  15.6792  15.7307  15.8034  15.8227  15.8520  15.8941  15.9991
    16.0895  16.2149  16.7814  16.8643  16.9870  17.2663  17.6278  17.8151
    17.8788  18.1260  18.5125  18.5398  18.6164  18.7777  19.3896  19.6166
    19.6543  20.1292  20.2070  20.6842  20.7624  20.9578  21.5334  21.7618
    21.9629  21.9869  22.4946  22.5673  22.6651  22.8040  23.0251  23.6488
    24.4250  24.6659  24.7233  24.9055  25.0384  25.0936  25.6366  25.6671
    25.8882

          k = 0.2500-0.2357 0.0000 ( 17768 PWs)   bands (ev):

    -1.8581  -0.5069  -0.1084   0.4132   1.1619   2.2250   3.3282   4.8372
     5.2643   5.5241   5.7917   6.4540   7.0204   7.0256   7.4678   8.2962
     8.5911   8.8516   9.0110   9.4289   9.5418   9.6005   9.8732  10.0674
    10.1108  10.2836  10.3402  10.5406  10.5681  10.6997  10.7172  10.7947
    10.8805  10.9368  11.1310  11.1502  11.2174  11.2240  11.3308  11.3610
    11.4247  11.4295  11.5187  11.6030  11.6393  11.6400  11.6977  11.7353
    11.7457  11.8481  11.8837  11.9228  11.9621  12.0486  12.0758  12.1147
    12.1658  12.2504  12.2792  12.2887  12.3999  12.4084  12.4432  12.4814
    12.5133  12.5740  12.6732  12.6992  12.7433  12.7754  12.7905  12.8232
    12.8941  12.8997  12.9758  13.0688  13.1034  13.1203  13.1808  13.1952
    13.2079  13.2278  13.3129  13.3327  13.3522  13.3707  13.4040  13.4238
    13.4608  13.4929  13.5286  13.5501  13.5972  13.6315  13.6465  13.6778
    13.7177  13.8048  13.8330  13.9541  13.9602  13.9785  13.9821  14.0832
    14.1124  14.1924  14.2521  14.2591  14.3606  14.3788  14.4600  14.5310
    14.5650  14.5999  14.7145  14.7203  14.7908  14.8543  14.9037  14.9117
    15.0018  15.0492  15.1046  15.1518  15.1885  15.2508  15.2535  15.3175
    15.3518  15.3777  15.4207  15.4664  15.4887  15.5214  15.5859  15.6037
    15.6315  15.6695  15.6968  15.7255  15.7991  15.8069  15.8703  15.9871
    16.2637  16.4495  16.5526  16.6909  17.0054  17.0671  17.4033  17.7781
    18.0301  18.1628  18.2059  18.4065  18.7797  18.8495  19.4453  19.7984
    19.8332  20.0649  20.2965  20.4983  20.5613  21.0065  21.1589  21.5761
    21.7988  21.8242  22.0568  22.2541  22.4638  22.6587  22.9370  23.6204
    23.8952  23.9282  24.4517  25.1617  25.4889  25.5049  25.6713  25.7263
    25.9028

          k = 0.2500-0.1768 0.0000 ( 17751 PWs)   bands (ev):

    -1.9622  -0.5335   0.0067   0.4591   1.1763   2.2831   2.9154   5.0181
     5.2230   5.4806   5.6579   6.7086   6.8747   7.0199   7.7594   8.4094
     8.7579   8.8147   8.9141   9.2256   9.3924   9.6009   9.7406   9.9539
    10.1260  10.1946  10.3217  10.3600  10.4526  10.5489  10.6291  10.7229
    10.8757  10.8938  11.0391  11.1139  11.1503  11.2134  11.2912  11.3688
    11.3703  11.4196  11.4306  11.4834  11.5516  11.5737  11.6390  11.6432
    11.6689  11.6748  11.7891  11.8604  11.9481  11.9985  12.0916  12.0935
    12.2050  12.2970  12.3080  12.3653  12.4218  12.4800  12.5682  12.5743
    12.6053  12.6788  12.7271  12.7614  12.8148  12.8443  12.8668  12.8807
    12.9472  12.9953  13.0768  13.1349  13.1855  13.1983  13.2369  13.2741
    13.2962  13.3021  13.3403  13.3995  13.4294  13.4432  13.4487  13.5003
    13.5252  13.5582  13.5724  13.6264  13.6402  13.6534  13.6898  13.7127
    13.8173  13.8201  13.9460  13.9623  13.9631  14.0394  14.0457  14.1630
    14.2169  14.2774  14.2958  14.3704  14.3875  14.4614  14.4858  14.5584
    14.6880  14.6968  14.7430  14.8561  14.8600  14.9100  14.9214  15.0213
    15.1024  15.1540  15.1630  15.2279  15.3163  15.3189  15.3511  15.4277
    15.4476  15.4512  15.4947  15.5172  15.5580  15.5648  15.6180  15.6295
    15.6512  15.6580  15.6862  15.7631  15.7752  15.8033  15.9445  15.9532
    16.3291  16.4946  16.5492  16.7800  16.8293  16.9977  17.1766  17.4341
    17.8198  18.0742  18.3284  18.3884  19.0370  19.1586  19.2498  19.4927
    19.9475  20.1074  20.1207  20.3303  20.6602  20.8347  20.9491  21.1550
    21.3797  21.6987  21.9486  22.0925  22.3802  22.3840  22.8988  23.4772
    23.6711  23.7168  24.1086  25.0874  25.2580  25.2762  25.6187  25.6317
    25.7775

          k = 0.2500-0.1179 0.0000 ( 17763 PWs)   bands (ev):

    -1.9636  -0.9723   0.4980   0.5347   1.3181   2.2770   2.5190   4.7515
     5.0588   5.4982   5.7454   6.5230   6.8490   7.6122   8.0308   8.4254
     8.5666   8.9368   9.0328   9.1489   9.2493   9.6145   9.6894   9.9047
    10.0172  10.1758  10.2170  10.2190  10.4078  10.4479  10.5653  10.6256
    10.8277  10.8562  10.9251  11.0306  11.0560  11.1388  11.2600  11.2885
    11.3295  11.3416  11.3703  11.4099  11.4733  11.4978  11.5028  11.5321
    11.5746  11.6523  11.7363  11.8171  11.8815  12.0041  12.0929  12.1108
    12.2460  12.3600  12.3639  12.4051  12.4939  12.5898  12.6486  12.6644
    12.7181  12.7643  12.7952  12.8267  12.8453  12.9046  12.9622  12.9817
    13.0279  13.0805  13.1167  13.1538  13.2011  13.2344  13.2670  13.3263
    13.3399  13.3490  13.4046  13.4231  13.4430  13.4659  13.5122  13.5375
    13.5660  13.6227  13.6474  13.6690  13.6809  13.7559  13.7726  13.8277
    13.8651  13.9425  13.9738  14.0114  14.0402  14.0869  14.1342  14.2398
    14.2694  14.2984  14.4228  14.4232  14.5088  14.5733  14.6205  14.6353
    14.7106  14.7622  14.8203  14.8740  14.9279  14.9355  15.0093  15.0253
    15.0991  15.1371  15.1574  15.2524  15.2948  15.3841  15.4119  15.4305
    15.4650  15.4984  15.5282  15.5367  15.6072  15.6211  15.6521  15.6591
    15.7088  15.7490  15.7934  15.8126  15.8684  15.8939  16.0729  16.1259
    16.3181  16.3535  16.7143  16.7289  16.8648  17.1598  17.1941  17.4689
    17.5225  17.7898  18.1855  18.5607  19.0348  19.2486  19.2730  19.4360
    19.6277  19.6377  19.8358  19.8420  20.5470  20.8017  21.1991  21.2893
    21.4228  21.6083  21.7096  22.0643  22.3169  22.3426  22.6152  23.4863
    23.6712  23.8529  23.8632  24.5331  24.6917  24.8535  24.9875  25.1917
    25.3003

          k = 0.2500-0.0589 0.0000 ( 17783 PWs)   bands (ev):

    -1.8614  -1.3566   0.5351   0.9696   1.5400   2.1510   2.2585   4.3357
     4.8928   5.5582   6.0334   6.3949   6.6052   8.2218   8.2578   8.4040
     8.4561   8.9077   8.9532   9.2096   9.4833   9.5570   9.8055   9.8061
    10.0171  10.0177  10.0798  10.1223  10.3027  10.5241  10.5376  10.5651
    10.7009  10.7728  10.7810  10.9518  10.9883  11.1595  11.2039  11.2631
    11.2729  11.3029  11.3044  11.3366  11.3852  11.4212  11.4478  11.5102
    11.5492  11.6001  11.7325  11.7878  11.8082  12.0337  12.0827  12.0990
    12.2448  12.3794  12.4080  12.4164  12.6059  12.6727  12.6914  12.6996
    12.7976  12.8111  12.8447  12.8874  12.8920  12.9388  12.9892  13.0548
    13.0874  13.1176  13.1495  13.1915  13.2136  13.2610  13.2769  13.3285
    13.3489  13.3920  13.4036  13.4292  13.4692  13.5015  13.5123  13.5629
    13.6070  13.7119  13.7291  13.7371  13.7751  13.7973  13.8536  13.8842
    13.9609  13.9877  13.9928  14.0817  14.1029  14.2080  14.2283  14.2941
    14.3029  14.3512  14.4169  14.4660  14.5183  14.5921  14.6658  14.7311
    14.7471  14.8352  14.8442  14.8876  14.9194  14.9698  14.9915  15.0540
    15.1065  15.1267  15.1716  15.2782  15.3137  15.3156  15.3964  15.3973
    15.4341  15.4859  15.5576  15.6164  15.6262  15.6319  15.6630  15.7206
    15.7629  15.7636  15.7992  15.8422  15.8922  15.9117  16.0561  16.1987
    16.4709  16.6840  16.7947  16.8401  16.9871  17.1116  17.3132  17.5621
    17.6379  17.8098  18.0946  18.5464  18.7827  18.8511  18.9026  19.1284
    19.4121  19.6734  19.7405  19.8921  20.1616  20.2321  21.4392  21.5525
    21.6935  21.7815  22.0943  22.1753  22.2764  22.4900  22.7522  23.3360
    23.4673  23.6551  23.6977  23.7578  24.0484  24.1896  24.3529  24.8551
    25.1420

          k = 0.3750 0.0000 0.0000 ( 17794 PWs)   bands (ev):

    -1.6316  -1.6316   0.5327   1.1692   1.8411   1.8411   2.3751   4.2021
     5.0338   5.5148   6.4315   6.4316   6.7722   8.2541   8.2545   8.3704
     8.7493   8.8592   9.2407   9.4752   9.5256   9.5773   9.5779   9.8755
     9.9262   9.9284  10.0920  10.1618  10.4014  10.5643  10.5670  10.5783
    10.7616  10.7686  10.7811  10.8041  10.9477  11.0908  11.1152  11.1821
    11.2066  11.2623  11.3510  11.3761  11.4501  11.4930  11.6244  11.7096
    11.7747  11.8610  11.9161  11.9918  12.0273  12.1065  12.1238  12.3262
    12.3829  12.4144  12.4508  12.6049  12.6316  12.6636  12.7742  12.7979
    12.8593  12.9020  12.9033  12.9212  12.9307  12.9601  12.9877  13.0662
    13.0899  13.0908  13.1563  13.1704  13.1800  13.2075  13.2881  13.2969
    13.2981  13.3205  13.3880  13.4113  13.4124  13.4515  13.4833  13.5104
    13.6816  13.6904  13.7149  13.7366  13.7784  13.7962  13.8380  13.8509
    13.9143  13.9876  13.9956  14.0005  14.1039  14.2188  14.2636  14.3005
    14.3467  14.3545  14.4469  14.5451  14.5477  14.5716  14.5904  14.6157
    14.7699  14.7733  14.8693  14.8882  14.9055  14.9667  14.9716  15.0521
    15.0876  15.1018  15.1486  15.1619  15.2825  15.3175  15.3239  15.3657
    15.4681  15.4776  15.5096  15.5299  15.6096  15.6460  15.6712  15.7134
    15.7406  15.7838  15.7993  15.8149  15.8202  15.9193  15.9219  15.9273
    16.3761  16.3786  16.3815  16.6142  16.6752  16.9216  16.9479  17.1447
    17.3316  17.4635  17.9194  17.9977  18.3567  18.3983  18.5065  19.5193
    19.6901  19.7414  19.9224  20.1298  20.5195  21.0320  21.0811  21.2456
    21.2876  21.6109  21.6215  21.7108  21.7465  21.8770  21.9133  21.9962
    22.3726  22.3850  22.7840  22.7854  23.4373  23.6320  24.1588  24.2445
    24.7649

          k = 0.3750 0.0589 0.0000 ( 17796 PWs)   bands (ev):

    -1.8318  -1.3361   0.5206   0.9891   1.5568   2.1730   2.3786   4.3819
     5.0896   5.4842   6.1839   6.6499   6.8088   8.1666   8.2959   8.3101
     8.7875   8.9010   8.9901   9.4419   9.5013   9.6205   9.6979   9.8108
     9.8991  10.0452  10.0664  10.2115  10.4381  10.5617  10.6039  10.6042
    10.6325  10.8223  10.8592  10.8945  11.0014  11.0833  11.1422  11.2202
    11.2464  11.2808  11.3071  11.4011  11.4718  11.5144  11.6209  11.7155
    11.7934  11.8869  11.9285  11.9966  12.0419  12.1283  12.1343  12.3392
    12.3894  12.4114  12.4541  12.5806  12.6047  12.6607  12.7668  12.7815
    12.8205  12.8582  12.8796  12.8926  12.9423  12.9672  13.0242  13.0563
    13.0610  13.0983  13.1154  13.1427  13.1755  13.1774  13.2492  13.2811
    13.2821  13.3183  13.3779  13.3800  13.4053  13.4502  13.4553  13.5237
    13.5909  13.6613  13.6765  13.7626  13.7676  13.8134  13.8349  13.8657
    13.8973  13.9284  14.0105  14.0109  14.0762  14.1802  14.2097  14.2818
    14.2970  14.3884  14.4265  14.4923  14.5313  14.5468  14.5987  14.6304
    14.6697  14.7696  14.8458  14.8684  14.8996  14.9225  14.9600  15.0013
    15.0434  15.0788  15.1424  15.1803  15.2317  15.2803  15.3242  15.3892
    15.4359  15.4989  15.5360  15.5402  15.6100  15.6321  15.6913  15.6981
    15.7352  15.7585  15.8002  15.8003  15.8632  15.8858  15.9545  16.0336
    16.0744  16.4500  16.4604  16.6178  16.7504  16.7845  17.0794  17.1457
    17.3324  17.3643  17.5629  17.9697  18.5377  18.6892  18.7238  19.1078
    19.2999  19.7734  20.2806  20.3491  20.5559  20.7503  20.9364  21.0713
    21.1177  21.3053  21.5627  21.6683  21.7596  22.0293  22.2582  22.4315
    22.6264  22.8902  23.1924  23.4435  23.4604  23.6551  23.8030  24.1050
    24.7031

          k = 0.3750 0.1179 0.0000 ( 17793 PWs)   bands (ev):

    -1.9307  -0.9583   0.4873   0.5605   1.3320   2.3835   2.5426   4.7786
     5.2387   5.4210   5.9307   6.8111   6.9059   7.8480   8.0309   8.3523
     8.8692   8.9166   9.0248   9.2672   9.5341   9.7067   9.7602   9.8156
     9.9323  10.0654  10.1428  10.3226  10.4744  10.5413  10.5920  10.6871
    10.7001  10.9101  10.9626  10.9725  11.0874  11.1089  11.2039  11.2985
    11.2992  11.3367  11.3557  11.4787  11.5220  11.5586  11.6298  11.7174
    11.8512  11.9379  11.9552  12.0157  12.0795  12.1497  12.1861  12.3648
    12.3665  12.3946  12.4578  12.5079  12.5697  12.6396  12.7207  12.7326
    12.7719  12.7822  12.8368  12.8372  12.9273  12.9370  12.9703  13.0061
    13.0146  13.0329  13.0531  13.1165  13.1354  13.1793  13.1906  13.2383
    13.2558  13.2731  13.2959  13.3657  13.4126  13.4384  13.4431  13.4988
    13.5061  13.6199  13.6457  13.6979  13.7323  13.7771  13.8073  13.8397
    13.8792  13.8866  13.9603  13.9799  14.0288  14.0979  14.1411  14.2143
    14.2395  14.3060  14.3607  14.3851  14.4602  14.5025  14.5068  14.5908
    14.5957  14.6455  14.7330  14.7820  14.7871  14.8735  14.8923  14.9629
    14.9926  15.0656  15.1149  15.1158  15.2128  15.2636  15.3083  15.4219
    15.4249  15.4537  15.4697  15.4993  15.5927  15.6009  15.6563  15.6631
[...]
    12.9189  13.0063  13.1184  13.1215  13.1220  13.1781  13.2500  13.3859
    13.3864  13.4170  13.4298  13.4640  13.4740  13.5672  13.6653  13.6818
    13.7974  13.8359  13.8520  13.8687  13.9857  14.0185  14.0547  14.0663
    14.2375  14.2629  14.2696  14.2782  14.3843  14.5111  14.5310  14.6409
    14.6493  14.7290  14.8016  14.8294  14.9781  14.9871  15.0320  15.0495
    15.0664  15.0897  15.1197  15.1275  15.1733  15.1858  15.1945  15.2553
    15.2800  15.3237  15.3509  15.3542  15.3806  15.3833  15.4128  15.4906
    15.4924  15.5030  15.5147  15.5604  15.6000  15.6361  15.7186  15.7425
    15.8656  15.8822  15.9084  15.9581  16.0478  16.3590  16.3676  16.4224
    16.4956  16.7952  16.9893  17.4227  17.8563  17.8611  18.4607  18.5044
    19.8202  19.8751  20.3029  20.5399  20.5773  20.6073  20.6687  20.7047
    20.7302  20.7932  20.8737  21.2515  21.2690  21.3278  21.4120  22.1789
    22.3336  22.4420  22.7523  22.7635  22.7932  23.3123  23.7403  23.8529
    24.1502

          k =-0.5000 0.0589 0.0000 ( 17814 PWs)   bands (ev):

     7.8228   8.2749   8.4735   8.5583   9.0098   9.0276   9.3979   9.4139
     9.4207   9.5423   9.6624   9.7996   9.8268   9.8276   9.8414   9.9354
     9.9750  10.0276  10.0800  10.0821  10.2427  10.2758  10.3432  10.5060
    10.5617  10.6038  10.9033  10.9426  10.9490  11.0386  11.0619  11.1002
    11.1030  11.1362  11.2333  11.2491  11.2710  11.3283  11.3422  11.5723
    11.6325  11.6846  11.7501  11.7892  11.8230  11.8515  11.9165  11.9531
    11.9762  12.0043  12.0072  12.0437  12.0562  12.1502  12.1917  12.2580
    12.2746  12.2790  12.3444  12.3456  12.3893  12.4099  12.4240  12.4609
    12.4690  12.4813  12.5421  12.5858  12.6218  12.6841  12.6893  12.7293
    12.7493  12.7896  12.8006  12.8217  12.8432  12.8527  12.8914  12.9307
    12.9377  13.0173  13.0476  13.1121  13.1212  13.2100  13.2531  13.2971
    13.3919  13.4377  13.4665  13.4952  13.5058  13.5986  13.6187  13.6585
    13.7801  13.8436  13.8673  13.8866  13.8917  13.9976  14.0354  14.1216
    14.2095  14.2415  14.2526  14.2913  14.3837  14.4277  14.5157  14.5932
    14.6123  14.6664  14.6700  14.7830  14.8183  14.8660  14.9763  14.9784
    14.9919  15.0537  15.0903  15.1162  15.1608  15.1765  15.2243  15.2466
    15.2539  15.2592  15.2831  15.2942  15.3543  15.3792  15.4034  15.4118
    15.4736  15.5236  15.5315  15.5931  15.6216  15.6991  15.7486  15.8080
    15.8472  15.8740  15.9364  15.9740  16.0342  16.2613  16.3085  16.3227
    16.7213  16.9530  17.2078  17.6410  17.6925  17.7416  18.1808  18.3006
    19.6476  19.6957  20.1188  20.1880  20.3568  20.6468  20.7622  20.9252
    21.0026  21.0270  21.0579  21.4510  21.6151  21.7535  21.9354  22.2002
    22.2262  22.3802  22.6848  22.7649  22.9160  23.3267  24.0011  24.0358
    24.3403

          k =-0.5000 0.1179 0.0000 ( 17794 PWs)   bands (ev):

     7.9192   8.3492   8.4538   8.6104   9.0777   9.1039   9.4326   9.4555
     9.4684   9.5801   9.7534   9.8168   9.8859   9.8981   9.9336  10.0120
    10.0658  10.0708  10.1142  10.1680  10.3313  10.3766  10.4303  10.5355
    10.6412  10.6857  10.9178  10.9752  11.0021  11.0147  11.0452  11.1179
    11.1352  11.1386  11.2040  11.2340  11.2875  11.3158  11.3903  11.6006
    11.6379  11.6793  11.7344  11.7674  11.7839  11.8614  11.8636  11.9263
    11.9312  12.0003  12.0355  12.0574  12.0632  12.1164  12.1395  12.1864
    12.2544  12.2830  12.2876  12.3455  12.3771  12.3972  12.3984  12.4129
    12.4332  12.4557  12.4988  12.5563  12.5746  12.6662  12.7128  12.7161
    12.7228  12.7758  12.7771  12.8150  12.8226  12.8443  12.8703  12.9336
    12.9384  12.9562  13.0018  13.0402  13.1395  13.2059  13.2373  13.3478
    13.3576  13.3827  13.4558  13.5250  13.5283  13.5487  13.5853  13.6258
    13.7287  13.8035  13.8642  13.8886  13.8927  13.9654  14.0201  14.1113
    14.1167  14.1545  14.2308  14.2909  14.3056  14.3402  14.3862  14.4472
    14.4911  14.4987  14.5187  14.5785  14.6351  14.7055  14.7668  14.7687
    14.8431  14.8738  14.9360  14.9972  15.0276  15.0476  15.0763  15.1044
    15.1707  15.2055  15.2465  15.2629  15.3051  15.3747  15.4081  15.4904
    15.4924  15.5474  15.5552  15.6382  15.6443  15.6580  15.7289  15.7578
    15.7836  15.9395  16.0347  16.0933  16.1438  16.1453  16.2815  16.4115
    17.1937  17.3153  17.3659  17.4491  17.6734  17.7220  17.8747  18.0763
    19.1381  19.1811  19.4969  19.5962  20.5214  20.9673  21.0988  21.3170
    21.3212  21.5727  21.6686  21.7795  21.9146  21.9831  22.1711  22.2658
    22.8039  22.8841  22.9819  23.1173  23.2467  23.3705  24.4730  24.7371
    24.7565

          k =-0.5000 0.1768 0.0000 ( 17756 PWs)   bands (ev):

     8.0671   8.4436   8.4530   8.6547   9.1942   9.2181   9.4758   9.4897
     9.5049   9.6878   9.8416   9.8931  10.0102  10.0295  10.0757  10.0806
    10.1483  10.1638  10.1984  10.3022  10.4593  10.5280  10.5695  10.5744
    10.6798  10.8787  10.8980  10.9364  10.9623  11.0074  11.0724  11.1211
    11.1547  11.1998  11.2326  11.2340  11.3376  11.3856  11.3917  11.6066
    11.6352  11.6355  11.6966  11.7064  11.7686  11.8416  11.8549  11.8848
    11.9277  12.0133  12.0312  12.0428  12.0504  12.0661  12.0689  12.1537
    12.1841  12.1843  12.2383  12.2857  12.3297  12.3768  12.3787  12.4051
    12.4335  12.4574  12.4740  12.4829  12.5153  12.6159  12.6665  12.6919
    12.7530  12.7644  12.7867  12.8133  12.8220  12.8477  12.8823  12.9007
    12.9061  12.9682  13.0073  13.0688  13.1383  13.1587  13.2011  13.2066
    13.2498  13.3477  13.3965  13.4572  13.4612  13.5298  13.5640  13.6360
    13.6371  13.7563  13.8337  13.8467  13.8609  13.8669  13.9553  13.9905
    14.0369  14.0528  14.0760  14.1447  14.1766  14.1905  14.1938  14.2386
    14.2820  14.3144  14.3778  14.4213  14.5528  14.5736  14.6331  14.6399
    14.6541  14.7139  14.7427  14.8166  14.8572  14.8901  14.8908  14.9941
    15.0341  15.0397  15.1427  15.2092  15.2990  15.3498  15.4323  15.4572
    15.5534  15.5684  15.6086  15.6440  15.6472  15.6692  15.6790  15.7495
    15.7925  15.9305  15.9751  15.9812  16.3759  16.4153  16.6227  16.7081
    17.0295  17.1304  17.3125  17.4719  17.7499  17.7993  18.2025  18.5385
    18.6341  18.6790  18.9310  19.0332  20.5846  20.8029  20.9032  21.1053
    21.4625  22.0689  22.2882  22.3810  22.6599  22.7320  22.7854  22.8738
    22.9155  23.4463  23.6354  23.8292  23.9652  24.0811  24.4759  24.6354
    24.9038

          k =-0.5000 0.2357 0.0000 ( 17778 PWs)   bands (ev):

     8.2457   8.4702   8.5177   8.6749   9.3481   9.3579   9.5044   9.5150
     9.5587   9.8343   9.8960  10.0596  10.1263  10.1506  10.1770  10.2206
    10.2362  10.2736  10.3424  10.4607  10.5659  10.6019  10.6588  10.6976
    10.7705  10.7958  10.8534  10.8829  10.9285  11.0432  11.1326  11.1746
    11.2317  11.2656  11.3160  11.3384  11.3523  11.3973  11.5147  11.5155
    11.5925  11.6557  11.6585  11.7252  11.7312  11.7702  11.8827  11.8897
    11.9089  11.9477  11.9598  11.9926  11.9963  12.0379  12.0444  12.1033
    12.1172  12.1739  12.2149  12.2256  12.2380  12.3015  12.3233  12.3713
    12.4207  12.4647  12.4922  12.5070  12.5513  12.5968  12.5998  12.6549
    12.6897  12.7104  12.7150  12.8121  12.8377  12.8817  12.8902  12.9005
    12.9168  12.9824  12.9929  13.0341  13.0930  13.1407  13.1533  13.2132
    13.2358  13.2373  13.2526  13.3037  13.4038  13.4850  13.5322  13.5651
    13.5830  13.6131  13.6364  13.6382  13.6611  13.7758  13.8005  13.8690
    13.8949  13.9290  13.9407  13.9858  14.0089  14.0550  14.0831  14.1242
    14.1476  14.1750  14.2556  14.2972  14.4068  14.4236  14.5330  14.5498
    14.6195  14.6495  14.6903  14.7265  14.7326  14.7634  14.8046  14.8112
    14.8403  14.9877  15.0891  15.2206  15.2650  15.3492  15.3927  15.4062
    15.4924  15.5416  15.5548  15.5712  15.6361  15.6801  15.7851  15.8290
    15.8325  15.8593  15.9959  16.1626  16.7325  16.7356  16.7546  16.8358
    16.9735  16.9797  17.0391  17.1418  18.1998  18.2473  18.3217  18.3677
    18.4480  18.5439  18.7342  18.9607  20.2279  20.4824  20.5995  20.9112
    21.2049  22.5557  22.9815  23.0586  23.2991  23.4982  23.5575  23.6719
    23.7765  23.8225  23.9367  23.9955  24.0771  24.3674  25.0203  25.2992
    25.3319

          k =-0.5000 0.2946 0.0000 ( 17762 PWs)   bands (ev):

     8.4240   8.5000   8.5446   8.6514   9.4601   9.4724   9.5097   9.5875
     9.6739   9.9477   9.9698  10.1615  10.2046  10.2606  10.2649  10.2778
    10.3089  10.4117  10.4559  10.5260  10.5769  10.5815  10.7137  10.7544
    10.7626  10.7867  10.8925  10.8982  10.9508  11.0666  11.0949  11.1557
    11.2414  11.3113  11.3669  11.4590  11.4790  11.5148  11.5408  11.5635
    11.6475  11.6686  11.7191  11.7374  11.7791  11.7853  11.7914  11.8499
    11.8522  11.8938  11.9221  11.9313  11.9679  12.0163  12.0594  12.0617
    12.0809  12.1081  12.1344  12.2140  12.2196  12.2606  12.2767  12.3215
    12.3802  12.4385  12.4626  12.5196  12.5276  12.5657  12.5805  12.6257
    12.6287  12.6601  12.6701  12.6883  12.7989  12.8235  12.8650  12.9258
    12.9562  12.9698  13.0111  13.0658  13.0671  13.0914  13.0978  13.1231
    13.1865  13.2111  13.2242  13.3092  13.3274  13.3635  13.4249  13.4494
    13.4518  13.5130  13.5844  13.5844  13.6058  13.6396  13.6672  13.7460
    13.7617  13.8060  13.8068  13.8658  13.8874  13.9586  13.9811  14.0345
    14.0919  14.1098  14.1847  14.2980  14.3074  14.3586  14.3981  14.4513
    14.5054  14.5385  14.5943  14.6353  14.6413  14.7185  14.7315  14.8739
    14.9229  14.9994  15.1426  15.1538  15.2735  15.3367  15.3511  15.4159
    15.4230  15.4853  15.5197  15.5323  15.5921  15.6482  15.6934  15.7375
    16.0118  16.0716  16.2224  16.3857  16.4700  16.5651  16.7022  16.8663
    17.0972  17.1172  17.3218  17.3786  17.8162  17.8605  18.0347  18.1166
    18.8882  18.9862  19.2348  19.3307  19.9102  20.0072  20.1295  20.2905
    21.7162  22.8028  22.9386  23.1367  23.5205  23.6272  23.7077  24.0606
    24.2522  24.4430  24.8481  24.8940  24.9735  25.1377  25.9982  26.2231
    26.5521

          k =-0.5000-0.3536 0.0000 ( 17712 PWs)   bands (ev):

     8.5310   8.5310   8.5676   8.5676   9.4939   9.4940   9.5597   9.5597
     9.8983   9.8983  10.0923  10.0924  10.2393  10.2394  10.2945  10.2945
    10.3593  10.3593  10.5368  10.5368  10.6378  10.6379  10.7223  10.7223
    10.7782  10.7783  10.9485  10.9486  10.9799  10.9799  11.0996  11.0996
    11.2354  11.2355  11.5282  11.5283  11.5425  11.5425  11.6077  11.6077
    11.6620  11.6620  11.7429  11.7429  11.7797  11.7797  11.8058  11.8058
    11.8845  11.8846  11.9751  11.9752  11.9972  11.9973  12.0345  12.0345
    12.0593  12.0593  12.1040  12.1040  12.1620  12.1620  12.3287  12.3287
    12.3641  12.3641  12.4292  12.4292  12.5125  12.5125  12.6373  12.6373
    12.6476  12.6476  12.7075  12.7076  12.7889  12.7889  12.8538  12.8538
    12.9132  12.9132  12.9415  12.9415  13.0322  13.0322  13.1248  13.1248
    13.2044  13.2044  13.3078  13.3078  13.3811  13.3811  13.4507  13.4507
    13.4952  13.4952  13.5195  13.5195  13.5806  13.5807  13.6386  13.6386
    13.7196  13.7197  13.7323  13.7323  13.9221  13.9221  13.9435  13.9436
    14.0723  14.0723  14.2091  14.2091  14.3353  14.3353  14.4214  14.4214
    14.4788  14.4788  14.5364  14.5364  14.6477  14.6477  14.7905  14.7905
    15.0580  15.0580  15.1660  15.1660  15.2542  15.2542  15.3785  15.3786
    15.4477  15.4478  15.5341  15.5341  15.5557  15.5557  15.7009  15.7009
    16.2299  16.2299  16.3109  16.3109  16.4555  16.4555  16.6197  16.6197
    17.4552  17.4553  17.4872  17.4873  17.6693  17.6693  17.7331  17.7331
    19.4504  19.4504  19.6006  19.6006  19.6310  19.6310  19.7397  19.7398
    22.3080  22.3081  23.1310  23.1311  23.3492  23.3493  23.8964  23.8965
    25.3927  25.3927  25.6113  25.6113  25.9456  25.9461  26.0191  26.0191
    26.1199

     the Fermi energy is    18.2988 ev

!    total energy              =  -21704.06431887 Ry

     total all-electron energy =  -1064671.754868 Ry
     estimated scf accuracy    <       0.00000059 Ry
     smearing contrib. (-TS)   =      -3.20005112 Ry
     internal energy E=F+TS    =  -21700.86426775 Ry

     The total energy is F=E-TS. E is the sum of the following terms:
     one-electron contribution =     313.26073604 Ry
     hartree contribution      =     267.04728112 Ry
     xc contribution           =    -901.57035193 Ry
     ewald contribution        =   -1988.07285929 Ry
     one-center paw contrib.   =  -19391.52907370 Ry

     convergence has been achieved in  21 iterations

     Forces acting on atoms (cartesian axes, Ry/au):

     atom    1 type  1   force =     0.27826168   -0.00002176    0.22190945
     atom    2 type  1   force =     0.27828521    0.00002256    0.22197249
     atom    3 type  1   force =    -0.03670835   -0.00000407    0.03460816
     atom    4 type  1   force =    -0.03670922    0.00000409    0.03458817
     atom    5 type  1   force =     0.00122664   -0.00000496    0.09541366
     atom    6 type  1   force =     0.00122761    0.00000382    0.09540621
     atom    7 type  1   force =     0.00002050   -0.00000324    0.05381028
     atom    8 type  1   force =     0.00001967    0.00000432    0.05382834
     atom    9 type  1   force =     0.00027948   -0.00000052    0.04897037
     atom   10 type  1   force =     0.00027992    0.00000038    0.04894052
     atom   11 type  1   force =     0.00084917    0.00000306   -0.01773337
     atom   12 type  1   force =     0.00084910   -0.00000332   -0.01772303
     atom   13 type  1   force =    -0.00950360    0.00000245    0.00005897
     atom   14 type  1   force =    -0.00950365   -0.00000204    0.00006146
     atom   15 type  1   force =     0.07645416    0.00000557   -0.05176669
     atom   16 type  1   force =     0.07645405   -0.00000694   -0.05177476
     atom   17 type  1   force =    -0.07617868    0.00000668    0.04038376
     atom   18 type  1   force =    -0.07618419   -0.00000455    0.04039365
     atom   19 type  1   force =     0.00925691    0.00000021   -0.04800969
     atom   20 type  1   force =     0.00925612   -0.00000012   -0.04804759
     atom   21 type  1   force =    -0.00079052   -0.00000507   -0.02751740
     atom   22 type  1   force =    -0.00079100    0.00000719   -0.02750822
     atom   23 type  1   force =    -0.00153051   -0.00000670   -0.10565403
     atom   24 type  1   force =    -0.00153311    0.00000079   -0.10559014
     atom   25 type  1   force =     0.03712426    0.00000669   -0.03270780
     atom   26 type  1   force =     0.03712684   -0.00000544   -0.03272212
     atom   27 type  1   force =    -0.27875097    0.00002005   -0.21175711
     atom   28 type  1   force =    -0.27878752   -0.00001913   -0.21183355

     Total force =     0.509164     Total SCF correction =     0.002417
     Message from routine bfgs:
     history already reset at previous step: exiting
     Energy error            =      8.6E+00 Ry
     Gradient error          =      2.2E-01 Ry/Bohr

     bfgs converged in   4 scf cycles and   1 bfgs steps
     (criteria: energy <  1.0E-04 Ry, force <  1.0E-03 Ry/Bohr)

     End of BFGS Geometry Optimization

     Final energy             =  -21704.0643188693 Ry

     File ./pwscf.bfgs deleted, as requested
Begin final coordinates

ATOMIC_POSITIONS (angstrom)
Au            2.0400000000        1.4424978336        0.7104017968    0   0   1
Au            2.0400000000        4.3274935009        0.7103693193    0   0   1
Au            0.0000000000        0.0000000000        1.7372456417    0   0   1
Au            0.0000000000        2.8849956672        1.7372861708    0   0   1
Au            2.0400000000        1.4424978336        3.1456263553    0   0   1
Au            2.0400000000        4.3274935009        3.1456314287    0   0   1
Au            0.0000000000        0.0000000000        4.3828288098    0   0   1
Au            0.0000000000        2.8849956672        4.3828085539    0   0   1
Au            2.0400000000        1.4424978336        5.7795706588    0   0   1
Au            2.0400000000        4.3274935009        5.7796371649    0   0   1
Au            0.0000000000        0.0000000000        7.2076604073    0   0   1
Au            0.0000000000        2.8849956672        7.2076329176    0   0   1
Au            2.0400000000        1.4424978336        8.6607877907    0   0   1
Au            2.0400000000        4.3274935009        8.6608022815    0   0   1
Au            0.0000000000        0.0000000000        9.9158872644    0   0   1
Au            0.0000000000        2.8849956672        9.9158923178    0   0   1
Au            3.0264531548        1.4424978336       11.7105821322    0   0   1
Au            3.0264531548        4.3274935009       11.7105597643    0   0   1
Au            0.9864531548        0.0000000000       12.9673926684    0   0   1
Au            0.9864531548        2.8849956672       12.9674805739    0   0   1
Au            3.0264531548        1.4424978336       14.3811977723    0   0   1
Au            3.0264531548        4.3274935009       14.3811737108    0   0   1
Au            0.9864531548        0.0000000000       15.6141872115    0   0   1
Au            0.9864531548        2.8849956672       15.6141812748    0   0   1
Au            3.0264531548        1.4424978336       17.0156687957    0   0   1
Au            3.0264531548        4.3274935009       17.0156672714    0   0   1
Au            0.9864531548        0.0000000000       18.0382007542    0   0   1
Au            0.9864531548        2.8849956672       18.0382449096    0   0   1
End final coordinates



     Writing all to output data dir ./pwscf.save/
 
     init_run     :     19.33s CPU     21.15s WALL (       1 calls)
     electrons    :  14632.42s CPU  14779.90s WALL (      10 calls)
     update_pot   :      3.00s CPU      3.04s WALL (       9 calls)
     forces       :     71.40s CPU     72.01s WALL (      10 calls)

     Called by init_run:
     wfcinit      :     18.85s CPU     19.68s WALL (       1 calls)
     potinit      :      0.31s CPU      0.57s WALL (       1 calls)
     hinit0       :      0.10s CPU      0.62s WALL (       1 calls)

     Called by electrons:
     c_bands      :  13673.60s CPU  13808.83s WALL (     197 calls)
     sum_band     :    905.59s CPU    915.31s WALL (     197 calls)
     v_of_rho     :      3.49s CPU      4.09s WALL (     206 calls)
     newd         :      5.50s CPU      6.56s WALL (     206 calls)
     PAW_pot      :     48.24s CPU     48.60s WALL (     215 calls)
     mix_rho      :      0.57s CPU      0.67s WALL (     197 calls)

     Called by c_bands:
     init_us_2    :     40.07s CPU     40.61s WALL (   20700 calls)
     init_us_2:cp :     39.99s CPU     40.58s WALL (   20700 calls)
     cegterg      :  13319.78s CPU  13450.54s WALL (   10155 calls)

     Called by *egterg:
     cdiaghg      :   1855.85s CPU   1885.66s WALL (   64361 calls)
     h_psi        :   6666.12s CPU   6733.18s WALL (   65216 calls)
     s_psi        :    949.35s CPU    954.87s WALL (   65216 calls)
     g_psi        :     21.08s CPU     21.32s WALL (   55011 calls)

     Called by h_psi:
     h_psi:calbec :   1105.93s CPU   1113.08s WALL (   65216 calls)
     vloc_psi     :   4564.74s CPU   4617.40s WALL (   65216 calls)
     add_vuspsi   :    974.74s CPU    980.30s WALL (   65216 calls)

     General routines
     calbec       :   1465.59s CPU   1474.86s WALL (   77516 calls)
     fft          :      3.52s CPU      4.66s WALL (    2386 calls)
     ffts         :      0.20s CPU      0.23s WALL (     197 calls)
     fftw         :   4875.16s CPU   4928.20s WALL (14655416 calls)
     davcio       :      0.01s CPU      0.06s WALL (      50 calls)
 
     Parallel routines
 
     PWSCF        :      4h 6m CPU      4h 8m WALL

 
   This run was terminated on:  11:35:20  17Mar2024            

=------------------------------------------------------------------------------=
   JOB DONE.
=------------------------------------------------------------------------------=
