MPI startup(): Warning: I_MPI_PMI_LIBRARY will be ignored since the hydra process manager was found
MPI startup(): Warning: I_MPI_PMI_LIBRARY will be ignored since the hydra process manager was found
MPI startup(): Warning: I_MPI_PMI_LIBRARY will be ignored since the hydra process manager was found
MPI startup(): Warning: I_MPI_PMI_LIBRARY will be ignored since the hydra process manager was found
MPI startup(): Warning: I_MPI_PMI_LIBRARY will be ignored since the hydra process manager was found
MPI startup(): Warning: I_MPI_PMI_LIBRARY will be ignored since the hydra process manager was found
MPI startup(): Warning: I_MPI_PMI_LIBRARY will be ignored since the hydra process manager was found
MPI startup(): Warning: I_MPI_PMI_LIBRARY will be ignored since the hydra process manager was found
MPI startup(): Warning: I_MPI_PMI_LIBRARY will be ignored since the hydra process manager was found
MPI startup(): Warning: I_MPI_PMI_LIBRARY will be ignored since the hydra process manager was found

     Program PWSCF v.7.0 starts on 20Mar2024 at 13:24:13 

     This program is part of the open-source Quantum ESPRESSO suite
     for quantum simulation of materials; please cite
         "P. Giannozzi et al., J. Phys.:Condens. Matter 21 395502 (2009);
         "P. Giannozzi et al., J. Phys.:Condens. Matter 29 465901 (2017);
         "P. Giannozzi et al., J. Chem. Phys. 152 154105 (2020);
          URL http://www.quantum-espresso.org", 
     in publications or presentations arising from this work. More details at
     http://www.quantum-espresso.org/quote

     Parallel version (MPI), running on    10 processors

     MPI processes distributed on     1 nodes
     R & G space division:  proc/nbgrp/npool/nimage =      10
     63008 MiB available memory on the printing compute node when the environment starts
 
     Reading input from GSF110R_0.5.in
Warning: card &CELL ignored
Warning: card / ignored

     Current dimensions of program PWSCF are:
     Max number of different atomic species (ntypx) = 10
     Max number of k-points (npk) =  40000
     Max angular momentum in pseudopotentials (lmaxx) =  4
     file Au.pbe-n-kjpaw_psl.1.0.0.UPF: wavefunction(s)  6S 5D renormalized
     Found identity + (  0.0000 -0.5000  0.0000) symmetry
     This is a supercell, fractional translations are disabled

     Subspace diagonalization in iterative solution of the eigenvalue problem:
     one sub-group per band group will be used
     scalapack distributed-memory algorithm (size of sub-group:  3*  3 procs)

 
     Parallelization info
     --------------------
     sticks:   dense  smooth     PW     G-vecs:    dense   smooth      PW
     Min         200     133     38                26142    14227    2178
     Max         201     134     39                26149    14242    2183
     Sum        2007    1339    389               261457   142317   21821
 
     Using Slab Decomposition
 


     bravais-lattice index     =            0
     lattice parameter (alat)  =       7.7101  a.u.
     unit-cell volume          =    2979.1368 (a.u.)^3
     number of atoms/cell      =           28
     number of atomic types    =            1
     number of electrons       =       308.00
     number of Kohn-Sham states=          185
     kinetic-energy cutoff     =      50.0000  Ry
     charge density cutoff     =     300.0000  Ry
     scf convergence threshold =      1.0E-06
     mixing beta               =       0.1000
     number of iterations used =            8  plain     mixing
     energy convergence thresh.=      1.0E-04
     force convergence thresh. =      1.0E-03
     Exchange-correlation= SLA  PW   PBX  PBC
                           (   1   4   3   4   0   0   0)
     nstep                     =           50


     celldm(1)=   7.710083  celldm(2)=   0.000000  celldm(3)=   0.000000
     celldm(4)=   0.000000  celldm(5)=   0.000000  celldm(6)=   0.000000

     crystal axes: (cart. coord. in units of alat)
               a(1) = (   1.000000   0.000000   0.000000 )  
               a(2) = (   0.000000   1.414214   0.000000 )  
               a(3) = (   0.000000   0.000000   4.596194 )  

     reciprocal axes: (cart. coord. in units 2 pi/alat)
               b(1) = (  1.000000  0.000000  0.000000 )  
               b(2) = (  0.000000  0.707107  0.000000 )  
               b(3) = (  0.000000  0.000000  0.217571 )  


     PseudoPot. # 1 for Au read from file:
     ./Au.pbe-n-kjpaw_psl.1.0.0.UPF
     MD5 check sum: 4db85c736373c707a97ce4c36c2a9d23
     Pseudo is Projector augmented-wave + core cor, Zval = 11.0
     Generated using &quot;atomic&quot; code by A. Dal Corso  v.6.3
     Shape of augmentation charge: PSQ
     Using radial grid of 1279 points,  6 beta functions with: 
                l(1) =   0
                l(2) =   0
                l(3) =   1
                l(4) =   1
                l(5) =   2
                l(6) =   2
     Q(r) pseudized with 0 coefficients 


     atomic species   valence    mass     pseudopotential
        Au            11.00   196.96657     Au( 1.00)

     No symmetry found



   Cartesian axes

     site n.     atom                  positions (alat units)
         1           Au  tau(   1) = (   0.5000000   0.3535534   0.0000000  )
         2           Au  tau(   2) = (   0.5000000   1.0606602   0.0000000  )
         3           Au  tau(   3) = (   0.0000000   0.0000000   0.3535534  )
         4           Au  tau(   4) = (   0.0000000   0.7071068   0.3535534  )
         5           Au  tau(   5) = (   0.5000000   0.3535534   0.7071068  )
         6           Au  tau(   6) = (   0.5000000   1.0606602   0.7071068  )
         7           Au  tau(   7) = (   0.0000000   0.0000000   1.0606602  )
         8           Au  tau(   8) = (   0.0000000   0.7071068   1.0606602  )
         9           Au  tau(   9) = (   0.5000000   0.3535534   1.4142136  )
        10           Au  tau(  10) = (   0.5000000   1.0606602   1.4142136  )
        11           Au  tau(  11) = (   0.0000000   0.0000000   1.7677670  )
        12           Au  tau(  12) = (   0.0000000   0.7071068   1.7677670  )
        13           Au  tau(  13) = (   0.5000000   0.3535534   2.1213203  )
        14           Au  tau(  14) = (   0.5000000   1.0606602   2.1213203  )
        15           Au  tau(  15) = (   0.0000000   0.0000000   2.4748737  )
        16           Au  tau(  16) = (   0.0000000   0.7071068   2.4748737  )
        17           Au  tau(  17) = (   1.0000000   0.3535534   2.8284271  )
        18           Au  tau(  18) = (   1.0000000   1.0606602   2.8284271  )
        19           Au  tau(  19) = (   0.5000000   0.0000000   3.1819805  )
        20           Au  tau(  20) = (   0.5000000   0.7071068   3.1819805  )
        21           Au  tau(  21) = (   1.0000000   0.3535534   3.5355339  )
        22           Au  tau(  22) = (   1.0000000   1.0606602   3.5355339  )
        23           Au  tau(  23) = (   0.5000000   0.0000000   3.8890873  )
        24           Au  tau(  24) = (   0.5000000   0.7071068   3.8890873  )
        25           Au  tau(  25) = (   1.0000000   0.3535534   4.2426407  )
        26           Au  tau(  26) = (   1.0000000   1.0606602   4.2426407  )
        27           Au  tau(  27) = (   0.5000000   0.0000000   4.5961941  )
        28           Au  tau(  28) = (   0.5000000   0.7071068   4.5961941  )

     number of k points=    50  Gaussian smearing, width (Ry)=  0.2000
                       cart. coord. in units 2pi/alat
        k(    1) = (   0.0000000   0.0000000   0.0000000), wk =   0.0208333
        k(    2) = (   0.0000000   0.0589256   0.0000000), wk =   0.0416667
        k(    3) = (   0.0000000   0.1178511   0.0000000), wk =   0.0416667
        k(    4) = (   0.0000000   0.1767767   0.0000000), wk =   0.0416667
        k(    5) = (   0.0000000   0.2357023   0.0000000), wk =   0.0416667
        k(    6) = (   0.0000000   0.2946278   0.0000000), wk =   0.0416667
        k(    7) = (   0.0000000  -0.3535534   0.0000000), wk =   0.0208333
        k(    8) = (   0.1250000   0.0000000   0.0000000), wk =   0.0416667
        k(    9) = (   0.1250000   0.0589256   0.0000000), wk =   0.0416667
        k(   10) = (   0.1250000   0.1178511   0.0000000), wk =   0.0416667
        k(   11) = (   0.1250000   0.1767767   0.0000000), wk =   0.0416667
        k(   12) = (   0.1250000   0.2357023   0.0000000), wk =   0.0416667
        k(   13) = (   0.1250000   0.2946278   0.0000000), wk =   0.0416667
        k(   14) = (   0.1250000  -0.3535534   0.0000000), wk =   0.0416667
        k(   15) = (   0.1250000  -0.2946278   0.0000000), wk =   0.0416667
        k(   16) = (   0.1250000  -0.2357023   0.0000000), wk =   0.0416667
        k(   17) = (   0.1250000  -0.1767767   0.0000000), wk =   0.0416667
        k(   18) = (   0.1250000  -0.1178511   0.0000000), wk =   0.0416667
        k(   19) = (   0.1250000  -0.0589256   0.0000000), wk =   0.0416667
        k(   20) = (   0.2500000   0.0000000   0.0000000), wk =   0.0416667
        k(   21) = (   0.2500000   0.0589256   0.0000000), wk =   0.0416667
        k(   22) = (   0.2500000   0.1178511   0.0000000), wk =   0.0416667
        k(   23) = (   0.2500000   0.1767767   0.0000000), wk =   0.0416667
        k(   24) = (   0.2500000   0.2357023   0.0000000), wk =   0.0416667
        k(   25) = (   0.2500000   0.2946278   0.0000000), wk =   0.0416667
        k(   26) = (   0.2500000  -0.3535534   0.0000000), wk =   0.0416667
        k(   27) = (   0.2500000  -0.2946278   0.0000000), wk =   0.0416667
        k(   28) = (   0.2500000  -0.2357023   0.0000000), wk =   0.0416667
        k(   29) = (   0.2500000  -0.1767767   0.0000000), wk =   0.0416667
        k(   30) = (   0.2500000  -0.1178511   0.0000000), wk =   0.0416667
        k(   31) = (   0.2500000  -0.0589256   0.0000000), wk =   0.0416667
        k(   32) = (   0.3750000   0.0000000   0.0000000), wk =   0.0416667
        k(   33) = (   0.3750000   0.0589256   0.0000000), wk =   0.0416667
        k(   34) = (   0.3750000   0.1178511   0.0000000), wk =   0.0416667
        k(   35) = (   0.3750000   0.1767767   0.0000000), wk =   0.0416667
        k(   36) = (   0.3750000   0.2357023   0.0000000), wk =   0.0416667
        k(   37) = (   0.3750000   0.2946278   0.0000000), wk =   0.0416667
        k(   38) = (   0.3750000  -0.3535534   0.0000000), wk =   0.0416667
        k(   39) = (   0.3750000  -0.2946278   0.0000000), wk =   0.0416667
        k(   40) = (   0.3750000  -0.2357023   0.0000000), wk =   0.0416667
        k(   41) = (   0.3750000  -0.1767767   0.0000000), wk =   0.0416667
        k(   42) = (   0.3750000  -0.1178511   0.0000000), wk =   0.0416667
        k(   43) = (   0.3750000  -0.0589256   0.0000000), wk =   0.0416667
        k(   44) = (  -0.5000000   0.0000000   0.0000000), wk =   0.0208333
        k(   45) = (  -0.5000000   0.0589256   0.0000000), wk =   0.0416667
        k(   46) = (  -0.5000000   0.1178511   0.0000000), wk =   0.0416667
        k(   47) = (  -0.5000000   0.1767767   0.0000000), wk =   0.0416667
        k(   48) = (  -0.5000000   0.2357023   0.0000000), wk =   0.0416667
        k(   49) = (  -0.5000000   0.2946278   0.0000000), wk =   0.0416667
        k(   50) = (  -0.5000000  -0.3535534   0.0000000), wk =   0.0208333

     Dense  grid:   261457 G-vectors     FFT dimensions: (  45,  64, 200)

     Smooth grid:   142317 G-vectors     FFT dimensions: (  36,  50, 160)

     Estimated max dynamical RAM per process >     393.00 MB

     Estimated total dynamical RAM >       3.84 GB

     Initial potential from superposition of free atoms

     starting charge     307.9969, renormalised to     308.0000
     Starting wfcs are  252 randomized atomic wfcs
     Checking if some PAW data can be deallocated... 

     total cpu time spent up to now is       23.8 secs

     Self-consistent Calculation

     iteration #  1     ecut=    50.00 Ry     beta= 0.10
     Davidson diagonalization with overlap
     ethr =  1.00E-02,  avg # of iterations =  5.1

     total cpu time spent up to now is       84.9 secs

     total energy              =  -21685.57957482 Ry
     estimated scf accuracy    <      15.38533300 Ry

     iteration #  2     ecut=    50.00 Ry     beta= 0.10
     Davidson diagonalization with overlap
     ethr =  5.00E-03,  avg # of iterations =  6.5

     total cpu time spent up to now is      139.5 secs

     total energy              =  -21684.84520106 Ry
     estimated scf accuracy    <     117.35705495 Ry

     iteration #  3     ecut=    50.00 Ry     beta= 0.10
     Davidson diagonalization with overlap
     ethr =  5.00E-03,  avg # of iterations =  2.6

     total cpu time spent up to now is      185.6 secs

     total energy              =  -21687.58362743 Ry
     estimated scf accuracy    <       2.80918889 Ry

     iteration #  4     ecut=    50.00 Ry     beta= 0.10
     Davidson diagonalization with overlap
     ethr =  9.12E-04,  avg # of iterations =  6.0

     total cpu time spent up to now is      238.0 secs

     total energy              =  -21687.56531974 Ry
     estimated scf accuracy    <       1.33162904 Ry

     iteration #  5     ecut=    50.00 Ry     beta= 0.10
     Davidson diagonalization with overlap
     ethr =  4.32E-04,  avg # of iterations =  6.6

     negative rho (up, down):  7.389E-03 0.000E+00

     total cpu time spent up to now is      292.2 secs

     total energy              =  -21687.46368591 Ry
     estimated scf accuracy    <       3.81204306 Ry

     iteration #  6     ecut=    50.00 Ry     beta= 0.10
     Davidson diagonalization with overlap
     ethr =  4.32E-04,  avg # of iterations =  3.2

     negative rho (up, down):  5.935E-02 0.000E+00

     total cpu time spent up to now is      338.6 secs

     total energy              =  -21687.47588092 Ry
     estimated scf accuracy    <       0.38210493 Ry

     iteration #  7     ecut=    50.00 Ry     beta= 0.10
     Davidson diagonalization with overlap
     c_bands:  1 eigenvalues not converged
     c_bands:  4 eigenvalues not converged
     ethr =  1.24E-04,  avg # of iterations =  9.4

     negative rho (up, down):  8.983E-02 0.000E+00

     total cpu time spent up to now is      411.1 secs

     total energy              =  -21687.53988793 Ry
     estimated scf accuracy    <       0.15248537 Ry

     iteration #  8     ecut=    50.00 Ry     beta= 0.10
     Davidson diagonalization with overlap
     c_bands:  2 eigenvalues not converged
     ethr =  4.95E-05,  avg # of iterations =  6.1

     negative rho (up, down):  1.203E-01 0.000E+00

     total cpu time spent up to now is      469.8 secs

     total energy              =  -21687.55215099 Ry
     estimated scf accuracy    <       0.08262096 Ry

     iteration #  9     ecut=    50.00 Ry     beta= 0.10
     Davidson diagonalization with overlap
     c_bands:  3 eigenvalues not converged
     ethr =  2.68E-05,  avg # of iterations =  4.0

     negative rho (up, down):  1.817E-01 0.000E+00

     total cpu time spent up to now is      519.7 secs

     total energy              =  -21687.55387249 Ry
     estimated scf accuracy    <       0.03977834 Ry

     iteration # 10     ecut=    50.00 Ry     beta= 0.10
     Davidson diagonalization with overlap
     c_bands:  1 eigenvalues not converged
     c_bands:  2 eigenvalues not converged
     c_bands:  1 eigenvalues not converged
     ethr =  1.29E-05,  avg # of iterations =  8.1

     negative rho (up, down):  2.298E-01 0.000E+00

     total cpu time spent up to now is      580.3 secs

     total energy              =  -21687.55736937 Ry
     estimated scf accuracy    <       0.01284790 Ry

     iteration # 11     ecut=    50.00 Ry     beta= 0.10
     Davidson diagonalization with overlap
     c_bands:  1 eigenvalues not converged
     c_bands:  1 eigenvalues not converged
     ethr =  4.17E-06,  avg # of iterations =  9.2

     negative rho (up, down):  2.364E-01 0.000E+00

     total cpu time spent up to now is      652.1 secs

     total energy              =  -21687.56030183 Ry
     estimated scf accuracy    <       0.00317291 Ry

     iteration # 12     ecut=    50.00 Ry     beta= 0.10
     Davidson diagonalization with overlap
     c_bands:  2 eigenvalues not converged
     ethr =  1.03E-06,  avg # of iterations =  5.9

     negative rho (up, down):  2.412E-01 0.000E+00

     total cpu time spent up to now is      723.1 secs

     total energy              =  -21687.56229844 Ry
     estimated scf accuracy    <       0.00076872 Ry

     iteration # 13     ecut=    50.00 Ry     beta= 0.10
     Davidson diagonalization with overlap
     c_bands:  2 eigenvalues not converged
     ethr =  2.50E-07,  avg # of iterations =  5.4

     negative rho (up, down):  2.433E-01 0.000E+00

     total cpu time spent up to now is      782.4 secs

     total energy              =  -21687.56329728 Ry
     estimated scf accuracy    <       0.00102551 Ry

     iteration # 14     ecut=    50.00 Ry     beta= 0.10
     Davidson diagonalization with overlap
     ethr =  2.50E-07,  avg # of iterations =  1.5

     negative rho (up, down):  2.401E-01 0.000E+00

     total cpu time spent up to now is      824.0 secs

     total energy              =  -21687.56407359 Ry
     estimated scf accuracy    <       0.00031830 Ry

     iteration # 15     ecut=    50.00 Ry     beta= 0.10
     Davidson diagonalization with overlap
     ethr =  1.03E-07,  avg # of iterations =  2.3

     negative rho (up, down):  2.375E-01 0.000E+00

     total cpu time spent up to now is      869.8 secs

     total energy              =  -21687.56469878 Ry
     estimated scf accuracy    <       0.00035869 Ry

     iteration # 16     ecut=    50.00 Ry     beta= 0.10
     Davidson diagonalization with overlap
     ethr =  1.03E-07,  avg # of iterations =  3.1

     negative rho (up, down):  2.394E-01 0.000E+00

     total cpu time spent up to now is      916.6 secs

     total energy              =  -21687.56515148 Ry
     estimated scf accuracy    <       0.00010593 Ry

     iteration # 17     ecut=    50.00 Ry     beta= 0.10
     Davidson diagonalization with overlap
     c_bands:  2 eigenvalues not converged
     c_bands:  2 eigenvalues not converged
     ethr =  3.44E-08,  avg # of iterations =  5.2

     negative rho (up, down):  2.393E-01 0.000E+00

     total cpu time spent up to now is      971.3 secs

     total energy              =  -21687.56553876 Ry
     estimated scf accuracy    <       0.00003565 Ry

     iteration # 18     ecut=    50.00 Ry     beta= 0.10
     Davidson diagonalization with overlap
     c_bands:  1 eigenvalues not converged
     ethr =  1.16E-08,  avg # of iterations =  6.0

     negative rho (up, down):  2.390E-01 0.000E+00

     total cpu time spent up to now is     1034.9 secs

     total energy              =  -21687.56586022 Ry
     estimated scf accuracy    <       0.00000941 Ry

     iteration # 19     ecut=    50.00 Ry     beta= 0.10
     Davidson diagonalization with overlap
     ethr =  3.05E-09,  avg # of iterations =  6.8

     negative rho (up, down):  2.394E-01 0.000E+00

     total cpu time spent up to now is     1114.7 secs

     total energy              =  -21687.56611256 Ry
     estimated scf accuracy    <       0.00000402 Ry

     iteration # 20     ecut=    50.00 Ry     beta= 0.10
     Davidson diagonalization with overlap
     ethr =  1.31E-09,  avg # of iterations =  6.4

     negative rho (up, down):  2.399E-01 0.000E+00

     total cpu time spent up to now is     1176.4 secs

     total energy              =  -21687.56631660 Ry
     estimated scf accuracy    <       0.00000373 Ry

     iteration # 21     ecut=    50.00 Ry     beta= 0.10
     Davidson diagonalization with overlap
     ethr =  1.21E-09,  avg # of iterations =  5.4

     negative rho (up, down):  2.393E-01 0.000E+00

     total cpu time spent up to now is     1226.9 secs

     total energy              =  -21687.56650195 Ry
     estimated scf accuracy    <       0.00000465 Ry

     iteration # 22     ecut=    50.00 Ry     beta= 0.10
     Davidson diagonalization with overlap
     ethr =  1.21E-09,  avg # of iterations =  5.8

     negative rho (up, down):  2.422E-01 0.000E+00

     total cpu time spent up to now is     1279.7 secs

     total energy              =  -21687.56659047 Ry
     estimated scf accuracy    <       0.00001031 Ry

     iteration # 23     ecut=    50.00 Ry     beta= 0.10
     Davidson diagonalization with overlap
     ethr =  1.21E-09,  avg # of iterations =  2.7

     negative rho (up, down):  2.418E-01 0.000E+00

     total cpu time spent up to now is     1325.3 secs

     total energy              =  -21687.56671770 Ry
     estimated scf accuracy    <       0.00000411 Ry

     iteration # 24     ecut=    50.00 Ry     beta= 0.10
     Davidson diagonalization with overlap
     ethr =  1.21E-09,  avg # of iterations =  5.5

     negative rho (up, down):  2.427E-01 0.000E+00

     total cpu time spent up to now is     1376.9 secs

     total energy              =  -21687.56680202 Ry
     estimated scf accuracy    <       0.00000417 Ry

     iteration # 25     ecut=    50.00 Ry     beta= 0.10
     Davidson diagonalization with overlap
     ethr =  1.21E-09,  avg # of iterations =  3.9

     negative rho (up, down):  2.432E-01 0.000E+00

     total cpu time spent up to now is     1425.6 secs

     total energy              =  -21687.56687614 Ry
     estimated scf accuracy    <       0.00000322 Ry

     iteration # 26     ecut=    50.00 Ry     beta= 0.10
     Davidson diagonalization with overlap
     ethr =  1.05E-09,  avg # of iterations =  5.1

     negative rho (up, down):  2.438E-01 0.000E+00

     total cpu time spent up to now is     1475.9 secs

     total energy              =  -21687.56693547 Ry
     estimated scf accuracy    <       0.00000373 Ry

     iteration # 27     ecut=    50.00 Ry     beta= 0.10
     Davidson diagonalization with overlap
     ethr =  1.05E-09,  avg # of iterations =  3.9

     negative rho (up, down):  2.435E-01 0.000E+00

     total cpu time spent up to now is     1524.2 secs

     total energy              =  -21687.56699433 Ry
     estimated scf accuracy    <       0.00000313 Ry

     iteration # 28     ecut=    50.00 Ry     beta= 0.10
     Davidson diagonalization with overlap
     ethr =  1.02E-09,  avg # of iterations =  5.3

     negative rho (up, down):  2.438E-01 0.000E+00

     total cpu time spent up to now is     1575.7 secs

     total energy              =  -21687.56703675 Ry
     estimated scf accuracy    <       0.00000633 Ry

     iteration # 29     ecut=    50.00 Ry     beta= 0.10
     Davidson diagonalization with overlap
     ethr =  1.02E-09,  avg # of iterations =  4.3

     negative rho (up, down):  2.437E-01 0.000E+00

     total cpu time spent up to now is     1622.6 secs

     total energy              =  -21687.56707397 Ry
     estimated scf accuracy    <       0.00000730 Ry

     iteration # 30     ecut=    50.00 Ry     beta= 0.10
     Davidson diagonalization with overlap
     ethr =  1.02E-09,  avg # of iterations =  4.7

     negative rho (up, down):  2.439E-01 0.000E+00

     total cpu time spent up to now is     1673.7 secs

     total energy              =  -21687.56710222 Ry
     estimated scf accuracy    <       0.00000983 Ry

     iteration # 31     ecut=    50.00 Ry     beta= 0.10
     Davidson diagonalization with overlap
     ethr =  1.02E-09,  avg # of iterations =  3.4

     negative rho (up, down):  2.446E-01 0.000E+00

     total cpu time spent up to now is     1722.7 secs

     total energy              =  -21687.56712178 Ry
     estimated scf accuracy    <       0.00001040 Ry

     iteration # 32     ecut=    50.00 Ry     beta= 0.10
     Davidson diagonalization with overlap
     ethr =  1.02E-09,  avg # of iterations =  3.0

     negative rho (up, down):  2.444E-01 0.000E+00

     total cpu time spent up to now is     1770.0 secs

     total energy              =  -21687.56714294 Ry
     estimated scf accuracy    <       0.00000863 Ry

     iteration # 33     ecut=    50.00 Ry     beta= 0.10
     Davidson diagonalization with overlap
     ethr =  1.02E-09,  avg # of iterations =  4.1

     negative rho (up, down):  2.448E-01 0.000E+00

     total cpu time spent up to now is     1819.7 secs

     total energy              =  -21687.56715706 Ry
     estimated scf accuracy    <       0.00001117 Ry

     iteration # 34     ecut=    50.00 Ry     beta= 0.10
     Davidson diagonalization with overlap
     ethr =  1.02E-09,  avg # of iterations =  2.6

     negative rho (up, down):  2.451E-01 0.000E+00

     total cpu time spent up to now is     1867.2 secs

     total energy              =  -21687.56716824 Ry
     estimated scf accuracy    <       0.00000987 Ry

     iteration # 35     ecut=    50.00 Ry     beta= 0.10
     Davidson diagonalization with overlap
     ethr =  1.02E-09,  avg # of iterations =  2.7

     negative rho (up, down):  2.452E-01 0.000E+00

     total cpu time spent up to now is     1915.1 secs

     total energy              =  -21687.56717839 Ry
     estimated scf accuracy    <       0.00000998 Ry

     iteration # 36     ecut=    50.00 Ry     beta= 0.10
     Davidson diagonalization with overlap
     ethr =  1.02E-09,  avg # of iterations =  2.9

     negative rho (up, down):  2.452E-01 0.000E+00

     total cpu time spent up to now is     1962.0 secs

     total energy              =  -21687.56718703 Ry
     estimated scf accuracy    <       0.00001090 Ry

     iteration # 37     ecut=    50.00 Ry     beta= 0.10
     Davidson diagonalization with overlap
     ethr =  1.02E-09,  avg # of iterations =  3.2

     negative rho (up, down):  2.454E-01 0.000E+00

     total cpu time spent up to now is     2007.8 secs

     total energy              =  -21687.56719324 Ry
     estimated scf accuracy    <       0.00001254 Ry

     iteration # 38     ecut=    50.00 Ry     beta= 0.10
     Davidson diagonalization with overlap
     ethr =  1.02E-09,  avg # of iterations =  1.7

     negative rho (up, down):  2.450E-01 0.000E+00

     total cpu time spent up to now is     2050.3 secs

     total energy              =  -21687.56720007 Ry
     estimated scf accuracy    <       0.00001244 Ry

     iteration # 39     ecut=    50.00 Ry     beta= 0.10
     Davidson diagonalization with overlap
     ethr =  1.02E-09,  avg # of iterations =  3.4

     negative rho (up, down):  2.452E-01 0.000E+00

     total cpu time spent up to now is     2096.5 secs

     total energy              =  -21687.56720358 Ry
     estimated scf accuracy    <       0.00001697 Ry

     iteration # 40     ecut=    50.00 Ry     beta= 0.10
     Davidson diagonalization with overlap
     ethr =  1.02E-09,  avg # of iterations =  1.2

     negative rho (up, down):  2.463E-01 0.000E+00

     total cpu time spent up to now is     2138.1 secs

     total energy              =  -21687.56720434 Ry
     estimated scf accuracy    <       0.00001579 Ry

     iteration # 41     ecut=    50.00 Ry     beta= 0.10
     Davidson diagonalization with overlap
     ethr =  1.02E-09,  avg # of iterations =  1.0

     negative rho (up, down):  2.452E-01 0.000E+00

     total cpu time spent up to now is     2178.7 secs

     total energy              =  -21687.56720928 Ry
     estimated scf accuracy    <       0.00001010 Ry

     iteration # 42     ecut=    50.00 Ry     beta= 0.10
     Davidson diagonalization with overlap
     ethr =  1.02E-09,  avg # of iterations =  4.1

     negative rho (up, down):  2.459E-01 0.000E+00

     total cpu time spent up to now is     2225.6 secs

     total energy              =  -21687.56721011 Ry
     estimated scf accuracy    <       0.00001834 Ry

     iteration # 43     ecut=    50.00 Ry     beta= 0.10
     Davidson diagonalization with overlap
     ethr =  1.02E-09,  avg # of iterations =  1.0

     negative rho (up, down):  2.455E-01 0.000E+00

     total cpu time spent up to now is     2266.4 secs

     total energy              =  -21687.56721222 Ry
     estimated scf accuracy    <       0.00001410 Ry

     iteration # 44     ecut=    50.00 Ry     beta= 0.10
     Davidson diagonalization with overlap
     ethr =  1.02E-09,  avg # of iterations =  2.0

     negative rho (up, down):  2.481E-01 0.000E+00

     total cpu time spent up to now is     2309.9 secs

     total energy              =  -21687.56720986 Ry
     estimated scf accuracy    <       0.00001724 Ry

     iteration # 45     ecut=    50.00 Ry     beta= 0.10
     Davidson diagonalization with overlap
     ethr =  1.02E-09,  avg # of iterations =  1.1

     negative rho (up, down):  2.495E-01 0.000E+00

     total cpu time spent up to now is     2350.6 secs

     total energy              =  -21687.56720901 Ry
     estimated scf accuracy    <       0.00000498 Ry

     iteration # 46     ecut=    50.00 Ry     beta= 0.10
     Davidson diagonalization with overlap
     ethr =  1.02E-09,  avg # of iterations =  1.3

     negative rho (up, down):  2.524E-01 0.000E+00

     total cpu time spent up to now is     2392.1 secs

     total energy              =  -21687.56720482 Ry
     estimated scf accuracy    <       0.00000140 Ry

     iteration # 47     ecut=    50.00 Ry     beta= 0.10
     Davidson diagonalization with overlap
     ethr =  4.54E-10,  avg # of iterations =  4.7

     negative rho (up, down):  2.507E-01 0.000E+00

     total cpu time spent up to now is     2441.6 secs

     total energy              =  -21687.56720945 Ry
     estimated scf accuracy    <       0.00000173 Ry

     iteration # 48     ecut=    50.00 Ry     beta= 0.10
     Davidson diagonalization with overlap
     ethr =  4.54E-10,  avg # of iterations =  4.0

     negative rho (up, down):  2.510E-01 0.000E+00

     total cpu time spent up to now is     2488.3 secs

     End of self-consistent calculation

          k = 0.0000 0.0000 0.0000 ( 17807 PWs)   bands (ev):

   -10.2999 -10.2680 -10.2392   0.9417   0.9557   1.0800   1.0801   1.1385
     1.1386   4.3020   4.3021   4.5484   4.5757   4.5758   4.8624   4.8626
     7.3210   7.7321   8.1628   8.4879   9.1286   9.5315   9.5326   9.5379
     9.7526   9.7527   9.8453   9.8642  10.1974  10.5972  10.8273  10.9491
    10.9827  11.0085  11.0570  11.0843  11.0868  11.0884  11.1369  11.2637
    11.3213  11.3902  11.3959  11.4522  11.5328  11.5895  11.6082  11.6257
    11.6270  11.7548  11.7647  11.7834  11.7894  11.8452  11.8778  11.9298
    12.0659  12.1188  12.1578  12.1703  12.3073  12.3576  12.3584  12.4941
    12.5163  12.5452  12.5506  12.6847  12.7442  12.7957  12.8236  12.9136
    12.9766  13.0271  13.0468  13.0690  13.0758  13.1079  13.1180  13.1597
    13.2256  13.2681  13.2875  13.3935  13.4152  13.5232  13.5725  13.6194
    13.7245  13.7737  13.8638  13.9195  13.9680  13.9709  13.9830  14.1568
    14.1732  14.2037  14.2492  14.2862  14.3976  14.4284  14.4390  14.5761
    14.5979  14.6154  14.6468  14.6629  14.6755  14.6876  14.7146  14.7724
    14.9088  14.9687  14.9699  15.0747  15.1065  15.1170  15.1436  15.2318
    15.2798  15.3529  15.3683  15.4032  15.4213  15.5085  15.5830  15.5838
    15.5860  15.6545  15.6786  15.6995  15.7644  15.7961  15.8561  15.9421
    15.9585  16.0051  16.0619  16.2456  16.2904  16.4203  16.4271  17.0484
    17.3048  17.3059  17.5066  17.5080  17.6681  17.6704  17.7692  17.9640
    18.0529  18.0863  18.3876  18.4087  18.6822  18.7859  18.8429  18.8904
    20.1235  20.3355  20.3359  20.4744  20.9243  21.5560  22.6784  23.3139
    23.3822  23.7848  23.9985  23.9985  24.0994  24.3161  24.3480  24.5504
    24.5615  24.5892  25.0308  25.0390  25.4369  25.6449  25.7534  25.7550
    25.8384

          k = 0.0000 0.0589 0.0000 ( 17795 PWs)   bands (ev):

   -10.2206 -10.1599 -10.1244  -0.6938  -0.6309   0.9687   0.9837   2.9555
     2.9965   3.0016   4.0342   4.1998   4.6050   5.1452   5.1744   5.8353
     7.3631   7.7775   8.1933   8.4814   9.1654   9.2681   9.5820   9.7569
     9.7877   9.7982   9.8185   9.8814  10.2197  10.5553  10.8605  10.9314
    10.9956  11.0086  11.0579  11.0698  11.1035  11.1169  11.1651  11.2935
    11.3355  11.3514  11.4099  11.4167  11.5192  11.5291  11.5528  11.6168
    11.6555  11.6882  11.7132  11.7861  11.7908  11.8631  11.8753  11.9143
    12.0546  12.0860  12.1573  12.2089  12.2245  12.3329  12.3375  12.4575
    12.4597  12.5520  12.6021  12.6283  12.6541  12.7385  12.7941  12.8849
    12.9177  13.0102  13.0102  13.0221  13.1036  13.1256  13.1550  13.2062
    13.2250  13.2556  13.3045  13.4310  13.4957  13.5246  13.6043  13.6200
    13.7291  13.8028  13.8603  13.8949  13.9544  13.9578  14.0718  14.1509
    14.1851  14.2161  14.2232  14.3082  14.3806  14.4266  14.4767  14.5228
    14.5705  14.5871  14.6097  14.6397  14.6445  14.7036  14.7784  14.7972
    14.8935  14.9064  15.0348  15.0399  15.1024  15.1194  15.1225  15.2528
    15.2810  15.3022  15.3822  15.4520  15.4599  15.4687  15.5480  15.5593
    15.5709  15.6509  15.6626  15.6708  15.7577  15.8054  15.8230  15.8643
    15.9649  16.0144  16.1092  16.1363  16.2952  16.3986  16.4134  16.4219
    16.8856  17.0202  17.0722  17.2996  17.3983  17.8823  17.8902  18.1642
    18.2348  18.2551  18.5579  18.7234  18.7257  18.8409  19.1369  19.4003
    20.2117  20.2248  20.5682  20.9588  21.0594  21.5892  22.7031  23.2734
    23.4215  23.4967  23.4999  23.9107  24.0640  24.3229  24.3249  24.4666
    24.5396  24.5902  25.0196  25.1655  25.1996  25.4556  25.4999  25.7439
    25.8092

          k = 0.0000 0.1179 0.0000 ( 17803 PWs)   bands (ev):

    -9.9828  -9.9219  -9.6952  -2.3408  -2.2765   1.0496   1.0675   1.4576
     3.5256   3.6484   4.7756   4.8870   4.8989   5.7386   5.8379   6.9069
     7.4881   7.9122   8.2774   8.4751   9.0253   9.2715   9.6763   9.7034
     9.8024   9.8589   9.9185  10.0267  10.2801  10.4763  10.8042  10.8788
    10.8991  10.9573  11.0344  11.0425  11.1459  11.1585  11.2016  11.2034
    11.2610  11.3658  11.3759  11.4305  11.4348  11.4511  11.4684  11.4790
    11.5166  11.6466  11.6951  11.7363  11.8232  11.8519  11.9059  11.9413
    12.0222  12.1264  12.1510  12.1589  12.2586  12.3112  12.3726  12.4241
    12.4452  12.4479  12.5667  12.5680  12.6918  12.7004  12.7687  12.8603
    12.8802  12.9089  12.9290  12.9386  13.0479  13.1051  13.1580  13.2539
    13.2842  13.3013  13.3458  13.4561  13.4745  13.6439  13.6451  13.6959
    13.7390  13.7627  13.8100  13.9714  13.9747  14.0188  14.0499  14.1475
    14.1589  14.2492  14.2690  14.2782  14.3435  14.3635  14.4380  14.4794
    14.5426  14.5622  14.5973  14.6244  14.7142  14.7407  14.7575  14.7971
    14.8094  14.9164  14.9461  15.0627  15.1201  15.1492  15.1582  15.1664
    15.2084  15.2858  15.3234  15.3402  15.4425  15.4857  15.4986  15.5145
    15.5638  15.6371  15.6563  15.6801  15.6852  15.7158  15.7595  15.8162
    15.9099  15.9722  16.0208  16.0403  16.1978  16.3028  16.3100  16.3963
    16.4081  16.5773  16.5910  16.6596  16.9256  17.6839  17.7016  18.0294
    18.1151  18.8394  18.9574  18.9887  19.0824  19.6280  19.9626  20.2041
    20.4691  20.6083  20.8381  21.0552  21.6519  21.8388  22.6983  22.7669
    22.9522  22.9901  23.5388  23.7658  23.9620  23.9843  23.9954  24.4280
    24.5217  24.5948  24.7051  24.8255  25.2735  25.3664  25.4753  25.7014
    25.7227

          k = 0.0000 0.1768 0.0000 ( 17795 PWs)   bands (ev):

    -9.5858  -9.5247  -8.9861  -3.8458  -3.7815  -0.2258   1.1840   1.2067
     3.0545   3.1512   5.0636   6.3209   6.4772   6.6871   6.8196   7.6898
     7.9217   8.1313   8.3732   8.5206   8.8130   9.4277   9.4324   9.7373
     9.7374   9.8896   9.9174   9.9615  10.1310  10.3696  10.4221  10.4996
    10.7926  10.9869  11.0366  11.0784  11.1063  11.1179  11.1241  11.1912
    11.2478  11.2941  11.3460  11.3609  11.4587  11.4930  11.5508  11.5634
    11.5851  11.6951  11.8026  11.8397  11.8932  11.9367  11.9709  11.9747
    12.1039  12.1236  12.1425  12.2079  12.2817  12.2870  12.3115  12.4480
    12.4586  12.4852  12.5141  12.5375  12.5908  12.6647  12.7491  12.7979
    12.8185  12.8318  12.8960  12.9449  12.9466  13.0122  13.1724  13.2871
    13.3096  13.3345  13.4200  13.4501  13.5518  13.6150  13.7031  13.7135
    13.7581  13.7996  13.8698  13.8955  13.9659  13.9932  14.0305  14.0391
    14.1431  14.1474  14.2080  14.3215  14.3220  14.4089  14.4435  14.4871
    14.5609  14.5890  14.5920  14.6015  14.6525  14.6699  14.7824  14.8429
    14.8449  14.9017  14.9361  14.9551  15.0309  15.0825  15.1197  15.1291
    15.1304  15.1886  15.2133  15.3281  15.3434  15.3469  15.3849  15.4685
    15.4768  15.5167  15.5293  15.6090  15.6175  15.6787  15.7366  15.8215
    15.8760  15.9672  15.9818  15.9854  16.0051  16.0914  16.1417  16.1970
    16.2267  16.3356  16.3730  16.3895  16.7485  17.2820  17.5034  17.5065
    18.2086  19.0188  19.0377  19.7520  19.8176  20.4681  20.6395  20.8262
    20.8477  20.9298  21.1764  21.2395  21.2565  22.0980  22.1824  22.4925
    22.6224  22.8265  23.3880  23.7298  23.8670  23.9393  24.0381  24.3624
    24.5114  24.5303  24.6121  24.8874  25.0172  25.2131  25.4700  25.5823
    25.5826

          k = 0.0000 0.2357 0.0000 ( 17822 PWs)   bands (ev):

    -9.0293  -8.9677  -8.0079  -5.1996  -5.1357  -1.9776   1.3714   1.4007
     2.6247   2.7019   5.4747   6.9335   7.1117   7.9507   8.0062   8.4192
     8.4452   8.5281   8.5753   8.6375   8.6672   8.9448   9.0708   9.3541
     9.6739   9.8927   9.9816  10.0177  10.0893  10.1210  10.4740  10.6066
    10.6768  10.7605  10.8668  10.8794  11.0538  11.0572  11.1297  11.1799
    11.3011  11.3665  11.4312  11.5569  11.5974  11.6184  11.6722  11.6901
    11.7579  11.8584  11.9347  11.9702  11.9964  12.0112  12.0625  12.0898
    12.1008  12.1061  12.1673  12.1801  12.2468  12.3110  12.3628  12.3674
    12.4342  12.5577  12.5609  12.5615  12.5840  12.5920  12.6395  12.6545
    12.7548  12.8414  12.9352  12.9677  12.9850  13.1382  13.1400  13.1899
    13.3128  13.3249  13.4638  13.4909  13.5694  13.6538  13.6648  13.7298
    13.7545  13.8159  13.8215  13.8641  13.9137  13.9955  14.0167  14.0349
    14.0530  14.1538  14.1970  14.2498  14.3508  14.3559  14.3748  14.4549
    14.4846  14.5238  14.6038  14.6413  14.6435  14.7047  14.7111  14.7686
    14.7929  14.8498  14.8959  14.9183  14.9295  14.9468  14.9823  14.9931
    15.0233  15.1219  15.1494  15.1723  15.2465  15.2871  15.3033  15.3259
    15.4163  15.4759  15.5327  15.5556  15.5629  15.6317  15.6589  15.6684
    15.6984  15.7030  15.9429  15.9699  15.9866  15.9974  16.0117  16.2089
    16.2408  16.3417  16.3669  16.3721  16.5028  17.0866  17.1153  17.2839
    17.8460  18.7582  19.2690  20.2064  20.3560  20.4001  20.5847  20.8159
    21.0329  21.3641  21.6921  21.7903  21.7935  21.8178  22.0142  22.2043
    22.8200  23.1389  23.3451  23.6345  23.8685  23.9857  24.1164  24.4699
    24.4807  24.4872  24.6453  24.7015  24.7285  25.1291  25.1511  25.2815
    25.4611

          k = 0.0000 0.2946 0.0000 ( 17818 PWs)   bands (ev):

    -8.3125  -8.2504  -6.7793  -6.3970  -6.3337  -3.7075   1.6106   1.6485
     2.2391   2.3006   6.0182   7.5289   7.5570   7.7332   8.2059   8.4894
     8.5812   8.6195   8.6585   8.7557   8.8567   8.8832   9.3793   9.6289
     9.7543   9.7701   9.9064  10.1846  10.2347  10.3007  10.4890  10.5348
    10.5385  10.6160  10.7325  10.7429  10.7857  10.9912  11.1644  11.1954
    11.4844  11.5088  11.5424  11.6430  11.6973  11.8053  11.8067  11.8337
    11.8409  11.8559  11.9093  11.9781  11.9833  12.0554  12.1338  12.1455
    12.1593  12.1604  12.1800  12.1838  12.3020  12.3554  12.3911  12.4002
    12.4021  12.4625  12.5675  12.5875  12.6150  12.7321  12.7801  12.7921
    12.8889  12.9444  13.0080  13.0777  13.1332  13.1454  13.1775  13.1851
    13.3650  13.3781  13.4363  13.4695  13.5558  13.5858  13.6702  13.7813
    13.7910  13.8150  13.8619  13.8672  13.9625  13.9769  14.0255  14.0384
    14.0449  14.1351  14.1534  14.1964  14.2789  14.3124  14.3471  14.3790
    14.3797  14.4093  14.4599  14.5079  14.5508  14.5931  14.6628  14.7048
    14.7213  14.7268  14.8432  14.8509  14.8540  14.9715  14.9758  15.0288
    15.0654  15.0680  15.1429  15.1468  15.1838  15.2038  15.2231  15.3005
    15.3643  15.3801  15.4442  15.4919  15.4934  15.5458  15.6007  15.6881
    15.6969  15.8113  15.8427  15.9084  15.9654  16.0125  16.0179  16.2095
    16.2239  16.2714  16.3037  16.3374  16.4281  16.7931  16.8133  16.8629
    17.1400  17.8022  19.5639  19.9391  20.2015  20.2384  20.9809  21.2050
    21.4481  21.5120  21.5715  22.3308  22.3335  22.3419  22.4112  22.5263
    22.6664  23.2826  23.3012  23.6055  23.7987  23.8549  24.1182  24.2956
    24.4029  24.4150  24.5589  24.6614  24.7404  24.8585  24.8694  25.0511
    25.2082

          k = 0.0000-0.3536 0.0000 ( 17844 PWs)   bands (ev):

    -7.4350  -7.4350  -7.3723  -7.3723  -5.3303  -5.3303   1.9004   1.9004
     1.9489   1.9489   6.7071   6.7071   8.0974   8.0974   8.3271   8.3271
     8.3665   8.3665   8.8474   8.8474   8.9319   8.9319   9.2166   9.2166
    10.0952  10.0952  10.3065  10.3065  10.3818  10.3818  10.3871  10.3871
    10.4215  10.4215  10.6124  10.6124  10.8737  10.8737  11.1900  11.1900
    11.5895  11.5895  11.6675  11.6675  11.7021  11.7021  11.8427  11.8427
    11.9293  11.9293  11.9908  11.9908  12.0042  12.0042  12.1238  12.1238
    12.1339  12.1339  12.1666  12.1666  12.2935  12.2935  12.3350  12.3350
    12.4752  12.4752  12.6155  12.6155  12.8072  12.8072  12.8332  12.8332
    12.9244  12.9244  12.9694  12.9694  13.1397  13.1397  13.2990  13.2990
    13.3983  13.3983  13.5850  13.5850  13.7263  13.7263  13.8054  13.8054
    13.8636  13.8636  13.8996  13.8996  13.9250  13.9250  13.9263  13.9263
    14.0303  14.0303  14.1757  14.1757  14.1955  14.1955  14.4167  14.4167
    14.4238  14.4238  14.4781  14.4781  14.5164  14.5164  14.6712  14.6712
    14.7296  14.7296  14.9235  14.9235  14.9698  14.9698  15.0709  15.0709
    15.0747  15.0747  15.1522  15.1522  15.1716  15.1716  15.2113  15.2113
    15.3645  15.3645  15.4845  15.4845  15.5509  15.5509  15.5731  15.5731
    15.6393  15.6393  15.8272  15.8272  15.9043  15.9043  16.0093  16.0093
    16.1431  16.1431  16.2658  16.2658  16.3089  16.3089  16.6099  16.6099
    17.3099  17.3099  19.8933  19.8933  20.0370  20.0370  21.1989  21.1989
    21.5319  21.5319  22.0954  22.0954  22.4990  22.4990  22.9378  22.9378
    23.0542  23.0542  23.0913  23.0913  23.9599  23.9599  24.0760  24.0760
    24.3263  24.3263  24.6542  24.6542  24.7538  24.7538  24.7720  24.7720
    25.2259

          k = 0.1250 0.0000 0.0000 ( 17777 PWs)   bands (ev):

   -10.3005 -10.2660 -10.2399   0.9117   0.9877   1.0694   1.0695   1.1407
     1.1408   4.3610   4.3611   4.5452   4.5453   4.6938   4.9082   4.9084
     7.3232   7.8215   8.3811   8.4848   9.2401   9.5465   9.5473   9.5550
     9.7329   9.7329   9.8901   9.9446  10.2593  10.6081  10.6559  10.8387
    10.9476  10.9795  10.9892  11.1397  11.1450  11.2075  11.3214  11.3371
    11.3484  11.3495  11.3713  11.3942  11.4178  11.5401  11.5560  11.5898
    11.6224  11.6499  11.6671  11.7598  11.7765  11.7792  11.9811  12.0186
    12.1364  12.1618  12.2407  12.2510  12.2762  12.4118  12.4402  12.4633
    12.5494  12.5792  12.6386  12.8634  12.9212  12.9820  12.9919  13.0266
    13.0540  13.0665  13.0872  13.1156  13.1346  13.1564  13.2388  13.3108
    13.3293  13.3324  13.3782  13.3817  13.3855  13.5381  13.5559  13.6002
    13.6625  13.6934  13.7665  13.7746  13.8606  14.0128  14.0470  14.0906
    14.1270  14.1713  14.1801  14.3598  14.3910  14.3938  14.4326  14.4662
    14.4822  14.5341  14.5428  14.5538  14.6712  14.6725  14.7070  14.7856
    14.8001  14.9199  14.9641  15.0029  15.0154  15.0490  15.0517  15.1298
    15.2378  15.3520  15.3779  15.4057  15.4122  15.4408  15.4590  15.5041
    15.5951  15.6431  15.6485  15.7173  15.7816  15.7911  15.8117  15.8313
    15.8805  15.8838  16.0109  16.1349  16.2388  16.2417  16.2438  16.7564
    17.0226  17.3640  17.3678  17.5609  17.5618  17.7558  17.7719  18.0083
    18.2537  18.3321  18.6283  18.6430  18.8071  18.8659  19.0996  19.2348
    19.3228  19.4263  20.4694  20.4812  21.2057  21.3784  22.1006  22.3619
    23.1694  23.1718  23.4948  23.7677  23.9442  23.9698  23.9876  24.4208
    24.5187  24.5502  24.5619  24.8809  24.9572  25.1260  25.1481  25.4797
    26.0045

          k = 0.1250 0.0589 0.0000 ( 17791 PWs)   bands (ev):

   -10.2213 -10.1606 -10.1223  -0.6996  -0.6309   0.9389   1.0156   2.9149
     3.0046   3.0682   4.0191   4.2205   4.7499   5.1471   5.2256   5.8762
     7.3654   7.8667   8.4021   8.4899   9.2745   9.2875   9.5797   9.7371
     9.7626   9.8097   9.8701   9.9750  10.2791  10.5730  10.6738  10.8277
    10.9634  10.9788  11.0090  11.1462  11.1604  11.2303  11.2663  11.2961
    11.3440  11.3650  11.3755  11.3901  11.4348  11.5091  11.5465  11.5682
    11.5900  11.6798  11.7086  11.7459  11.7823  11.7841  11.9461  12.0377
    12.1018  12.1199  12.1571  12.2583  12.2779  12.3541  12.3935  12.4275
    12.4539  12.6177  12.7321  12.8255  12.8426  12.8986  12.9309  12.9877
    13.0354  13.0721  13.1001  13.1477  13.1687  13.2267  13.2496  13.2977
    13.3028  13.3483  13.3673  13.4013  13.4940  13.4946  13.5639  13.6107
    13.6533  13.7286  13.7744  13.8052  13.8427  13.8783  14.0013  14.0707
    14.0845  14.1760  14.1834  14.3108  14.3472  14.3994  14.4271  14.4548
    14.4972  14.5271  14.5726  14.5826  14.6325  14.7152  14.7184  14.7275
    14.8180  14.9396  14.9502  14.9779  15.0200  15.0612  15.0886  15.1452
    15.2382  15.3366  15.3761  15.3797  15.4323  15.4530  15.4863  15.5235
    15.5941  15.5977  15.6755  15.6880  15.7265  15.7778  15.7916  15.8115
    15.8253  15.9043  15.9980  16.0394  16.2052  16.2259  16.2550  16.5160
    16.9213  16.9266  17.0027  17.0966  17.5135  17.6617  17.9163  18.2775
    18.3476  18.7034  18.7046  18.7965  18.9155  19.1107  19.1729  19.3074
    19.4196  19.7161  20.5285  21.0136  21.2340  21.3962  22.1414  22.2669
    22.3658  23.4784  23.4908  23.6756  23.7075  23.8097  23.8584  24.2984
    24.3098  24.4089  24.4433  24.6371  25.2111  25.4375  25.4544  25.8203
    25.8385

          k = 0.1250 0.1179 0.0000 ( 17815 PWs)   bands (ev):

    -9.9834  -9.9226  -9.6929  -2.3447  -2.2769   1.0204   1.0993   1.4898
     3.5094   3.6736   4.8654   4.9098   4.9193   5.7381   5.8814   6.9532
     7.4904   8.0007   8.4254   8.5484   9.0473   9.3692   9.5897   9.7811
     9.8305   9.8548   9.9902  10.0279  10.3371  10.5084  10.7325  10.7902
    10.8725  10.8778  10.9913  11.0093  11.0907  11.2121  11.2266  11.2858
    11.2903  11.3400  11.3946  11.4106  11.4453  11.4725  11.4973  11.5399
    11.6363  11.6624  11.7078  11.7748  11.8238  11.8397  11.8543  11.9967
    12.0816  12.1212  12.1564  12.2587  12.2746  12.3267  12.3512  12.4224
    12.4290  12.5618  12.6349  12.7940  12.8105  12.8423  12.8842  12.9128
    12.9506  12.9993  13.0638  13.1430  13.1929  13.2140  13.2592  13.2779
    13.3323  13.3396  13.3961  13.4534  13.4590  13.5837  13.6083  13.6425
    13.6465  13.6704  13.7629  13.7765  13.8421  13.8503  13.9057  14.0092
    14.0561  14.1606  14.2129  14.2258  14.3083  14.3570  14.3936  14.4121
    14.4755  14.5211  14.5383  14.6204  14.6243  14.7268  14.7442  14.7977
    14.8383  14.8632  14.9494  15.0072  15.0240  15.0854  15.1014  15.1596
    15.2401  15.2668  15.3254  15.3456  15.3560  15.4562  15.4908  15.5247
    15.5377  15.5724  15.6028  15.6105  15.6814  15.7370  15.7498  15.7625
    15.8673  15.8884  15.9866  16.0008  16.0890  16.1557  16.1738  16.2891
    16.3821  16.5486  16.8568  16.9094  16.9545  17.2009  17.7203  18.2259
    18.4875  18.8822  19.0504  19.1380  19.2160  19.3797  19.5067  19.8037
    20.1892  20.5885  20.9292  21.3058  21.4135  21.4724  21.5148  22.1450
    22.2814  23.1560  23.1790  23.3208  23.3666  23.4200  23.6469  23.6703
    24.0588  24.2388  24.7072  25.0090  25.2638  25.2888  25.5800  25.7482
    26.0010

          k = 0.1250 0.1768 0.0000 ( 17796 PWs)   bands (ev):

    -9.5866  -9.5253  -8.9833  -3.8486  -3.7820  -0.2031   1.1558   1.2384
     3.0368   3.1796   5.2048   6.3126   6.5181   6.7233   6.7794   7.6926
     7.9534   8.2185   8.4322   8.6849   8.8365   9.3653   9.5724   9.7865
     9.8270   9.8653   9.9216   9.9931  10.1385  10.4099  10.4255  10.5449
    10.7218  10.7912  10.9453  11.0472  11.0640  11.1739  11.2061  11.2142
    11.3268  11.3965  11.4009  11.4771  11.5205  11.5248  11.5790  11.6138
    11.6943  11.7575  11.7943  11.8223  11.9117  11.9270  11.9617  12.0525
    12.0836  12.1055  12.1735  12.2425  12.2436  12.3155  12.3155  12.4394
    12.4867  12.4914  12.5573  12.7124  12.7167  12.8169  12.8219  12.8711
    12.8934  12.9257  12.9896  13.0263  13.0982  13.1390  13.2152  13.3112
    13.3522  13.3629  13.4012  13.4674  13.5144  13.5458  13.6370  13.6470
    13.6897  13.7079  13.7515  13.7546  13.7868  13.8508  13.9178  13.9548
    13.9797  14.0852  14.1297  14.2752  14.2837  14.3225  14.3286  14.4248
    14.4352  14.5107  14.5648  14.5929  14.6662  14.6717  14.7068  14.7273
    14.8563  14.8704  14.8937  14.9540  14.9904  15.0498  15.1007  15.1652
    15.1810  15.2154  15.2297  15.2539  15.3311  15.3338  15.3923  15.4421
    15.4925  15.5326  15.5390  15.5768  15.6191  15.6539  15.7118  15.7639
    15.8278  15.8280  15.9798  16.0471  16.0478  16.0533  16.0733  16.1061
    16.1710  16.3483  16.4438  16.4830  16.7420  17.3756  17.5278  17.7984
    17.9840  19.0451  19.2483  19.6823  19.8021  19.9509  20.0127  20.6360
    20.6620  20.9130  21.0575  21.1686  21.2680  21.2693  21.6489  22.0414
    22.1107  22.7338  22.9680  22.9969  23.1186  23.1818  23.7243  23.7374
    24.0303  24.1159  24.6827  25.0110  25.0802  25.1731  25.5540  25.7424
    26.0250

          k = 0.1250 0.2357 0.0000 ( 17785 PWs)   bands (ev):

    -9.0301  -8.9683  -8.0044  -5.2017  -5.1364  -1.9624   1.3444   1.4322
     2.6049   2.7316   5.6117   6.9241   7.1503   7.9553   8.1187   8.3239
     8.4662   8.5112   8.6591   8.8423   8.8585   8.9179   9.0499   9.3964
     9.7855   9.8851   9.9319   9.9894  10.1209  10.1691  10.5103  10.6232
    10.6276  10.7674  10.7896  10.9391  10.9671  11.1606  11.1726  11.2127
    11.4443  11.5008  11.5281  11.5762  11.5951  11.6485  11.7575  11.7787
    11.8124  11.8325  11.9545  12.0013  12.0179  12.0233  12.0326  12.0782
    12.1182  12.1631  12.1939  12.2046  12.2485  12.2941  12.3521  12.4197
    12.4595  12.5894  12.5950  12.6189  12.6320  12.7269  12.7763  12.7840
    12.8261  12.8932  12.9868  13.0038  13.0113  13.0624  13.1938  13.2865
    13.3289  13.3382  13.3692  13.4809  13.5030  13.5674  13.5751  13.6524
    13.6695  13.7139  13.7221  13.8066  13.8277  13.8554  13.8664  13.9633
    14.0312  14.0518  14.1200  14.1388  14.1955  14.3058  14.3335  14.3664
    14.4348  14.4931  14.5052  14.5670  14.5734  14.6366  14.6473  14.7240
    14.7450  14.8067  14.8300  14.8862  14.9360  14.9695  14.9863  15.0127
    15.1051  15.1083  15.1962  15.2210  15.2302  15.2900  15.3267  15.4184
    15.4288  15.4729  15.4758  15.5573  15.5789  15.5910  15.6320  15.6743
    15.7074  15.8232  15.9017  15.9119  15.9638  16.0736  16.0798  16.1063
    16.2100  16.2560  16.3087  16.4270  16.5160  17.2840  17.3668  17.5321
    17.5460  18.8220  19.4747  19.9069  20.1210  20.1511  20.2745  20.4892
    20.5358  20.6232  20.8625  21.1431  21.6534  21.7081  22.0192  22.1011
    22.3245  22.5403  22.8334  23.0589  23.2560  23.3043  23.8690  23.9173
    24.0427  24.0650  24.6787  24.8117  24.9842  25.0881  25.5621  25.6490
    25.8282

          k = 0.1250 0.2946 0.0000 ( 17801 PWs)   bands (ev):

    -8.3135  -8.2510  -6.7745  -6.3985  -6.3343  -3.6974   1.5851   1.6798
     2.2173   2.3311   6.1476   7.4574   7.7271   7.7702   8.2183   8.5135
     8.5974   8.6128   8.8290   8.8554   8.9195   9.0256   9.3779   9.6516
     9.6831   9.7196  10.0104  10.1412  10.2208  10.3144  10.4895  10.5117
    10.5526  10.5730  10.7097  10.8319  10.9131  11.1042  11.2107  11.2383
    11.5776  11.6216  11.6442  11.6472  11.6620  11.7618  11.8201  11.8678
    11.8989  11.9267  11.9628  12.0268  12.0348  12.0537  12.0815  12.1253
    12.1917  12.2643  12.2673  12.2746  12.3455  12.3617  12.4294  12.4828
    12.4908  12.5338  12.5732  12.6467  12.6881  12.7323  12.7921  12.8484
    12.8978  12.9489  12.9604  13.0284  13.1231  13.1563  13.1597  13.2380
    13.2613  13.3471  13.4224  13.4393  13.4871  13.5581  13.6015  13.6578
    13.6801  13.7302  13.7479  13.7614  13.8303  13.8514  13.9420  13.9631
    13.9896  14.0588  14.0607  14.1068  14.1581  14.1655  14.2665  14.3665
    14.4107  14.4331  14.5376  14.5517  14.5995  14.6078  14.6408  14.6639
    14.6881  14.7301  14.7831  14.7996  14.8367  14.8583  14.8635  14.9318
    14.9760  15.0104  15.0990  15.1520  15.1958  15.2005  15.2681  15.2706
    15.3303  15.4201  15.4874  15.5818  15.6552  15.6556  15.6803  15.7037
    15.7903  15.7954  15.8857  15.9176  15.9378  16.0519  16.0531  16.0862
    16.1191  16.1721  16.2693  16.2759  16.4560  16.8071  16.9114  17.1892
    17.4364  17.9061  19.4420  19.7016  19.8951  19.9710  20.3279  20.4973
    20.5679  20.7393  21.3086  21.5559  21.8092  21.9114  22.0512  22.3181
    22.6067  22.8365  23.2097  23.2161  23.2855  23.4658  23.7978  24.0033
    24.0903  24.4170  24.4468  24.6181  24.7598  24.8946  25.2096  25.3972
    25.6419

          k = 0.1250-0.3536 0.0000 ( 17808 PWs)   bands (ev):

    -7.4362  -7.4362  -7.3729  -7.3729  -5.3235  -5.3235   1.8766   1.8766
     1.9799   1.9799   6.8207   6.8207   8.1026   8.1026   8.3626   8.3626
     8.3879   8.3879   8.9196   8.9196   9.0543   9.0543   9.2740   9.2740
    10.1189  10.1189  10.2665  10.2665  10.3150  10.3150  10.3432  10.3432
    10.4069  10.4069  10.7308  10.7308  10.9978  10.9978  11.2415  11.2415
    11.6623  11.6623  11.6993  11.6993  11.7803  11.7803  11.8382  11.8382
    11.8489  11.8489  12.0289  12.0289  12.0602  12.0602  12.1604  12.1604
    12.2122  12.2122  12.2898  12.2898  12.3425  12.3425  12.4294  12.4294
    12.5096  12.5096  12.6335  12.6335  12.7835  12.7835  12.8244  12.8244
    12.9097  12.9097  12.9710  12.9710  13.1272  13.1272  13.2977  13.2977
    13.3542  13.3542  13.5102  13.5102  13.5998  13.5998  13.7047  13.7047
    13.7133  13.7133  13.7981  13.7981  13.8285  13.8285  13.8902  13.8902
    13.9693  13.9693  14.0327  14.0327  14.2995  14.2995  14.3618  14.3618
    14.4561  14.4561  14.5282  14.5282  14.6071  14.6071  14.6467  14.6467
    14.7086  14.7086  14.8016  14.8016  14.8197  14.8197  14.8950  14.8950
    15.0261  15.0261  15.1104  15.1104  15.1633  15.1633  15.1993  15.1993
    15.4047  15.4047  15.5268  15.5268  15.6980  15.6980  15.7162  15.7162
    15.7625  15.7625  15.8374  15.8374  15.8824  15.8824  15.9629  15.9629
    16.0974  16.0974  16.1695  16.1695  16.2777  16.2777  16.9219  16.9219
    17.4969  17.4969  19.4342  19.4342  20.1117  20.1117  20.1925  20.1925
    20.9709  20.9709  21.2053  21.2053  22.1016  22.1016  22.4566  22.4566
    22.7620  22.7620  22.9966  22.9966  23.8225  23.8225  23.8702  23.8702
    24.3182  24.3182  24.4918  24.4918  24.6646  24.6646  24.9414  24.9414
    25.8588

          k = 0.1250-0.2946 0.0000 ( 17801 PWs)   bands (ev):

    -8.3135  -8.2510  -6.7745  -6.3985  -6.3343  -3.6974   1.5851   1.6798
     2.2173   2.3311   6.1476   7.4574   7.7271   7.7702   8.2183   8.5135
     8.5974   8.6128   8.8290   8.8554   8.9195   9.0256   9.3779   9.6516
     9.6831   9.7196  10.0104  10.1412  10.2208  10.3144  10.4895  10.5117
    10.5526  10.5730  10.7097  10.8319  10.9131  11.1042  11.2107  11.2383
    11.5776  11.6216  11.6442  11.6472  11.6620  11.7618  11.8201  11.8678
    11.8989  11.9267  11.9628  12.0268  12.0348  12.0537  12.0815  12.1253
    12.1917  12.2643  12.2673  12.2746  12.3455  12.3617  12.4294  12.4828
    12.4908  12.5338  12.5732  12.6467  12.6881  12.7323  12.7921  12.8484
    12.8978  12.9489  12.9604  13.0284  13.1231  13.1563  13.1597  13.2380
    13.2613  13.3471  13.4224  13.4393  13.4871  13.5581  13.6015  13.6578
    13.6801  13.7302  13.7479  13.7614  13.8303  13.8514  13.9420  13.9631
    13.9896  14.0588  14.0607  14.1068  14.1581  14.1655  14.2665  14.3665
    14.4107  14.4331  14.5376  14.5517  14.5995  14.6078  14.6408  14.6639
    14.6881  14.7301  14.7831  14.7996  14.8367  14.8583  14.8635  14.9318
    14.9760  15.0104  15.0990  15.1520  15.1958  15.2005  15.2681  15.2706
    15.3303  15.4201  15.4874  15.5818  15.6552  15.6556  15.6803  15.7037
    15.7903  15.7954  15.8857  15.9176  15.9378  16.0519  16.0531  16.0862
    16.1191  16.1721  16.2693  16.2759  16.4560  16.8071  16.9114  17.1892
    17.4364  17.9061  19.4420  19.7016  19.8951  19.9710  20.3279  20.4973
    20.5679  20.7393  21.3086  21.5559  21.8092  21.9114  22.0512  22.3181
    22.6067  22.8365  23.2097  23.2161  23.2855  23.4658  23.7978  24.0033
    24.0903  24.4170  24.4468  24.6181  24.7598  24.8946  25.2096  25.3972
    25.6420

          k = 0.1250-0.2357 0.0000 ( 17785 PWs)   bands (ev):

    -9.0301  -8.9683  -8.0044  -5.2017  -5.1364  -1.9624   1.3444   1.4322
     2.6049   2.7316   5.6117   6.9241   7.1503   7.9553   8.1187   8.3239
     8.4662   8.5112   8.6591   8.8423   8.8585   8.9179   9.0499   9.3964
     9.7855   9.8851   9.9319   9.9894  10.1209  10.1691  10.5103  10.6232
    10.6276  10.7674  10.7896  10.9391  10.9671  11.1606  11.1726  11.2127
    11.4443  11.5008  11.5281  11.5762  11.5951  11.6485  11.7575  11.7787
    11.8124  11.8325  11.9545  12.0013  12.0179  12.0233  12.0326  12.0782
    12.1182  12.1631  12.1939  12.2046  12.2485  12.2941  12.3521  12.4197
    12.4595  12.5894  12.5950  12.6189  12.6320  12.7269  12.7763  12.7840
    12.8261  12.8932  12.9868  13.0038  13.0113  13.0624  13.1938  13.2865
    13.3289  13.3382  13.3692  13.4809  13.5030  13.5674  13.5751  13.6524
    13.6695  13.7139  13.7221  13.8066  13.8277  13.8554  13.8664  13.9633
    14.0312  14.0518  14.1200  14.1388  14.1955  14.3058  14.3335  14.3664
    14.4348  14.4931  14.5052  14.5670  14.5734  14.6366  14.6473  14.7240
    14.7450  14.8067  14.8300  14.8862  14.9360  14.9695  14.9863  15.0127
    15.1051  15.1083  15.1962  15.2210  15.2302  15.2900  15.3267  15.4184
    15.4288  15.4729  15.4758  15.5573  15.5789  15.5910  15.6320  15.6743
    15.7074  15.8232  15.9017  15.9119  15.9638  16.0736  16.0798  16.1063
    16.2100  16.2560  16.3087  16.4270  16.5160  17.2840  17.3668  17.5321
    17.5460  18.8220  19.4747  19.9069  20.1210  20.1511  20.2745  20.4892
    20.5358  20.6232  20.8625  21.1431  21.6534  21.7081  22.0192  22.1011
    22.3245  22.5403  22.8334  23.0589  23.2560  23.3043  23.8690  23.9173
    24.0427  24.0650  24.6787  24.8117  24.9842  25.0881  25.5621  25.6490
    25.8278

          k = 0.1250-0.1768 0.0000 ( 17796 PWs)   bands (ev):

    -9.5866  -9.5253  -8.9833  -3.8486  -3.7820  -0.2031   1.1558   1.2384
     3.0368   3.1796   5.2048   6.3126   6.5181   6.7233   6.7794   7.6926
     7.9534   8.2185   8.4322   8.6849   8.8365   9.3653   9.5724   9.7865
     9.8270   9.8653   9.9216   9.9931  10.1385  10.4099  10.4255  10.5449
    10.7218  10.7912  10.9453  11.0472  11.0640  11.1739  11.2061  11.2142
    11.3268  11.3965  11.4009  11.4771  11.5205  11.5248  11.5790  11.6138
    11.6943  11.7575  11.7943  11.8223  11.9117  11.9270  11.9617  12.0525
    12.0836  12.1055  12.1735  12.2425  12.2436  12.3155  12.3155  12.4394
    12.4867  12.4914  12.5573  12.7124  12.7167  12.8169  12.8219  12.8711
    12.8934  12.9257  12.9896  13.0263  13.0982  13.1390  13.2152  13.3112
    13.3522  13.3629  13.4012  13.4674  13.5144  13.5458  13.6370  13.6470
    13.6897  13.7079  13.7515  13.7546  13.7868  13.8508  13.9178  13.9548
    13.9797  14.0852  14.1297  14.2752  14.2837  14.3225  14.3286  14.4248
    14.4352  14.5107  14.5648  14.5929  14.6662  14.6717  14.7068  14.7273
    14.8563  14.8704  14.8937  14.9540  14.9904  15.0498  15.1007  15.1652
    15.1810  15.2154  15.2297  15.2539  15.3311  15.3338  15.3923  15.4421
    15.4925  15.5326  15.5390  15.5768  15.6191  15.6539  15.7118  15.7639
    15.8278  15.8280  15.9798  16.0471  16.0478  16.0533  16.0733  16.1061
    16.1710  16.3483  16.4438  16.4830  16.7420  17.3756  17.5278  17.7984
    17.9840  19.0451  19.2483  19.6823  19.8021  19.9509  20.0127  20.6360
    20.6620  20.9130  21.0575  21.1686  21.2680  21.2693  21.6489  22.0414
    22.1107  22.7338  22.9680  22.9969  23.1186  23.1818  23.7243  23.7374
    24.0303  24.1159  24.6827  25.0110  25.0802  25.1731  25.5540  25.7424
    26.0252

          k = 0.1250-0.1179 0.0000 ( 17815 PWs)   bands (ev):

    -9.9834  -9.9226  -9.6929  -2.3447  -2.2769   1.0204   1.0993   1.4898
     3.5094   3.6736   4.8654   4.9098   4.9193   5.7381   5.8814   6.9532
     7.4904   8.0007   8.4254   8.5484   9.0473   9.3692   9.5897   9.7811
     9.8305   9.8548   9.9902  10.0279  10.3371  10.5084  10.7325  10.7902
    10.8725  10.8778  10.9913  11.0093  11.0907  11.2121  11.2266  11.2858
    11.2903  11.3400  11.3946  11.4106  11.4453  11.4725  11.4973  11.5399
    11.6363  11.6624  11.7078  11.7748  11.8238  11.8397  11.8543  11.9967
    12.0816  12.1212  12.1564  12.2587  12.2746  12.3267  12.3512  12.4224
    12.4290  12.5618  12.6349  12.7940  12.8105  12.8423  12.8842  12.9128
    12.9506  12.9993  13.0638  13.1430  13.1929  13.2140  13.2592  13.2779
    13.3323  13.3396  13.3961  13.4534  13.4590  13.5837  13.6083  13.6425
    13.6465  13.6704  13.7629  13.7765  13.8421  13.8503  13.9057  14.0092
    14.0561  14.1606  14.2129  14.2258  14.3083  14.3570  14.3936  14.4121
    14.4755  14.5211  14.5383  14.6204  14.6243  14.7268  14.7442  14.7977
    14.8383  14.8632  14.9494  15.0072  15.0240  15.0854  15.1014  15.1596
    15.2401  15.2668  15.3254  15.3456  15.3560  15.4562  15.4908  15.5247
    15.5377  15.5724  15.6028  15.6105  15.6814  15.7370  15.7498  15.7625
    15.8673  15.8884  15.9866  16.0008  16.0890  16.1557  16.1738  16.2891
    16.3821  16.5486  16.8568  16.9094  16.9545  17.2009  17.7203  18.2259
    18.4875  18.8822  19.0504  19.1380  19.2160  19.3797  19.5067  19.8037
    20.1892  20.5885  20.9292  21.3058  21.4135  21.4724  21.5148  22.1450
    22.2814  23.1560  23.1790  23.3208  23.3666  23.4200  23.6469  23.6703
    24.0588  24.2388  24.7072  25.0090  25.2638  25.2888  25.5800  25.7482
    26.0009

          k = 0.1250-0.0589 0.0000 ( 17791 PWs)   bands (ev):

   -10.2213 -10.1606 -10.1223  -0.6996  -0.6309   0.9389   1.0156   2.9149
     3.0046   3.0682   4.0191   4.2205   4.7499   5.1471   5.2256   5.8762
     7.3654   7.8667   8.4021   8.4899   9.2745   9.2875   9.5797   9.7371
     9.7626   9.8097   9.8701   9.9750  10.2791  10.5730  10.6738  10.8277
    10.9634  10.9788  11.0090  11.1462  11.1604  11.2303  11.2663  11.2961
    11.3440  11.3650  11.3755  11.3901  11.4348  11.5091  11.5465  11.5682
    11.5900  11.6798  11.7086  11.7459  11.7823  11.7841  11.9461  12.0377
    12.1018  12.1199  12.1571  12.2583  12.2779  12.3541  12.3935  12.4275
    12.4539  12.6177  12.7321  12.8255  12.8426  12.8986  12.9309  12.9877
    13.0354  13.0721  13.1001  13.1477  13.1687  13.2267  13.2496  13.2977
    13.3028  13.3483  13.3673  13.4013  13.4940  13.4946  13.5639  13.6107
    13.6533  13.7286  13.7744  13.8052  13.8427  13.8783  14.0013  14.0707
    14.0845  14.1760  14.1834  14.3108  14.3472  14.3994  14.4271  14.4548
    14.4972  14.5271  14.5726  14.5826  14.6325  14.7152  14.7184  14.7275
    14.8180  14.9396  14.9502  14.9779  15.0200  15.0612  15.0886  15.1452
    15.2382  15.3366  15.3761  15.3797  15.4323  15.4530  15.4863  15.5235
    15.5941  15.5977  15.6755  15.6880  15.7265  15.7778  15.7916  15.8115
    15.8253  15.9043  15.9980  16.0394  16.2052  16.2259  16.2550  16.5160
    16.9213  16.9266  17.0027  17.0966  17.5135  17.6617  17.9163  18.2775
    18.3476  18.7034  18.7046  18.7965  18.9155  19.1107  19.1729  19.3074
    19.4196  19.7161  20.5285  21.0136  21.2340  21.3962  22.1414  22.2669
    22.3658  23.4784  23.4908  23.6756  23.7075  23.8097  23.8584  24.2984
    24.3098  24.4089  24.4433  24.6371  25.2111  25.4375  25.4544  25.8203
    25.8385

          k = 0.2500 0.0000 0.0000 ( 17793 PWs)   bands (ev):

   -10.3020 -10.2610 -10.2414   0.8429   1.0474   1.0475   1.0655   1.1431
     1.1432   4.4882   4.4883   4.5322   4.5323   4.9726   4.9728   5.1050
     7.3280   8.0305   8.4775   8.9837   9.3472   9.5783   9.5783   9.6871
     9.6872   9.7414   9.9474  10.1443  10.2041  10.4709  10.6080  10.7447
    10.9298  10.9367  10.9374  11.1576  11.1853  11.1912  11.3381  11.3540
    11.3596  11.3626  11.4007  11.4086  11.4892  11.5368  11.6093  11.6188
    11.6189  11.6741  11.6986  11.7479  11.8277  11.8673  12.0200  12.1015
    12.1818  12.2032  12.3145  12.3968  12.3988  12.5712  12.6534  12.7303
    12.7680  12.8192  12.8257  12.9008  12.9043  13.0113  13.0209  13.0989
    13.1320  13.1719  13.1819  13.2559  13.2571  13.3196  13.3340  13.3446
    13.4058  13.4419  13.4619  13.5096  13.5428  13.6064  13.6092  13.6846
    13.6941  13.7081  13.7787  13.7858  13.8318  13.8998  13.9385  13.9659
    13.9711  13.9734  14.0299  14.1451  14.2300  14.2601  14.3014  14.3447
    14.3555  14.4391  14.4883  14.5377  14.6179  14.6205  14.6341  14.7170
    14.7356  14.7932  14.8688  14.8694  14.9645  14.9652  15.0033  15.0429
    15.0961  15.2029  15.2407  15.2632  15.3351  15.3352  15.3907  15.4002
    15.4056  15.4306  15.5146  15.5253  15.6073  15.6962  15.7084  15.7826
    15.8266  15.8856  15.9017  15.9919  16.0640  16.1321  16.1553  16.1994
    16.8709  17.1638  17.3235  17.3503  17.3559  17.6372  17.6698  17.9029
    18.0500  18.0981  18.6870  18.8880  19.0118  19.1582  19.2520  19.3575
    19.4737  19.7257  20.3891  20.5004  20.8455  20.8801  21.6505  21.7402
    22.2320  22.2322  22.9216  22.9383  23.0644  23.0744  23.2347  23.2829
    23.4635  23.5233  23.5654  23.8109  24.5501  24.5623  24.9133  25.0436
    25.0850

          k = 0.2500 0.0589 0.0000 ( 17783 PWs)   bands (ev):

   -10.2228 -10.1621 -10.1172  -0.7134  -0.6310   0.8705   1.0935   2.8821
     3.0110   3.1778   3.9889   4.2789   5.1411   5.1602   5.3458   5.9718
     7.3701   8.0749   8.4737   9.0169   9.3326   9.3655   9.6886   9.7168
     9.7653   9.8211   9.9271  10.1613  10.2187  10.4938  10.6078  10.7384
    10.8900  10.9460  11.0117  11.1195  11.1438  11.1803  11.3281  11.3702
    11.3880  11.3892  11.4228  11.4344  11.5139  11.5146  11.5646  11.6319
    11.6372  11.6382  11.7029  11.7442  11.7597  11.9582  12.0242  12.0997
    12.1791  12.1823  12.3187  12.3493  12.3959  12.5276  12.5957  12.7044
    12.7613  12.7838  12.8222  12.8805  12.8941  12.9924  13.0570  13.0956
    13.1081  13.1696  13.1917  13.2661  13.2814  13.2892  13.3501  13.3859
    13.4012  13.4590  13.4831  13.5229  13.5557  13.5793  13.6145  13.6386
    13.6531  13.6845  13.7533  13.7651  13.7949  13.8525  13.9000  13.9384
    13.9418  13.9704  14.0087  14.1384  14.1426  14.2519  14.2757  14.3042
    14.3849  14.4271  14.4590  14.4700  14.4849  14.5930  14.6869  14.7236
    14.7686  14.7874  14.8808  14.9123  14.9577  14.9881  15.0413  15.0450
    15.1058  15.1273  15.1913  15.2353  15.2787  15.3467  15.3975  15.4096
    15.4566  15.4576  15.5326  15.6060  15.6613  15.6999  15.7388  15.7705
    15.8532  15.8585  15.9017  15.9669  16.0216  16.1176  16.1645  16.2038
    16.5623  16.8715  16.9382  17.1819  17.2580  17.4259  17.9838  18.0098
    18.0654  18.4006  18.6491  18.9544  19.0068  19.3032  19.4352  19.5696
    19.7438  20.0041  20.0519  20.2471  20.7808  21.3759  21.6502  21.6761
    21.7600  22.0300  22.3777  22.5790  22.6860  23.1781  23.5234  23.6021
    23.6976  23.9327  24.1903  24.1916  24.2256  24.2995  24.9788  25.0252
    25.1270

          k = 0.2500 0.1179 0.0000 ( 17763 PWs)   bands (ev):

    -9.9851  -9.9241  -9.6872  -2.3541  -2.2779   0.9533   1.1771   1.5694
     3.4746   3.7406   4.8090   4.9306   5.3263   5.7324   5.9836   7.0666
     7.4952   8.2064   8.4676   9.1003   9.1111   9.3912   9.7283   9.7799
     9.7901   9.9230  10.0159  10.1048  10.2800  10.5477  10.6492  10.7309
    10.7863  10.8316  10.9402  10.9970  11.1443  11.2241  11.2919  11.3399
    11.4386  11.4474  11.4668  11.4751  11.4948  11.5399  11.5617  11.5805
    11.6705  11.6971  11.7438  11.7904  11.8255  11.9642  12.0358  12.1186
    12.1655  12.1674  12.3093  12.3191  12.3802  12.4883  12.4964  12.6275
    12.6797  12.7908  12.8239  12.8356  12.8724  12.9417  13.0071  13.0298
    13.0520  13.1182  13.1421  13.2824  13.2980  13.3259  13.3532  13.3708
    13.4391  13.4715  13.4743  13.4971  13.5002  13.5431  13.5569  13.5847
    13.5985  13.6348  13.6657  13.7402  13.7568  13.7648  13.8257  13.8896
    13.9333  13.9504  14.0184  14.0343  14.1137  14.1877  14.1974  14.2700
    14.3413  14.3777  14.3951  14.3979  14.4333  14.5788  14.6118  14.6790
    14.7704  14.7868  14.8402  14.8477  14.9461  15.0061  15.0546  15.0701
    15.1204  15.1601  15.1826  15.2487  15.2754  15.3698  15.3812  15.4563
    15.4711  15.4957  15.5362  15.5654  15.6818  15.7155  15.7508  15.7651
    15.8563  15.9025  15.9555  15.9629  15.9775  16.0607  16.0629  16.0910
    16.3923  16.3950  16.5477  16.8467  17.3986  17.5006  17.5601  17.6019
    17.7728  18.9139  19.1221  19.1254  19.4057  19.4234  19.5972  19.6218
    19.8003  19.9786  20.0837  20.7655  20.9500  21.4313  21.5387  21.7239
    21.8035  21.8190  21.8864  22.1069  22.5174  22.7642  23.0048  23.7402
    23.8814  23.9528  24.0768  24.5089  24.7838  24.9689  25.1531  25.2017
    25.3085

          k = 0.2500 0.1768 0.0000 ( 17751 PWs)   bands (ev):

    -9.5884  -9.5269  -8.9766  -3.8552  -3.7834  -0.1479   1.0907   1.3160
     2.9971   3.2522   5.6056   6.2891   6.6105   6.6848   6.7948   7.6979
     8.0491   8.4186   8.4723   8.8935   9.2490   9.3034   9.8008   9.8049
     9.8491   9.8523  10.0325  10.0489  10.1277  10.3747  10.3860  10.5680
    10.7362  10.7701  10.9000  11.0759  11.1604  11.1876  11.3278  11.3721
    11.4916  11.5016  11.5543  11.5563  11.6082  11.6390  11.6426  11.6537
    11.7274  11.8268  11.8437  11.8545  11.9095  11.9707  12.0307  12.1304
    12.1874  12.2150  12.2735  12.3099  12.3619  12.4368  12.4688  12.5708
    12.6088  12.7588  12.7862  12.8382  12.8404  12.8637  12.8711  12.9127
    13.0082  13.0764  13.0801  13.1568  13.2395  13.2735  13.3314  13.3371
    13.4090  13.4225  13.4370  13.4503  13.4878  13.4953  13.5273  13.5666
    13.5740  13.6294  13.6934  13.7035  13.7238  13.7653  13.7936  13.8412
    13.8447  13.8472  13.9424  14.0138  14.0510  14.1027  14.1710  14.1888
    14.2346  14.2617  14.3625  14.3778  14.4052  14.5073  14.5532  14.6024
    14.7365  14.7390  14.8328  14.8505  14.9224  14.9617  15.0243  15.0718
    15.0937  15.1036  15.1513  15.2915  15.3637  15.3776  15.3810  15.3918
    15.4640  15.4937  15.5697  15.6034  15.6120  15.6717  15.7174  15.7224
    15.7545  15.7816  15.8636  15.8773  15.8796  16.0090  16.0889  16.1186
    16.1565  16.3232  16.6367  16.7447  16.9225  17.0552  17.4699  17.8355
    17.9763  18.5950  18.6739  19.0491  19.3190  19.5648  19.8131  19.8949
    20.3054  20.3585  20.4981  20.8287  21.1187  21.2891  21.4859  21.5660
    21.6671  21.8208  22.0376  22.0387  22.0984  22.3176  22.6682  23.5162
    23.9355  24.0656  24.1096  24.6400  25.1039  25.2997  25.4533  25.8723
    25.9841

          k = 0.2500 0.2357 0.0000 ( 17768 PWs)   bands (ev):

    -9.0322  -8.9699  -7.9958  -5.2066  -5.1379  -1.9256   1.2821   1.5096
     2.5600   2.8064   6.0017   6.9087   7.2391   7.9637   8.1299   8.3566
     8.5084   8.6999   8.7174   8.9088   9.0134   9.1716   9.4119   9.4694
     9.8668   9.8914   9.9004   9.9238  10.1200  10.1972  10.4648  10.5172
    10.7305  10.8629  10.8735  11.1005  11.1167  11.2164  11.3838  11.4404
    11.5587  11.5930  11.6433  11.6461  11.6761  11.7394  11.7721  11.8327
    11.9040  11.9420  11.9865  12.0286  12.0435  12.0852  12.1011  12.1104
    12.2425  12.2560  12.3022  12.3341  12.4107  12.4553  12.5018  12.5071
    12.5688  12.6311  12.7305  12.7649  12.7892  12.8124  12.8157  12.8829
    12.9492  12.9888  13.0143  13.1194  13.1616  13.1723  13.2071  13.2223
    13.3542  13.3633  13.3758  13.4077  13.4270  13.4965  13.4967  13.5251
    13.5704  13.6059  13.6060  13.6490  13.6979  13.7276  13.7530  13.8332
    13.8423  13.8751  13.8844  13.9340  13.9736  14.0138  14.0247  14.1904
    14.2261  14.2455  14.3777  14.4035  14.4493  14.4723  14.5246  14.5524
    14.6044  14.7266  14.7401  14.8128  14.8175  14.8452  14.9224  15.0081
    15.0264  15.0867  15.1510  15.1980  15.2044  15.2678  15.3309  15.3849
    15.4522  15.5112  15.5291  15.5821  15.6041  15.6109  15.6746  15.6940
    15.7426  15.7615  15.8345  15.8474  15.8824  15.9749  15.9885  16.0800
    16.2325  16.4379  16.5368  16.6168  16.7078  16.9363  17.3160  18.1488
    18.1889  18.3142  18.3418  18.4865  19.2142  19.5525  19.7609  19.9772
    20.0079  20.2054  20.4831  20.5907  20.7818  21.0695  21.4803  21.5117
    22.0259  22.0387  22.1648  22.2528  22.4087  22.6240  22.7784  23.5218
    24.0965  24.2243  24.4537  25.0833  25.3510  25.4521  25.5768  25.5774
    25.7477

          k = 0.2500 0.2946 0.0000 ( 17790 PWs)   bands (ev):

    -8.3159  -8.2526  -6.7629  -6.4023  -6.3359  -3.6731   1.5263   1.7568
     2.1674   2.4070   6.5185   7.4564   7.8541   7.9935   8.2422   8.5693
     8.5954   8.6289   8.9860   9.0354   9.2628   9.3757   9.4712   9.5506
     9.6325   9.7110   9.9791  10.0601  10.1873  10.2956  10.4112  10.4919
    10.5793  10.7845  10.9175  11.0476  11.1848  11.3208  11.3621  11.4245
    11.6473  11.6651  11.7053  11.7372  11.7838  11.8190  11.8720  11.9386
    11.9736  11.9883  12.0268  12.0816  12.1352  12.2124  12.2316  12.3218
    12.3357  12.3518  12.3888  12.4463  12.4781  12.4871  12.5084  12.5349
    12.5501  12.6965  12.7203  12.7271  12.7571  12.8200  12.8546  12.8926
    12.9446  12.9481  12.9969  13.0233  13.0773  13.1201  13.1482  13.2126
    13.2647  13.2819  13.2958  13.3699  13.3897  13.4499  13.4784  13.4934
    13.5148  13.5677  13.5692  13.6530  13.6564  13.6917  13.7062  13.7220
    13.8300  13.8891  13.9171  13.9508  14.0420  14.0490  14.1683  14.2146
    14.2723  14.3310  14.4053  14.4289  14.4354  14.4623  14.5192  14.5318
    14.5832  14.6088  14.6148  14.7432  14.7533  14.7848  14.8126  14.8621
    14.8699  14.9242  14.9723  15.1013  15.1308  15.2517  15.2524  15.3061
    15.3537  15.4186  15.6052  15.6429  15.6615  15.6664  15.7166  15.7494
    15.7797  15.8120  15.8492  15.8725  15.9498  15.9583  15.9973  16.0574
    16.1343  16.3180  16.3661  16.4194  16.4880  16.9028  17.2821  17.8926
    18.0263  18.0672  18.0731  18.4382  18.7867  18.9514  19.5753  19.7388
    19.8759  19.9679  20.2900  20.4339  20.6859  21.1815  21.5612  21.9042
    22.1545  22.3316  22.3328  22.5622  22.6934  22.7988  23.4723  24.1398
    24.2306  24.5384  24.8411  24.8695  25.1532  25.4193  25.4462  25.6026
    25.9265

          k = 0.2500-0.3536 0.0000 ( 17788 PWs)   bands (ev):

    -7.4392  -7.4392  -7.3746  -7.3746  -5.3070  -5.3070   1.8220   1.8220
     2.0565   2.0565   7.1492   7.1492   8.1086   8.1086   8.4313   8.4313
     8.4442   8.4442   8.9312   8.9312   9.3817   9.3817   9.5716   9.5716
     9.8913   9.8913  10.1554  10.1554  10.2366  10.2366  10.3021  10.3021
    10.6357  10.6357  10.9852  10.9852  11.2784  11.2784  11.3948  11.3948
    11.7053  11.7053  11.7449  11.7449  11.8696  11.8696  11.9181  11.9181
    11.9629  11.9629  12.1317  12.1317  12.1614  12.1614  12.2849  12.2849
    12.4004  12.4004  12.4450  12.4450  12.5110  12.5110  12.5454  12.5454
    12.5884  12.5884  12.7011  12.7011  12.7992  12.7992  12.8707  12.8707
    12.9202  12.9202  12.9970  12.9970  13.0712  13.0712  13.1786  13.1786
    13.2400  13.2400  13.3441  13.3441  13.4397  13.4397  13.5175  13.5175
    13.5457  13.5457  13.6236  13.6236  13.6490  13.6490  13.8141  13.8141
    13.8238  13.8238  13.9446  13.9446  14.2039  14.2039  14.2531  14.2531
    14.3512  14.3512  14.4100  14.4100  14.4984  14.4984  14.5444  14.5444
    14.5922  14.5922  14.6763  14.6763  14.7023  14.7023  14.7675  14.7675
    14.8632  14.8632  15.0390  15.0390  15.1716  15.1716  15.3499  15.3499
    15.4094  15.4094  15.4601  15.4601  15.6866  15.6866  15.7008  15.7008
    15.8079  15.8079  15.8446  15.8446  15.9455  15.9455  16.0287  16.0287
    16.0853  16.0853  16.2793  16.2793  16.4404  16.4404  17.6265  17.6265
    17.8384  17.8384  17.9704  17.9704  19.1596  19.1596  19.2852  19.2852
    20.0516  20.0516  20.1634  20.1634  21.1223  21.1223  21.5305  21.5305
    22.3183  22.3183  22.5217  22.5217  23.5390  23.5390  23.5746  23.5746
    24.3716  24.3716  25.1600  25.1600  25.3411  25.3411  25.4280  25.4280
    25.6722

          k = 0.2500-0.2946 0.0000 ( 17790 PWs)   bands (ev):

    -8.3159  -8.2526  -6.7629  -6.4023  -6.3359  -3.6731   1.5263   1.7568
     2.1674   2.4070   6.5185   7.4564   7.8541   7.9935   8.2422   8.5693
     8.5954   8.6289   8.9860   9.0354   9.2628   9.3757   9.4712   9.5506
     9.6325   9.7110   9.9791  10.0601  10.1873  10.2956  10.4112  10.4919
    10.5793  10.7845  10.9175  11.0476  11.1848  11.3208  11.3621  11.4245
    11.6473  11.6651  11.7053  11.7372  11.7838  11.8190  11.8720  11.9386
    11.9736  11.9883  12.0268  12.0816  12.1352  12.2124  12.2316  12.3218
    12.3357  12.3518  12.3888  12.4463  12.4781  12.4871  12.5084  12.5349
    12.5501  12.6965  12.7203  12.7271  12.7571  12.8200  12.8546  12.8926
    12.9446  12.9481  12.9969  13.0233  13.0773  13.1201  13.1482  13.2126
    13.2647  13.2819  13.2958  13.3699  13.3897  13.4499  13.4784  13.4934
    13.5148  13.5677  13.5692  13.6530  13.6564  13.6917  13.7062  13.7220
    13.8300  13.8891  13.9171  13.9508  14.0420  14.0490  14.1683  14.2146
    14.2723  14.3310  14.4053  14.4289  14.4354  14.4623  14.5192  14.5318
    14.5832  14.6088  14.6148  14.7432  14.7533  14.7848  14.8126  14.8621
    14.8699  14.9242  14.9723  15.1013  15.1308  15.2517  15.2524  15.3061
    15.3537  15.4186  15.6052  15.6429  15.6615  15.6664  15.7166  15.7494
    15.7797  15.8120  15.8492  15.8725  15.9498  15.9583  15.9973  16.0574
    16.1343  16.3180  16.3661  16.4194  16.4880  16.9028  17.2821  17.8926
    18.0263  18.0672  18.0731  18.4382  18.7867  18.9514  19.5753  19.7388
    19.8759  19.9679  20.2900  20.4339  20.6859  21.1815  21.5612  21.9042
    22.1545  22.3316  22.3328  22.5622  22.6934  22.7988  23.4723  24.1398
    24.2306  24.5384  24.8411  24.8695  25.1532  25.4193  25.4462  25.6026
    25.9234

          k = 0.2500-0.2357 0.0000 ( 17768 PWs)   bands (ev):

    -9.0322  -8.9699  -7.9958  -5.2066  -5.1379  -1.9256   1.2821   1.5096
     2.5600   2.8064   6.0017   6.9087   7.2391   7.9637   8.1299   8.3566
     8.5084   8.6999   8.7174   8.9088   9.0134   9.1716   9.4119   9.4694
     9.8668   9.8914   9.9004   9.9238  10.1200  10.1972  10.4648  10.5172
    10.7305  10.8629  10.8735  11.1005  11.1167  11.2164  11.3838  11.4404
    11.5587  11.5930  11.6433  11.6461  11.6761  11.7394  11.7721  11.8327
    11.9040  11.9420  11.9865  12.0286  12.0435  12.0852  12.1011  12.1104
    12.2425  12.2560  12.3022  12.3341  12.4107  12.4553  12.5018  12.5071
    12.5688  12.6311  12.7305  12.7649  12.7892  12.8124  12.8157  12.8829
    12.9492  12.9888  13.0143  13.1194  13.1616  13.1723  13.2071  13.2223
    13.3542  13.3633  13.3758  13.4077  13.4270  13.4965  13.4967  13.5251
    13.5704  13.6059  13.6060  13.6490  13.6979  13.7276  13.7530  13.8332
    13.8423  13.8751  13.8844  13.9340  13.9736  14.0138  14.0247  14.1904
    14.2261  14.2455  14.3777  14.4035  14.4493  14.4723  14.5246  14.5524
    14.6044  14.7266  14.7401  14.8128  14.8175  14.8452  14.9224  15.0081
    15.0264  15.0867  15.1510  15.1980  15.2044  15.2678  15.3309  15.3849
    15.4522  15.5112  15.5291  15.5821  15.6041  15.6109  15.6746  15.6940
    15.7426  15.7615  15.8345  15.8474  15.8824  15.9749  15.9885  16.0800
    16.2325  16.4379  16.5368  16.6168  16.7078  16.9363  17.3160  18.1488
    18.1889  18.3142  18.3418  18.4865  19.2142  19.5525  19.7609  19.9772
[...]
    12.6077  12.6078  12.6450  12.6454  12.8405  12.8414  12.9660  12.9663
    13.0358  13.0361  13.0640  13.0640  13.1635  13.1635  13.1796  13.1806
    13.3135  13.3140  13.3461  13.3463  13.3899  13.3900  13.4488  13.4497
    13.5330  13.5331  13.9229  13.9229  14.0421  14.0423  14.1019  14.1019
    14.1635  14.1636  14.5524  14.5529  14.6372  14.6376  14.8043  14.8050
    14.9052  14.9057  14.9442  14.9450  14.9981  14.9983  15.0263  15.0271
    15.0565  15.0567  15.1073  15.1074  15.1220  15.1223  15.1243  15.1243
    15.2548  15.2553  15.2849  15.2854  15.2894  15.2895  15.3716  15.3718
    15.4284  15.4294  15.4307  15.4309  15.6503  15.6507  15.8337  15.8345
    15.8749  15.8753  16.0106  16.0118  16.0429  16.0438  16.8404  16.8407
    16.9178  16.9179  17.0199  17.0200  17.7913  17.7918  18.5668  18.5669
    19.1224  19.1232  19.4297  19.4300  20.5038  20.5046  20.6620  20.6622
    20.8534  20.8538  20.8560  20.8565  21.3310  21.3310  21.3756  21.3761
    21.9891  21.9899  22.8281  22.8290  23.6343  23.6351  24.0318  24.0328
    24.2510

          k =-0.5000 0.0589 0.0000 ( 17814 PWs)   bands (ev):

     8.8447   8.8451   9.3841   9.3851   9.4923   9.4928   9.5335   9.5337
     9.5791   9.5800   9.6998   9.7004   9.7682   9.7689   9.9436   9.9442
     9.9647   9.9654   9.9772   9.9776  10.0938  10.0947  10.4129  10.4133
    10.5037  10.5039  10.7149  10.7152  10.7874  10.7877  10.9188  10.9189
    10.9534  10.9545  11.0353  11.0355  11.2245  11.2259  11.2721  11.2731
    11.4617  11.4620  11.5229  11.5237  11.5479  11.5479  11.8108  11.8113
    11.9143  11.9143  11.9777  11.9779  12.1446  12.1450  12.2307  12.2309
    12.2419  12.2423  12.2668  12.2674  12.3333  12.3353  12.3557  12.3560
    12.3782  12.3787  12.4387  12.4390  12.5289  12.5291  12.5562  12.5568
    12.5598  12.5600  12.7029  12.7030  12.7823  12.7828  12.9115  12.9116
    12.9713  12.9716  13.1194  13.1197  13.1856  13.1858  13.2570  13.2573
    13.2714  13.2719  13.2871  13.2871  13.3865  13.3866  13.5630  13.5631
    13.6298  13.6303  13.9018  13.9018  14.0072  14.0073  14.1011  14.1012
    14.1923  14.1925  14.5310  14.5315  14.6176  14.6181  14.6278  14.6285
    14.7480  14.7482  14.8243  14.8245  14.9019  14.9022  14.9548  14.9549
    15.0066  15.0069  15.0963  15.0966  15.1375  15.1377  15.1677  15.1678
    15.1867  15.1870  15.2655  15.2655  15.3086  15.3089  15.3742  15.3745
    15.3909  15.3911  15.5733  15.5739  15.6273  15.6278  15.8102  15.8110
    15.9409  15.9410  16.0054  16.0060  16.0925  16.0933  16.8012  16.8013
    16.9574  16.9577  16.9926  16.9926  17.8708  17.8711  18.3138  18.3140
    19.0264  19.0268  19.5265  19.5268  20.0177  20.0180  20.8460  20.8462
    21.0514  21.0517  21.0629  21.0629  21.5083  21.5085  21.8232  21.8240
    21.9993  21.9997  22.8085  22.8092  23.6483  23.6491  24.1241  24.1241
    24.6712

          k =-0.5000 0.1179 0.0000 ( 17794 PWs)   bands (ev):

     8.9353   8.9358   9.4083   9.4093   9.5515   9.5519   9.5688   9.5689
     9.6670   9.6679   9.7793   9.7798   9.8648   9.8656   9.9948   9.9954
    10.0433  10.0438  10.1068  10.1071  10.1474  10.1482  10.4247  10.4248
    10.5774  10.5775  10.7571  10.7571  10.8374  10.8375  10.9666  10.9668
    10.9934  10.9946  11.0598  11.0600  11.2483  11.2497  11.3157  11.3166
    11.3951  11.3952  11.5014  11.5019  11.6063  11.6065  11.7703  11.7710
    11.9167  11.9170  11.9742  11.9744  12.0888  12.0894  12.1212  12.1218
    12.1480  12.1483  12.1821  12.1823  12.1894  12.1895  12.3132  12.3133
    12.3295  12.3296  12.3538  12.3554  12.4109  12.4109  12.5546  12.5552
    12.6054  12.6059  12.6739  12.6740  12.7237  12.7243  12.8355  12.8359
    12.9429  12.9430  13.0340  13.0347  13.2115  13.2122  13.2218  13.2220
    13.3731  13.3733  13.4270  13.4272  13.4360  13.4363  13.5754  13.5757
    13.7336  13.7337  13.8011  13.8013  13.9689  13.9692  14.1056  14.1058
    14.2491  14.2493  14.3097  14.3107  14.4468  14.4470  14.4867  14.4874
    14.5951  14.5953  14.6402  14.6403  14.6916  14.6918  14.7762  14.7763
    14.8441  14.8441  14.9747  14.9749  14.9964  14.9970  15.0427  15.0431
    15.1436  15.1441  15.2054  15.2059  15.3237  15.3239  15.3356  15.3356
    15.5687  15.5688  15.5785  15.5790  15.7394  15.7394  15.7424  15.7432
    16.0197  16.0202  16.1134  16.1136  16.2317  16.2325  16.6057  16.6059
    16.8563  16.8563  17.2758  17.2761  17.8849  17.8853  18.0845  18.0846
    18.6609  18.6610  19.4103  19.4104  19.8045  19.8046  20.8948  20.8949
    21.2765  21.2768  21.6343  21.6348  21.9586  21.9590  22.0636  22.0638
    22.8094  22.8094  23.0130  23.0130  23.6904  23.6912  24.7168  24.7169
    25.0450

          k =-0.5000 0.1768 0.0000 ( 17756 PWs)   bands (ev):

     9.0697   9.0703   9.4416   9.4427   9.6202   9.6204   9.6297   9.6301
     9.8054   9.8064   9.8960   9.8964  10.0102  10.0110  10.0425  10.0431
    10.1944  10.1949  10.2280  10.2285  10.3165  10.3166  10.4669  10.4670
    10.6526  10.6529  10.8371  10.8373  10.9171  10.9171  10.9577  10.9588
    11.0575  11.0577  11.1612  11.1614  11.2724  11.2734  11.2939  11.2941
    11.3955  11.3969  11.4820  11.4823  11.6621  11.6622  11.7693  11.7702
    11.8572  11.8578  11.9211  11.9217  11.9394  11.9395  12.0047  12.0047
    12.0355  12.0356  12.0375  12.0378  12.1189  12.1193  12.1971  12.1973
    12.2563  12.2564  12.3346  12.3360  12.3663  12.3675  12.4090  12.4091
    12.5414  12.5416  12.6372  12.6377  12.7576  12.7580  12.8057  12.8058
    12.9673  12.9678  13.0668  13.0674  13.1415  13.1419  13.1466  13.1472
    13.4461  13.4466  13.4541  13.4543  13.4716  13.4721  13.5769  13.5771
    13.5811  13.5812  13.6356  13.6359  14.0289  14.0289  14.0444  14.0446
    14.0610  14.0619  14.2033  14.2034  14.2154  14.2159  14.3231  14.3232
    14.4655  14.4659  14.4783  14.4785  14.5867  14.5868  14.6565  14.6568
    14.7110  14.7110  14.7716  14.7716  14.8745  14.8751  14.9526  14.9530
    14.9672  14.9680  15.0047  15.0052  15.3024  15.3026  15.4409  15.4411
    15.5371  15.5375  15.6648  15.6655  15.7847  15.7848  15.8301  15.8306
    16.0439  16.0441  16.3093  16.3095  16.4178  16.4181  16.5137  16.5139
    16.6641  16.6642  17.4939  17.4943  17.7215  17.7218  18.2258  18.2258
    18.3839  18.3840  18.8620  18.8621  20.2326  20.2326  20.4740  20.4741
    21.1746  21.1748  22.2565  22.2566  22.7042  22.7045  22.9755  22.9757
    23.4677  23.4679  23.6918  23.6919  23.7604  23.7611  25.0002  25.0007
    25.2805

          k =-0.5000 0.2357 0.0000 ( 17778 PWs)   bands (ev):

     9.2220   9.2228   9.4719   9.4730   9.6768   9.6770   9.7013   9.7017
     9.9821   9.9832  10.0251  10.0255  10.1007  10.1012  10.1787  10.1796
    10.3191  10.3194  10.3714  10.3717  10.5282  10.5284  10.5878  10.5878
    10.7047  10.7049  10.8576  10.8588  10.9690  10.9690  11.0114  11.0114
    11.1864  11.1867  11.2102  11.2105  11.2483  11.2493  11.2972  11.2973
    11.4661  11.4675  11.5080  11.5089  11.6184  11.6184  11.7161  11.7167
    11.8009  11.8011  11.8528  11.8532  11.8732  11.8745  11.9196  11.9201
    11.9385  11.9386  11.9635  11.9635  12.0454  12.0456  12.0559  12.0563
    12.1086  12.1089  12.2593  12.2599  12.2735  12.2742  12.4319  12.4323
    12.5130  12.5144  12.5506  12.5508  12.6476  12.6479  12.9143  12.9146
    12.9443  12.9443  12.9893  12.9895  13.0510  13.0510  13.1441  13.1442
    13.2550  13.2558  13.2804  13.2805  13.3296  13.3297  13.5218  13.5221
    13.6046  13.6047  13.7166  13.7169  13.7730  13.7730  13.9796  13.9796
    14.0068  14.0076  14.0791  14.0792  14.1058  14.1060  14.1770  14.1771
    14.2818  14.2825  14.3181  14.3188  14.5429  14.5431  14.5848  14.5849
    14.5874  14.5874  14.6972  14.6975  14.7477  14.7481  14.7926  14.7928
    14.9437  14.9438  14.9479  14.9482  15.2621  15.2624  15.5129  15.5133
    15.5428  15.5431  15.6215  15.6223  15.8739  15.8747  15.9541  15.9544
    16.1242  16.1243  16.2516  16.2519  16.4583  16.4583  16.5539  16.5543
    16.8519  16.8519  17.1616  17.1619  17.8268  17.8268  18.2311  18.2314
    18.3854  18.3855  18.7309  18.7311  20.0601  20.0603  20.6444  20.6446
    20.7724  20.7726  23.1985  23.1989  23.2599  23.2600  23.8042  23.8044
    23.8581  23.8588  24.0214  24.0217  24.3040  24.3041  25.3709  25.3713
    25.8372

          k =-0.5000 0.2946 0.0000 ( 17762 PWs)   bands (ev):

     9.3580   9.3589   9.4811   9.4822   9.7247   9.7249   9.7443   9.7447
    10.1288  10.1293  10.1533  10.1538  10.1784  10.1794  10.3364  10.3374
    10.3848  10.3849  10.5329  10.5329  10.5545  10.5554  10.6975  10.6976
    10.7922  10.7926  10.8532  10.8534  11.0481  11.0482  11.1148  11.1151
    11.1852  11.1857  11.2541  11.2544  11.3285  11.3294  11.3426  11.3428
    11.4618  11.4628  11.5415  11.5421  11.6113  11.6116  11.6658  11.6660
    11.7221  11.7224  11.7787  11.7791  11.7797  11.7800  11.8400  11.8402
    11.8766  11.8769  11.9636  11.9639  12.0025  12.0025  12.0464  12.0467
    12.0781  12.0784  12.2008  12.2015  12.2083  12.2089  12.3176  12.3179
    12.4237  12.4243  12.5065  12.5067  12.6453  12.6458  12.6580  12.6584
    12.7376  12.7382  12.8725  12.8731  12.9678  12.9681  13.0634  13.0636
    13.2864  13.2866  13.3085  13.3085  13.4318  13.4318  13.4861  13.4867
    13.5982  13.5983  13.6296  13.6297  13.7793  13.7795  13.8070  13.8073
    13.8405  13.8406  14.0110  14.0111  14.0334  14.0336  14.0917  14.0923
    14.1512  14.1517  14.2246  14.2252  14.3774  14.3775  14.4031  14.4033
    14.6100  14.6101  14.6417  14.6418  14.7471  14.7475  14.8257  14.8264
    14.9237  14.9238  14.9320  14.9321  15.2977  15.2981  15.4767  15.4771
    15.6227  15.6229  15.6231  15.6237  15.9288  15.9296  16.0011  16.0015
    16.1172  16.1173  16.2534  16.2535  16.3401  16.3402  16.8383  16.8386
    16.8681  16.8684  17.2065  17.2067  17.4711  17.4712  17.9629  17.9631
    18.7580  18.7583  19.1132  19.1133  19.6638  19.6642  20.0843  20.0845
    21.3874  21.3877  22.6898  22.6902  23.9820  23.9826  24.2363  24.2366
    24.3711  24.3712  24.9221  24.9222  25.1813  25.1815  26.2026  26.2028
    26.7435

          k =-0.5000-0.3536 0.0000 ( 17712 PWs)   bands (ev):

     9.4475   9.4475   9.4486   9.4486   9.7506   9.7506   9.7509   9.7509
    10.1723  10.1723  10.1728  10.1728  10.3485  10.3485  10.3493  10.3493
    10.4584  10.4584  10.4597  10.4597  10.6387  10.6387  10.6393  10.6393
    10.8553  10.8553  10.8557  10.8557  11.1664  11.1664  11.1667  11.1667
    11.2249  11.2249  11.2258  11.2258  11.3787  11.3787  11.3794  11.3794
    11.4528  11.4528  11.4531  11.4531  11.6626  11.6626  11.6627  11.6627
    11.6951  11.6951  11.6953  11.6953  11.7720  11.7720  11.7721  11.7721
    11.9136  11.9136  11.9139  11.9139  12.0404  12.0404  12.0404  12.0404
    12.1514  12.1514  12.1517  12.1517  12.2755  12.2755  12.2755  12.2755
    12.3143  12.3143  12.3146  12.3146  12.5505  12.5505  12.5507  12.5507
    12.8192  12.8192  12.8198  12.8198  12.9217  12.9217  12.9223  12.9223
    13.4067  13.4067  13.4071  13.4071  13.5511  13.5511  13.5512  13.5512
    13.5819  13.5819  13.5823  13.5823  13.6208  13.6208  13.6211  13.6211
    13.9025  13.9025  13.9027  13.9027  14.0020  14.0020  14.0020  14.0020
    14.2217  14.2217  14.2221  14.2221  14.2841  14.2841  14.2844  14.2844
    14.6357  14.6357  14.6360  14.6360  14.7869  14.7869  14.7876  14.7876
    14.9256  14.9256  14.9256  14.9256  15.3970  15.3970  15.3974  15.3974
    15.6401  15.6401  15.6408  15.6408  16.0290  16.0290  16.0293  16.0293
    16.0710  16.0710  16.0710  16.0710  16.5962  16.5962  16.5963  16.5963
    17.1448  17.1448  17.1450  17.1450  17.5746  17.5746  17.5748  17.5748
    19.2456  19.2456  19.2460  19.2460  19.5577  19.5577  19.5578  19.5578
    22.0418  22.0418  22.0422  22.0422  24.1241  24.1241  24.1246  24.1246
    25.5380  25.5380  25.5380  25.5380  26.0443  26.0443  26.0445  26.0445
    26.3431

     the Fermi energy is    18.2800 ev

!    total energy              =  -21704.12667658 Ry

     total all-electron energy =  -1064671.817226 Ry
     estimated scf accuracy    <          4.6E-09 Ry
     smearing contrib. (-TS)   =      -3.22861238 Ry
     internal energy E=F+TS    =  -21700.89806420 Ry

     The total energy is F=E-TS. E is the sum of the following terms:
     one-electron contribution =     406.34834176 Ry
     hartree contribution      =     220.38471973 Ry
     xc contribution           =    -901.72259296 Ry
     ewald contribution        =   -2034.34480975 Ry
     one-center paw contrib.   =  -19391.56372298 Ry

     convergence has been achieved in   9 iterations

     Forces acting on atoms (cartesian axes, Ry/au):

     atom    1 type  1   force =    -0.00000004   -0.00000007   -0.00048131
     atom    2 type  1   force =     0.00000001   -0.00000005   -0.00048120
     atom    3 type  1   force =    -0.00000001    0.00000009    0.00040008
     atom    4 type  1   force =     0.00000002   -0.00000010    0.00039999
     atom    5 type  1   force =    -0.00000004   -0.00000003    0.00076787
     atom    6 type  1   force =     0.00000002   -0.00000000    0.00076776
     atom    7 type  1   force =     0.00000001   -0.00000001   -0.00093405
     atom    8 type  1   force =     0.00000000    0.00000003   -0.00093380
     atom    9 type  1   force =     0.00000004    0.00000004    0.00080414
     atom   10 type  1   force =     0.00000002   -0.00000003    0.00080428
     atom   11 type  1   force =     0.00000002    0.00000012   -0.00032274
     atom   12 type  1   force =    -0.00000008   -0.00000010   -0.00032271
     atom   13 type  1   force =     0.00000000    0.00000000   -0.00017502
     atom   14 type  1   force =     0.00000001   -0.00000001   -0.00017494
     atom   15 type  1   force =    -0.00000005    0.00000017   -0.00049246
     atom   16 type  1   force =     0.00000000   -0.00000016   -0.00049267
     atom   17 type  1   force =     0.00000000    0.00000005   -0.00032020
     atom   18 type  1   force =    -0.00000001   -0.00000009   -0.00032030
     atom   19 type  1   force =     0.00000001    0.00000000    0.00013730
     atom   20 type  1   force =    -0.00000002    0.00000004    0.00013737
     atom   21 type  1   force =     0.00000000    0.00000004   -0.00033675
     atom   22 type  1   force =     0.00000001   -0.00000003   -0.00033689
     atom   23 type  1   force =    -0.00000001   -0.00000002   -0.00010178
     atom   24 type  1   force =     0.00000005    0.00000008   -0.00010199
     atom   25 type  1   force =    -0.00000001    0.00000002    0.00014096
     atom   26 type  1   force =     0.00000011   -0.00000002    0.00014088
     atom   27 type  1   force =     0.00000001    0.00000007    0.00091395
     atom   28 type  1   force =    -0.00000008   -0.00000000    0.00091424

     Total force =     0.002821     Total SCF correction =     0.000220
     Energy error            =      1.0E-05 Ry
     Gradient error          =      9.3E-04 Ry/Bohr

     bfgs converged in  22 scf cycles and  21 bfgs steps
     (criteria: energy <  1.0E-04 Ry, force <  1.0E-03 Ry/Bohr)

     End of BFGS Geometry Optimization

     Final energy             =  -21704.1266765838 Ry

     File ./pwscf.bfgs deleted, as requested
Begin final coordinates

ATOMIC_POSITIONS (angstrom)
Au            2.0400000000        1.4424978336        1.0142401659    0   0   1
Au            2.0400000000        4.3274935009        1.0142401286    0   0   1
Au            0.0000000000        0.0000000000        1.9132200492    0   0   1
Au            0.0000000000        2.8849956672        1.9132198608    0   0   1
Au            2.0400000000        1.4424978336        3.5262468023    0   0   1
Au            2.0400000000        4.3274935009        3.5262469792    0   0   1
Au            0.0000000000        0.0000000000        4.6030782487    0   0   1
Au            0.0000000000        2.8849956672        4.6030777185    0   0   1
Au            2.0400000000        1.4424978336        6.1123222598    0   0   1
Au            2.0400000000        4.3274935009        6.1123225471    0   0   1
Au            0.0000000000        0.0000000000        7.1891987845    0   0   1
Au            0.0000000000        2.8849956672        7.1891985222    0   0   1
Au            2.0400000000        1.4424978336        8.8017392250    0   0   1
Au            2.0400000000        4.3274935009        8.8017389389    0   0   1
Au            0.0000000000        0.0000000000        9.7022534534    0   0   1
Au            0.0000000000        2.8849956672        9.7022534025    0   0   1
Au            4.0800000000        1.4424978336       11.7659156568    0   0   1
Au            4.0800000000        4.3274935009       11.7659154440    0   0   1
Au            2.0400000000        0.0000000000       12.5306631575    0   0   1
Au            2.0400000000        2.8849956672       12.5306632215    0   0   1
Au            4.0800000000        1.4424978336       14.2890043313    0   0   1
Au            4.0800000000        4.3274935009       14.2890042879    0   0   1
Au            2.0400000000        0.0000000000       15.1797753825    0   0   1
Au            2.0400000000        2.8849956672       15.1797755581    0   0   1
Au            4.0800000000        1.4424978336       16.9372009296    0   0   1
Au            4.0800000000        4.3274935009       16.9372007713    0   0   1
Au            2.0400000000        0.0000000000       17.7024449320    0   0   1
Au            2.0400000000        2.8849956672       17.7024449594    0   0   1
End final coordinates



     Writing all to output data dir ./pwscf.save/
 
     init_run     :     20.99s CPU     22.45s WALL (       1 calls)
     electrons    :  26283.48s CPU  26842.00s WALL (      22 calls)
     update_pot   :      9.20s CPU      9.41s WALL (      21 calls)
     forces       :    170.34s CPU    172.21s WALL (      22 calls)

     Called by init_run:
     wfcinit      :     20.40s CPU     21.01s WALL (       1 calls)
     potinit      :      0.36s CPU      0.67s WALL (       1 calls)
     hinit0       :      0.13s CPU      0.48s WALL (       1 calls)

     Called by electrons:
     c_bands      :  24174.12s CPU  24674.45s WALL (     401 calls)
     sum_band     :   1970.37s CPU   1997.90s WALL (     401 calls)
     v_of_rho     :     18.39s CPU     34.86s WALL (     417 calls)
     newd         :     24.83s CPU     34.75s WALL (     417 calls)
     PAW_pot      :    102.80s CPU    103.65s WALL (     438 calls)
     mix_rho      :      2.10s CPU      2.32s WALL (     401 calls)

     Called by c_bands:
     init_us_2    :     58.20s CPU     59.50s WALL (   42300 calls)
     init_us_2:cp :     58.08s CPU     59.43s WALL (   42300 calls)
     cegterg      :  23439.69s CPU  23926.82s WALL (   20305 calls)

     Called by *egterg:
     cdiaghg      :   3228.19s CPU   3360.28s WALL (   99672 calls)
     h_psi        :  12416.69s CPU  12615.74s WALL (  101327 calls)
     s_psi        :   1639.74s CPU   1652.17s WALL (  101327 calls)
     g_psi        :     33.38s CPU     33.78s WALL (   80972 calls)

     Called by h_psi:
     h_psi:calbec :   1962.11s CPU   1976.34s WALL (  101327 calls)
     vloc_psi     :   8782.76s CPU   8916.31s WALL (  101327 calls)
     add_vuspsi   :   1650.23s CPU   1667.72s WALL (  101327 calls)

     General routines
     calbec       :   2756.94s CPU   2776.12s WALL (  126827 calls)
     fft          :     24.24s CPU     47.26s WALL (    5646 calls)
     ffts         :      1.33s CPU      2.06s WALL (     818 calls)
     fftw         :   9656.61s CPU   9798.04s WALL (25414744 calls)
     interpolate  :      2.68s CPU      4.91s WALL (     417 calls)
 
     Parallel routines
 
     PWSCF        :      7h22m CPU      7h31m WALL

 
   This run was terminated on:  20:56: 5  20Mar2024            

=------------------------------------------------------------------------------=
   JOB DONE.
=------------------------------------------------------------------------------=
