MPI startup(): Warning: I_MPI_PMI_LIBRARY will be ignored since the hydra process manager was found
MPI startup(): Warning: I_MPI_PMI_LIBRARY will be ignored since the hydra process manager was found
MPI startup(): Warning: I_MPI_PMI_LIBRARY will be ignored since the hydra process manager was found
MPI startup(): Warning: I_MPI_PMI_LIBRARY will be ignored since the hydra process manager was found
MPI startup(): Warning: I_MPI_PMI_LIBRARY will be ignored since the hydra process manager was found
MPI startup(): Warning: I_MPI_PMI_LIBRARY will be ignored since the hydra process manager was found
MPI startup(): Warning: I_MPI_PMI_LIBRARY will be ignored since the hydra process manager was found
MPI startup(): Warning: I_MPI_PMI_LIBRARY will be ignored since the hydra process manager was found
MPI startup(): Warning: I_MPI_PMI_LIBRARY will be ignored since the hydra process manager was found
MPI startup(): Warning: I_MPI_PMI_LIBRARY will be ignored since the hydra process manager was found

     Program PWSCF v.7.0 starts on 22Mar2024 at  7:27:56 

     This program is part of the open-source Quantum ESPRESSO suite
     for quantum simulation of materials; please cite
         "P. Giannozzi et al., J. Phys.:Condens. Matter 21 395502 (2009);
         "P. Giannozzi et al., J. Phys.:Condens. Matter 29 465901 (2017);
         "P. Giannozzi et al., J. Chem. Phys. 152 154105 (2020);
          URL http://www.quantum-espresso.org", 
     in publications or presentations arising from this work. More details at
     http://www.quantum-espresso.org/quote

     Parallel version (MPI), running on    10 processors

     MPI processes distributed on     1 nodes
     R & G space division:  proc/nbgrp/npool/nimage =      10
     17663 MiB available memory on the printing compute node when the environment starts
 
     Reading input from GSF110_0.5.in
Warning: card &CELL ignored
Warning: card / ignored

     Current dimensions of program PWSCF are:
     Max number of different atomic species (ntypx) = 10
     Max number of k-points (npk) =  40000
     Max angular momentum in pseudopotentials (lmaxx) =  4
     file Au.pbe-n-kjpaw_psl.1.0.0.UPF: wavefunction(s)  6S 5D renormalized
     Found identity + (  0.0000 -0.5000  0.0000) symmetry
     This is a supercell, fractional translations are disabled
     Message from routine setup:
     using ibrav=0 with symmetry is DISCOURAGED, use correct ibrav instead

     Subspace diagonalization in iterative solution of the eigenvalue problem:
     one sub-group per band group will be used
     scalapack distributed-memory algorithm (size of sub-group:  3*  3 procs)

 
     Parallelization info
     --------------------
     sticks:   dense  smooth     PW     G-vecs:    dense   smooth      PW
     Min         133     133     38                14227    14227    2178
     Max         134     134     39                14242    14242    2183
     Sum        1339    1339    389               142317   142317   21821
 
     Using Slab Decomposition
 


     bravais-lattice index     =            0
     lattice parameter (alat)  =       7.7101  a.u.
     unit-cell volume          =    2979.1368 (a.u.)^3
     number of atoms/cell      =           28
     number of atomic types    =            1
     number of electrons       =       308.00
     number of Kohn-Sham states=          185
     kinetic-energy cutoff     =      50.0000  Ry
     charge density cutoff     =     200.0000  Ry
     scf convergence threshold =      1.0E-06
     mixing beta               =       0.1000
     number of iterations used =            8  plain     mixing
     Exchange-correlation= SLA  PW   PBX  PBC
                           (   1   4   3   4   0   0   0)

     celldm(1)=   7.710083  celldm(2)=   0.000000  celldm(3)=   0.000000
     celldm(4)=   0.000000  celldm(5)=   0.000000  celldm(6)=   0.000000

     crystal axes: (cart. coord. in units of alat)
               a(1) = (   1.000000   0.000000   0.000000 )  
               a(2) = (   0.000000   1.414214   0.000000 )  
               a(3) = (   0.000000   0.000000   4.596194 )  

     reciprocal axes: (cart. coord. in units 2 pi/alat)
               b(1) = (  1.000000  0.000000  0.000000 )  
               b(2) = (  0.000000  0.707107  0.000000 )  
               b(3) = (  0.000000  0.000000  0.217571 )  


     PseudoPot. # 1 for Au read from file:
     ./Au.pbe-n-kjpaw_psl.1.0.0.UPF
     MD5 check sum: 4db85c736373c707a97ce4c36c2a9d23
     Pseudo is Projector augmented-wave + core cor, Zval = 11.0
     Generated using &quot;atomic&quot; code by A. Dal Corso  v.6.3
     Shape of augmentation charge: PSQ
     Using radial grid of 1279 points,  6 beta functions with: 
                l(1) =   0
                l(2) =   0
                l(3) =   1
                l(4) =   1
                l(5) =   2
                l(6) =   2
     Q(r) pseudized with 0 coefficients 


     atomic species   valence    mass     pseudopotential
        Au            11.00   196.96657     Au( 1.00)

      4 Sym. Ops. (no inversion) found



   Cartesian axes

     site n.     atom                  positions (alat units)
         1           Au  tau(   1) = (   0.5000000   0.3535534   0.0000000  )
         2           Au  tau(   2) = (   0.5000000   1.0606602   0.0000000  )
         3           Au  tau(   3) = (   0.0000000   0.0000000   0.3535534  )
         4           Au  tau(   4) = (   0.0000000   0.7071068   0.3535534  )
         5           Au  tau(   5) = (   0.5000000   0.3535534   0.7071068  )
         6           Au  tau(   6) = (   0.5000000   1.0606602   0.7071068  )
         7           Au  tau(   7) = (   0.0000000   0.0000000   1.0606602  )
         8           Au  tau(   8) = (   0.0000000   0.7071068   1.0606602  )
         9           Au  tau(   9) = (   0.5000000   0.3535534   1.4142136  )
        10           Au  tau(  10) = (   0.5000000   1.0606602   1.4142136  )
        11           Au  tau(  11) = (   0.0000000   0.0000000   1.7677670  )
        12           Au  tau(  12) = (   0.0000000   0.7071068   1.7677670  )
        13           Au  tau(  13) = (   0.5000000   0.3535534   2.1213203  )
        14           Au  tau(  14) = (   0.5000000   1.0606602   2.1213203  )
        15           Au  tau(  15) = (   0.0000000   0.0000000   2.4748737  )
        16           Au  tau(  16) = (   0.0000000   0.7071068   2.4748737  )
        17           Au  tau(  17) = (   1.0000000   0.3535534   2.8284271  )
        18           Au  tau(  18) = (   1.0000000   1.0606602   2.8284271  )
        19           Au  tau(  19) = (   0.5000000   0.0000000   3.1819805  )
        20           Au  tau(  20) = (   0.5000000   0.7071068   3.1819805  )
        21           Au  tau(  21) = (   1.0000000   0.3535534   3.5355339  )
        22           Au  tau(  22) = (   1.0000000   1.0606602   3.5355339  )
        23           Au  tau(  23) = (   0.5000000   0.0000000   3.8890873  )
        24           Au  tau(  24) = (   0.5000000   0.7071068   3.8890873  )
        25           Au  tau(  25) = (   1.0000000   0.3535534   4.2426407  )
        26           Au  tau(  26) = (   1.0000000   1.0606602   4.2426407  )
        27           Au  tau(  27) = (   0.5000000   0.0000000   4.5961941  )
        28           Au  tau(  28) = (   0.5000000   0.7071068   4.5961941  )

     number of k points=    35  Gaussian smearing, width (Ry)=  0.2000
                       cart. coord. in units 2pi/alat
        k(    1) = (   0.0000000   0.0000000   0.0000000), wk =   0.0208333
        k(    2) = (   0.0000000   0.0589256   0.0000000), wk =   0.0416667
        k(    3) = (   0.0000000   0.1178511   0.0000000), wk =   0.0416667
        k(    4) = (   0.0000000   0.1767767   0.0000000), wk =   0.0416667
        k(    5) = (   0.0000000   0.2357023   0.0000000), wk =   0.0416667
        k(    6) = (   0.0000000   0.2946278   0.0000000), wk =   0.0416667
        k(    7) = (   0.0000000  -0.3535534   0.0000000), wk =   0.0208333
        k(    8) = (   0.1250000   0.0000000   0.0000000), wk =   0.0416667
        k(    9) = (   0.1250000   0.0589256   0.0000000), wk =   0.0833333
        k(   10) = (   0.1250000   0.1178511   0.0000000), wk =   0.0833333
        k(   11) = (   0.1250000   0.1767767   0.0000000), wk =   0.0833333
        k(   12) = (   0.1250000   0.2357023   0.0000000), wk =   0.0833333
        k(   13) = (   0.1250000   0.2946278   0.0000000), wk =   0.0833333
        k(   14) = (   0.1250000  -0.3535534   0.0000000), wk =   0.0416667
        k(   15) = (   0.2500000   0.0000000   0.0000000), wk =   0.0416667
        k(   16) = (   0.2500000   0.0589256   0.0000000), wk =   0.0833333
        k(   17) = (   0.2500000   0.1178511   0.0000000), wk =   0.0833333
        k(   18) = (   0.2500000   0.1767767   0.0000000), wk =   0.0833333
        k(   19) = (   0.2500000   0.2357023   0.0000000), wk =   0.0833333
        k(   20) = (   0.2500000   0.2946278   0.0000000), wk =   0.0833333
        k(   21) = (   0.2500000  -0.3535534   0.0000000), wk =   0.0416667
        k(   22) = (   0.3750000   0.0000000   0.0000000), wk =   0.0416667
        k(   23) = (   0.3750000   0.0589256   0.0000000), wk =   0.0833333
        k(   24) = (   0.3750000   0.1178511   0.0000000), wk =   0.0833333
        k(   25) = (   0.3750000   0.1767767   0.0000000), wk =   0.0833333
        k(   26) = (   0.3750000   0.2357023   0.0000000), wk =   0.0833333
        k(   27) = (   0.3750000   0.2946278   0.0000000), wk =   0.0833333
        k(   28) = (   0.3750000  -0.3535534   0.0000000), wk =   0.0416667
        k(   29) = (  -0.5000000   0.0000000   0.0000000), wk =   0.0208333
        k(   30) = (  -0.5000000   0.0589256   0.0000000), wk =   0.0416667
        k(   31) = (  -0.5000000   0.1178511   0.0000000), wk =   0.0416667
        k(   32) = (  -0.5000000   0.1767767   0.0000000), wk =   0.0416667
        k(   33) = (  -0.5000000   0.2357023   0.0000000), wk =   0.0416667
        k(   34) = (  -0.5000000   0.2946278   0.0000000), wk =   0.0416667
        k(   35) = (  -0.5000000  -0.3535534   0.0000000), wk =   0.0208333

     Dense  grid:   142317 G-vectors     FFT dimensions: (  36,  50, 160)

     Estimated max dynamical RAM per process >     261.85 MB

     Estimated total dynamical RAM >       2.56 GB

     Initial potential from superposition of free atoms

     starting charge     307.9969, renormalised to     308.0000
     Starting wfcs are  252 randomized atomic wfcs
     Checking if some PAW data can be deallocated... 

     total cpu time spent up to now is       13.4 secs

     Self-consistent Calculation

     iteration #  1     ecut=    50.00 Ry     beta= 0.10
     Davidson diagonalization with overlap
     ethr =  1.00E-02,  avg # of iterations =  4.9

     total cpu time spent up to now is       49.9 secs

     total energy              =  -21685.52683720 Ry
     estimated scf accuracy    <      15.58702360 Ry

     iteration #  2     ecut=    50.00 Ry     beta= 0.10
     Davidson diagonalization with overlap
     ethr =  5.06E-03,  avg # of iterations =  6.5

     total cpu time spent up to now is       81.9 secs

     total energy              =  -21684.77412550 Ry
     estimated scf accuracy    <     119.83776826 Ry

     iteration #  3     ecut=    50.00 Ry     beta= 0.10
     Davidson diagonalization with overlap
     ethr =  5.06E-03,  avg # of iterations =  2.8

     total cpu time spent up to now is      108.6 secs

     total energy              =  -21687.56864905 Ry
     estimated scf accuracy    <       2.81134517 Ry

     iteration #  4     ecut=    50.00 Ry     beta= 0.10
     Davidson diagonalization with overlap
     ethr =  9.13E-04,  avg # of iterations =  5.6

     total cpu time spent up to now is      139.3 secs

     total energy              =  -21687.58114210 Ry
     estimated scf accuracy    <       1.33697329 Ry

     iteration #  5     ecut=    50.00 Ry     beta= 0.10
     Davidson diagonalization with overlap
     ethr =  4.34E-04,  avg # of iterations =  6.9

     negative rho (up, down):  5.479E-03 0.000E+00

     total cpu time spent up to now is      171.6 secs

     total energy              =  -21687.49082356 Ry
     estimated scf accuracy    <       3.70117613 Ry

     iteration #  6     ecut=    50.00 Ry     beta= 0.10
     Davidson diagonalization with overlap
     ethr =  4.34E-04,  avg # of iterations =  2.8

     negative rho (up, down):  5.291E-02 0.000E+00

     total cpu time spent up to now is      198.1 secs

     total energy              =  -21687.50373005 Ry
     estimated scf accuracy    <       0.41099873 Ry

     iteration #  7     ecut=    50.00 Ry     beta= 0.10
     Davidson diagonalization with overlap
     c_bands:  3 eigenvalues not converged
     ethr =  1.33E-04,  avg # of iterations = 10.1

     negative rho (up, down):  8.898E-02 0.000E+00

     total cpu time spent up to now is      241.8 secs

     total energy              =  -21687.57910681 Ry
     estimated scf accuracy    <       0.18575333 Ry

     iteration #  8     ecut=    50.00 Ry     beta= 0.10
     Davidson diagonalization with overlap
     ethr =  6.03E-05,  avg # of iterations =  4.7

     negative rho (up, down):  1.175E-01 0.000E+00

     total cpu time spent up to now is      273.1 secs

     total energy              =  -21687.59840304 Ry
     estimated scf accuracy    <       0.13042450 Ry

     iteration #  9     ecut=    50.00 Ry     beta= 0.10
     Davidson diagonalization with overlap
     ethr =  4.23E-05,  avg # of iterations =  1.9

     negative rho (up, down):  2.783E-01 0.000E+00

     total cpu time spent up to now is      298.8 secs

     total energy              =  -21687.60174347 Ry
     estimated scf accuracy    <       0.10040099 Ry

     iteration # 10     ecut=    50.00 Ry     beta= 0.10
     Davidson diagonalization with overlap
     ethr =  3.26E-05,  avg # of iterations =  4.5

     negative rho (up, down):  4.016E-01 0.000E+00

     total cpu time spent up to now is      327.9 secs

     total energy              =  -21687.60946290 Ry
     estimated scf accuracy    <       0.03500294 Ry

     iteration # 11     ecut=    50.00 Ry     beta= 0.10
     Davidson diagonalization with overlap
     c_bands:  1 eigenvalues not converged
     ethr =  1.14E-05,  avg # of iterations = 10.9

     negative rho (up, down):  4.538E-01 0.000E+00

     total cpu time spent up to now is      369.4 secs

     total energy              =  -21687.61292170 Ry
     estimated scf accuracy    <       0.00955839 Ry

     iteration # 12     ecut=    50.00 Ry     beta= 0.10
     Davidson diagonalization with overlap
     c_bands:  1 eigenvalues not converged
     c_bands:  1 eigenvalues not converged
     ethr =  3.10E-06,  avg # of iterations =  9.0

     negative rho (up, down):  4.707E-01 0.000E+00

     total cpu time spent up to now is      412.0 secs

     total energy              =  -21687.61531518 Ry
     estimated scf accuracy    <       0.00404424 Ry

     iteration # 13     ecut=    50.00 Ry     beta= 0.10
     Davidson diagonalization with overlap
     c_bands:  2 eigenvalues not converged
     ethr =  1.31E-06,  avg # of iterations =  4.1

     negative rho (up, down):  5.117E-01 0.000E+00

     total cpu time spent up to now is      441.9 secs

     total energy              =  -21687.61633864 Ry
     estimated scf accuracy    <       0.00225121 Ry

     iteration # 14     ecut=    50.00 Ry     beta= 0.10
     Davidson diagonalization with overlap
     ethr =  7.31E-07,  avg # of iterations =  6.9

     negative rho (up, down):  5.119E-01 0.000E+00

     total cpu time spent up to now is      478.2 secs

     total energy              =  -21687.61690610 Ry
     estimated scf accuracy    <       0.00187561 Ry

     iteration # 15     ecut=    50.00 Ry     beta= 0.10
     Davidson diagonalization with overlap
     ethr =  6.09E-07,  avg # of iterations =  1.3

     negative rho (up, down):  5.207E-01 0.000E+00

     total cpu time spent up to now is      502.1 secs

     total energy              =  -21687.61691594 Ry
     estimated scf accuracy    <       0.00186808 Ry

     iteration # 16     ecut=    50.00 Ry     beta= 0.10
     Davidson diagonalization with overlap
     ethr =  6.07E-07,  avg # of iterations =  3.1

     negative rho (up, down):  5.379E-01 0.000E+00

     total cpu time spent up to now is      529.4 secs

     total energy              =  -21687.61744240 Ry
     estimated scf accuracy    <       0.00262966 Ry

     iteration # 17     ecut=    50.00 Ry     beta= 0.10
     Davidson diagonalization with overlap
     ethr =  6.07E-07,  avg # of iterations =  6.0

     negative rho (up, down):  5.062E-01 0.000E+00

     total cpu time spent up to now is      561.3 secs

     total energy              =  -21687.61577767 Ry
     estimated scf accuracy    <       0.00364568 Ry

     iteration # 18     ecut=    50.00 Ry     beta= 0.10
     Davidson diagonalization with overlap
     c_bands:  2 eigenvalues not converged
     ethr =  6.07E-07,  avg # of iterations =  6.5

     negative rho (up, down):  5.184E-01 0.000E+00

     total cpu time spent up to now is      595.5 secs

     total energy              =  -21687.61656407 Ry
     estimated scf accuracy    <       0.00176440 Ry

     iteration # 19     ecut=    50.00 Ry     beta= 0.10
     Davidson diagonalization with overlap
     ethr =  5.73E-07,  avg # of iterations =  3.2

     negative rho (up, down):  5.213E-01 0.000E+00

     total cpu time spent up to now is      621.8 secs

     total energy              =  -21687.61677251 Ry
     estimated scf accuracy    <       0.00173552 Ry

     iteration # 20     ecut=    50.00 Ry     beta= 0.10
     Davidson diagonalization with overlap
     ethr =  5.63E-07,  avg # of iterations =  2.0

     negative rho (up, down):  5.159E-01 0.000E+00

     total cpu time spent up to now is      646.9 secs

     total energy              =  -21687.61677228 Ry
     estimated scf accuracy    <       0.00179939 Ry

     iteration # 21     ecut=    50.00 Ry     beta= 0.10
     Davidson diagonalization with overlap
     ethr =  5.63E-07,  avg # of iterations =  1.0

     negative rho (up, down):  4.992E-01 0.000E+00

     total cpu time spent up to now is      670.5 secs

     total energy              =  -21687.61628292 Ry
     estimated scf accuracy    <       0.00207689 Ry

     iteration # 22     ecut=    50.00 Ry     beta= 0.10
     Davidson diagonalization with overlap
     ethr =  5.63E-07,  avg # of iterations =  3.3

     negative rho (up, down):  4.995E-01 0.000E+00

     total cpu time spent up to now is      697.3 secs

     total energy              =  -21687.61638177 Ry
     estimated scf accuracy    <       0.00191040 Ry

     iteration # 23     ecut=    50.00 Ry     beta= 0.10
     Davidson diagonalization with overlap
     ethr =  5.63E-07,  avg # of iterations =  1.0

     negative rho (up, down):  4.809E-01 0.000E+00

     total cpu time spent up to now is      721.1 secs

     total energy              =  -21687.61580313 Ry
     estimated scf accuracy    <       0.00198176 Ry

     iteration # 24     ecut=    50.00 Ry     beta= 0.10
     Davidson diagonalization with overlap
     ethr =  5.63E-07,  avg # of iterations =  4.3

     negative rho (up, down):  4.742E-01 0.000E+00

     total cpu time spent up to now is      749.7 secs

     total energy              =  -21687.61564038 Ry
     estimated scf accuracy    <       0.00169939 Ry

     iteration # 25     ecut=    50.00 Ry     beta= 0.10
     Davidson diagonalization with overlap
     ethr =  5.52E-07,  avg # of iterations =  1.4

     negative rho (up, down):  4.671E-01 0.000E+00

     total cpu time spent up to now is      773.9 secs

     total energy              =  -21687.61562538 Ry
     estimated scf accuracy    <       0.00230500 Ry

     iteration # 26     ecut=    50.00 Ry     beta= 0.10
     Davidson diagonalization with overlap
     ethr =  5.52E-07,  avg # of iterations =  1.1

     negative rho (up, down):  5.120E-01 0.000E+00

     total cpu time spent up to now is      797.3 secs

     total energy              =  -21687.61623605 Ry
     estimated scf accuracy    <       0.00276026 Ry

     iteration # 27     ecut=    50.00 Ry     beta= 0.10
     Davidson diagonalization with overlap
     ethr =  5.52E-07,  avg # of iterations =  4.6

     negative rho (up, down):  5.841E-01 0.000E+00

     total cpu time spent up to now is      826.1 secs

     total energy              =  -21687.61698801 Ry
     estimated scf accuracy    <       0.00223509 Ry

     iteration # 28     ecut=    50.00 Ry     beta= 0.10
     Davidson diagonalization with overlap
     c_bands:  2 eigenvalues not converged
     c_bands:  1 eigenvalues not converged
     c_bands:  1 eigenvalues not converged
     ethr =  5.52E-07,  avg # of iterations = 11.9

     negative rho (up, down):  4.683E-01 0.000E+00

     total cpu time spent up to now is      879.8 secs

     total energy              =  -21687.60475545 Ry
     estimated scf accuracy    <       0.02574809 Ry

     iteration # 29     ecut=    50.00 Ry     beta= 0.10
     Davidson diagonalization with overlap
     c_bands:  1 eigenvalues not converged
     c_bands:  1 eigenvalues not converged
     ethr =  5.52E-07,  avg # of iterations = 11.5

     negative rho (up, down):  4.532E-01 0.000E+00

     total cpu time spent up to now is      931.4 secs

     total energy              =  -21687.61586068 Ry
     estimated scf accuracy    <       0.00200666 Ry

     iteration # 30     ecut=    50.00 Ry     beta= 0.10
     Davidson diagonalization with overlap
     ethr =  5.52E-07,  avg # of iterations =  1.4

     negative rho (up, down):  4.383E-01 0.000E+00

     total cpu time spent up to now is      955.8 secs

     total energy              =  -21687.61586840 Ry
     estimated scf accuracy    <       0.00285243 Ry

     iteration # 31     ecut=    50.00 Ry     beta= 0.10
     Davidson diagonalization with overlap
     ethr =  5.52E-07,  avg # of iterations =  1.0

     negative rho (up, down):  4.444E-01 0.000E+00

     total cpu time spent up to now is      979.6 secs

     total energy              =  -21687.61586824 Ry
     estimated scf accuracy    <       0.00397040 Ry

     iteration # 32     ecut=    50.00 Ry     beta= 0.10
     Davidson diagonalization with overlap
     ethr =  5.52E-07,  avg # of iterations =  1.0

     negative rho (up, down):  4.475E-01 0.000E+00

     total cpu time spent up to now is     1003.5 secs

     total energy              =  -21687.61587111 Ry
     estimated scf accuracy    <       0.00347822 Ry

     iteration # 33     ecut=    50.00 Ry     beta= 0.10
     Davidson diagonalization with overlap
     ethr =  5.52E-07,  avg # of iterations =  1.0

     negative rho (up, down):  5.250E-01 0.000E+00

     total cpu time spent up to now is     1027.3 secs

     total energy              =  -21687.61639473 Ry
     estimated scf accuracy    <       0.00320343 Ry

     iteration # 34     ecut=    50.00 Ry     beta= 0.10
     Davidson diagonalization with overlap
     ethr =  5.52E-07,  avg # of iterations =  6.4

     negative rho (up, down):  5.199E-01 0.000E+00

     total cpu time spent up to now is     1060.6 secs

     total energy              =  -21687.61668429 Ry
     estimated scf accuracy    <       0.00179734 Ry

     iteration # 35     ecut=    50.00 Ry     beta= 0.10
     Davidson diagonalization with overlap
     ethr =  5.52E-07,  avg # of iterations =  1.5

     negative rho (up, down):  5.508E-01 0.000E+00

     total cpu time spent up to now is     1085.6 secs

     total energy              =  -21687.61764754 Ry
     estimated scf accuracy    <       0.00178786 Ry

     iteration # 36     ecut=    50.00 Ry     beta= 0.10
     Davidson diagonalization with overlap
     ethr =  5.52E-07,  avg # of iterations =  6.8

     negative rho (up, down):  5.246E-01 0.000E+00

     total cpu time spent up to now is     1120.0 secs

     total energy              =  -21687.61631299 Ry
     estimated scf accuracy    <       0.00457598 Ry

     iteration # 37     ecut=    50.00 Ry     beta= 0.10
     Davidson diagonalization with overlap
     ethr =  5.52E-07,  avg # of iterations =  6.1

     negative rho (up, down):  4.812E-01 0.000E+00

     total cpu time spent up to now is     1152.7 secs

     total energy              =  -21687.61569748 Ry
     estimated scf accuracy    <       0.00193099 Ry

     iteration # 38     ecut=    50.00 Ry     beta= 0.10
     Davidson diagonalization with overlap
     ethr =  5.52E-07,  avg # of iterations =  6.3

     negative rho (up, down):  4.736E-01 0.000E+00

     total cpu time spent up to now is     1185.4 secs

     total energy              =  -21687.61595865 Ry
     estimated scf accuracy    <       0.00167682 Ry

     iteration # 39     ecut=    50.00 Ry     beta= 0.10
     Davidson diagonalization with overlap
     ethr =  5.44E-07,  avg # of iterations =  1.1

     negative rho (up, down):  4.517E-01 0.000E+00

     total cpu time spent up to now is     1209.7 secs

     total energy              =  -21687.61580920 Ry
     estimated scf accuracy    <       0.00197560 Ry

     iteration # 40     ecut=    50.00 Ry     beta= 0.10
     Davidson diagonalization with overlap
     ethr =  5.44E-07,  avg # of iterations =  1.9

     negative rho (up, down):  4.484E-01 0.000E+00

     total cpu time spent up to now is     1235.6 secs

     total energy              =  -21687.61582529 Ry
     estimated scf accuracy    <       0.00303989 Ry

     iteration # 41     ecut=    50.00 Ry     beta= 0.10
     Davidson diagonalization with overlap
     ethr =  5.44E-07,  avg # of iterations =  1.0

     negative rho (up, down):  4.290E-01 0.000E+00

     total cpu time spent up to now is     1259.7 secs

     total energy              =  -21687.61584260 Ry
     estimated scf accuracy    <       0.00324119 Ry

     iteration # 42     ecut=    50.00 Ry     beta= 0.10
     Davidson diagonalization with overlap
     ethr =  5.44E-07,  avg # of iterations =  1.5

     negative rho (up, down):  4.305E-01 0.000E+00

     total cpu time spent up to now is     1285.0 secs

     total energy              =  -21687.61585508 Ry
     estimated scf accuracy    <       0.00482123 Ry

     iteration # 43     ecut=    50.00 Ry     beta= 0.10
     Davidson diagonalization with overlap
     ethr =  5.44E-07,  avg # of iterations =  1.0

     negative rho (up, down):  4.528E-01 0.000E+00

     total cpu time spent up to now is     1308.9 secs

     total energy              =  -21687.61587400 Ry
     estimated scf accuracy    <       0.00465535 Ry

     iteration # 44     ecut=    50.00 Ry     beta= 0.10
     Davidson diagonalization with overlap
     ethr =  5.44E-07,  avg # of iterations =  1.3

     negative rho (up, down):  4.640E-01 0.000E+00

     total cpu time spent up to now is     1333.7 secs

     total energy              =  -21687.61592684 Ry
     estimated scf accuracy    <       0.00284407 Ry

     iteration # 45     ecut=    50.00 Ry     beta= 0.10
     Davidson diagonalization with overlap
     ethr =  5.44E-07,  avg # of iterations =  1.0

     negative rho (up, down):  4.671E-01 0.000E+00

     total cpu time spent up to now is     1357.9 secs

     total energy              =  -21687.61593534 Ry
     estimated scf accuracy    <       0.00216081 Ry

     iteration # 46     ecut=    50.00 Ry     beta= 0.10
     Davidson diagonalization with overlap
     ethr =  5.44E-07,  avg # of iterations =  1.0

     negative rho (up, down):  5.471E-01 0.000E+00

     total cpu time spent up to now is     1382.2 secs

     total energy              =  -21687.61646583 Ry
     estimated scf accuracy    <       0.00197735 Ry

     iteration # 47     ecut=    50.00 Ry     beta= 0.10
     Davidson diagonalization with overlap
     c_bands:  1 eigenvalues not converged
     ethr =  5.44E-07,  avg # of iterations =  7.5

     negative rho (up, down):  4.739E-01 0.000E+00

     total cpu time spent up to now is     1421.3 secs

     total energy              =  -21687.61447822 Ry
     estimated scf accuracy    <       0.00376080 Ry

     iteration # 48     ecut=    50.00 Ry     beta= 0.10
     Davidson diagonalization with overlap
     ethr =  5.44E-07,  avg # of iterations =  7.2

     negative rho (up, down):  4.640E-01 0.000E+00

     total cpu time spent up to now is     1458.6 secs

     total energy              =  -21687.61588234 Ry
     estimated scf accuracy    <       0.00177264 Ry

     iteration # 49     ecut=    50.00 Ry     beta= 0.10
     Davidson diagonalization with overlap
     ethr =  5.44E-07,  avg # of iterations =  1.0

     negative rho (up, down):  5.379E-01 0.000E+00

     total cpu time spent up to now is     1482.9 secs

     total energy              =  -21687.61652974 Ry
     estimated scf accuracy    <       0.00221637 Ry

     iteration # 50     ecut=    50.00 Ry     beta= 0.10
     Davidson diagonalization with overlap
     ethr =  5.44E-07,  avg # of iterations =  6.6

     negative rho (up, down):  5.882E-01 0.000E+00

     total cpu time spent up to now is     1518.5 secs

     total energy              =  -21687.61996878 Ry
     estimated scf accuracy    <       0.00272157 Ry

     iteration # 51     ecut=    50.00 Ry     beta= 0.10
     Davidson diagonalization with overlap
     c_bands:  1 eigenvalues not converged
     ethr =  5.44E-07,  avg # of iterations = 10.3

     negative rho (up, down):  5.810E-01 0.000E+00

     total cpu time spent up to now is     1567.3 secs

     total energy              =  -21687.62244919 Ry
     estimated scf accuracy    <       0.02163004 Ry

     iteration # 52     ecut=    50.00 Ry     beta= 0.10
     Davidson diagonalization with overlap
     ethr =  5.44E-07,  avg # of iterations =  5.0

     negative rho (up, down):  5.963E-01 0.000E+00

     total cpu time spent up to now is     1596.4 secs

     total energy              =  -21687.62612377 Ry
     estimated scf accuracy    <       0.01655954 Ry

     iteration # 53     ecut=    50.00 Ry     beta= 0.10
     Davidson diagonalization with overlap
     ethr =  5.44E-07,  avg # of iterations =  7.2

     negative rho (up, down):  5.571E-01 0.000E+00

     total cpu time spent up to now is     1631.8 secs

     total energy              =  -21687.61481758 Ry
     estimated scf accuracy    <       0.02988114 Ry

     iteration # 54     ecut=    50.00 Ry     beta= 0.10
     Davidson diagonalization with overlap
     c_bands:  1 eigenvalues not converged
     c_bands:  1 eigenvalues not converged
     ethr =  5.44E-07,  avg # of iterations =  9.5

     negative rho (up, down):  5.798E-01 0.000E+00

     total cpu time spent up to now is     1674.1 secs

     total energy              =  -21687.62133015 Ry
     estimated scf accuracy    <       0.00613189 Ry

     iteration # 55     ecut=    50.00 Ry     beta= 0.10
     Davidson diagonalization with overlap
     ethr =  5.44E-07,  avg # of iterations =  7.0

     negative rho (up, down):  4.989E-01 0.000E+00

     total cpu time spent up to now is     1710.2 secs

     total energy              =  -21687.61036460 Ry
     estimated scf accuracy    <       0.01552740 Ry

     iteration # 56     ecut=    50.00 Ry     beta= 0.10
     Davidson diagonalization with overlap
     c_bands:  1 eigenvalues not converged
     c_bands:  1 eigenvalues not converged
     ethr =  5.44E-07,  avg # of iterations = 10.1

     negative rho (up, down):  5.514E-01 0.000E+00

     total cpu time spent up to now is     1758.2 secs

     total energy              =  -21687.61708235 Ry
     estimated scf accuracy    <       0.00152049 Ry

     iteration # 57     ecut=    50.00 Ry     beta= 0.10
     Davidson diagonalization with overlap
     c_bands:  1 eigenvalues not converged
     ethr =  4.94E-07,  avg # of iterations =  7.6

     negative rho (up, down):  5.261E-01 0.000E+00

     total cpu time spent up to now is     1796.2 secs

     total energy              =  -21687.61645493 Ry
     estimated scf accuracy    <       0.00453128 Ry

     iteration # 58     ecut=    50.00 Ry     beta= 0.10
     Davidson diagonalization with overlap
     ethr =  4.94E-07,  avg # of iterations =  6.1

     negative rho (up, down):  4.865E-01 0.000E+00

     total cpu time spent up to now is     1828.7 secs

     total energy              =  -21687.61578164 Ry
     estimated scf accuracy    <       0.00205233 Ry

     iteration # 59     ecut=    50.00 Ry     beta= 0.10
     Davidson diagonalization with overlap
     ethr =  4.94E-07,  avg # of iterations =  6.3

     negative rho (up, down):  4.450E-01 0.000E+00

     total cpu time spent up to now is     1861.5 secs

     total energy              =  -21687.61579152 Ry
     estimated scf accuracy    <       0.00161771 Ry

     iteration # 60     ecut=    50.00 Ry     beta= 0.10
     Davidson diagonalization with overlap
     ethr =  4.94E-07,  avg # of iterations =  3.7

     negative rho (up, down):  5.115E-01 0.000E+00

     total cpu time spent up to now is     1890.1 secs

     total energy              =  -21687.61632056 Ry
     estimated scf accuracy    <       0.00351878 Ry

     iteration # 61     ecut=    50.00 Ry     beta= 0.10
     Davidson diagonalization with overlap
     ethr =  4.94E-07,  avg # of iterations =  4.7

     negative rho (up, down):  5.750E-01 0.000E+00

     total cpu time spent up to now is     1920.3 secs

     total energy              =  -21687.61759167 Ry
     estimated scf accuracy    <       0.00149030 Ry

     iteration # 62     ecut=    50.00 Ry     beta= 0.10
     Davidson diagonalization with overlap
     ethr =  4.84E-07,  avg # of iterations =  9.5

     negative rho (up, down):  3.977E-01 0.000E+00

     total cpu time spent up to now is     1967.7 secs

     total energy              =  -21687.60995018 Ry
     estimated scf accuracy    <       0.01225388 Ry

     iteration # 63     ecut=    50.00 Ry     beta= 0.10
     Davidson diagonalization with overlap
     c_bands:  1 eigenvalues not converged
     ethr =  4.84E-07,  avg # of iterations = 10.5

     negative rho (up, down):  4.124E-01 0.000E+00

     total cpu time spent up to now is     2018.8 secs

     total energy              =  -21687.61587274 Ry
     estimated scf accuracy    <       0.00809161 Ry

     iteration # 64     ecut=    50.00 Ry     beta= 0.10
     Davidson diagonalization with overlap
     ethr =  4.84E-07,  avg # of iterations =  1.2

     negative rho (up, down):  4.298E-01 0.000E+00

     total cpu time spent up to now is     2044.2 secs

     total energy              =  -21687.61581780 Ry
     estimated scf accuracy    <       0.00620771 Ry

     iteration # 65     ecut=    50.00 Ry     beta= 0.10
     Davidson diagonalization with overlap
     ethr =  4.84E-07,  avg # of iterations =  1.3

     negative rho (up, down):  4.456E-01 0.000E+00

     total cpu time spent up to now is     2069.6 secs

     total energy              =  -21687.61582054 Ry
     estimated scf accuracy    <       0.00446511 Ry

     iteration # 66     ecut=    50.00 Ry     beta= 0.10
     Davidson diagonalization with overlap
     ethr =  4.84E-07,  avg # of iterations =  1.2

     negative rho (up, down):  4.570E-01 0.000E+00

     total cpu time spent up to now is     2094.9 secs

     total energy              =  -21687.61585969 Ry
     estimated scf accuracy    <       0.00315304 Ry

     iteration # 67     ecut=    50.00 Ry     beta= 0.10
     Davidson diagonalization with overlap
     ethr =  4.84E-07,  avg # of iterations =  1.3

     negative rho (up, down):  4.826E-01 0.000E+00

     total cpu time spent up to now is     2120.0 secs

     total energy              =  -21687.61601957 Ry
     estimated scf accuracy    <       0.00238488 Ry

     iteration # 68     ecut=    50.00 Ry     beta= 0.10
     Davidson diagonalization with overlap
     ethr =  4.84E-07,  avg # of iterations =  3.3

     negative rho (up, down):  4.710E-01 0.000E+00

     total cpu time spent up to now is     2147.7 secs

     total energy              =  -21687.61594576 Ry
     estimated scf accuracy    <       0.00142218 Ry

     iteration # 69     ecut=    50.00 Ry     beta= 0.10
     Davidson diagonalization with overlap
     ethr =  4.62E-07,  avg # of iterations =  1.3

     negative rho (up, down):  4.612E-01 0.000E+00

     total cpu time spent up to now is     2173.0 secs

     total energy              =  -21687.61588925 Ry
     estimated scf accuracy    <       0.00189009 Ry

     iteration # 70     ecut=    50.00 Ry     beta= 0.10
     Davidson diagonalization with overlap
     ethr =  4.62E-07,  avg # of iterations =  1.1

     negative rho (up, down):  5.225E-01 0.000E+00

     total cpu time spent up to now is     2197.3 secs

     total energy              =  -21687.61643459 Ry
     estimated scf accuracy    <       0.00238391 Ry

     iteration # 71     ecut=    50.00 Ry     beta= 0.10
     Davidson diagonalization with overlap
     ethr =  4.62E-07,  avg # of iterations =  6.3

     negative rho (up, down):  5.874E-01 0.000E+00

     total cpu time spent up to now is     2232.1 secs

     total energy              =  -21687.61842658 Ry
     estimated scf accuracy    <       0.00175892 Ry

     iteration # 72     ecut=    50.00 Ry     beta= 0.10
     Davidson diagonalization with overlap
     c_bands:  1 eigenvalues not converged
     c_bands:  1 eigenvalues not converged
     ethr =  4.62E-07,  avg # of iterations = 11.1

     negative rho (up, down):  4.979E-01 0.000E+00

     total cpu time spent up to now is     2284.8 secs

     total energy              =  -21687.60791763 Ry
     estimated scf accuracy    <       0.02108919 Ry

     iteration # 73     ecut=    50.00 Ry     beta= 0.10
     Davidson diagonalization with overlap
     c_bands:  1 eigenvalues not converged
     c_bands:  1 eigenvalues not converged
     ethr =  4.62E-07,  avg # of iterations = 11.3

     negative rho (up, down):  4.996E-01 0.000E+00

     total cpu time spent up to now is     2336.9 secs

     total energy              =  -21687.61627212 Ry
     estimated scf accuracy    <       0.00143115 Ry

     iteration # 74     ecut=    50.00 Ry     beta= 0.10
     Davidson diagonalization with overlap
     ethr =  4.62E-07,  avg # of iterations =  1.5

     negative rho (up, down):  4.752E-01 0.000E+00

     total cpu time spent up to now is     2362.6 secs

     total energy              =  -21687.61593500 Ry
     estimated scf accuracy    <       0.00137064 Ry

     iteration # 75     ecut=    50.00 Ry     beta= 0.10
     Davidson diagonalization with overlap
     ethr =  4.45E-07,  avg # of iterations =  3.6

     negative rho (up, down):  4.770E-01 0.000E+00

     total cpu time spent up to now is     2391.5 secs

     total energy              =  -21687.61599583 Ry
     estimated scf accuracy    <       0.00181433 Ry

     iteration # 76     ecut=    50.00 Ry     beta= 0.10
     Davidson diagonalization with overlap
     ethr =  4.45E-07,  avg # of iterations =  1.0

     negative rho (up, down):  4.489E-01 0.000E+00

     total cpu time spent up to now is     2416.7 secs

     total energy              =  -21687.61581647 Ry
     estimated scf accuracy    <       0.00172122 Ry

     iteration # 77     ecut=    50.00 Ry     beta= 0.10
     Davidson diagonalization with overlap
     ethr =  4.45E-07,  avg # of iterations =  2.1

     negative rho (up, down):  4.465E-01 0.000E+00

     total cpu time spent up to now is     2444.2 secs

     total energy              =  -21687.61583252 Ry
     estimated scf accuracy    <       0.00315224 Ry

     iteration # 78     ecut=    50.00 Ry     beta= 0.10
     Davidson diagonalization with overlap
     ethr =  4.45E-07,  avg # of iterations =  1.0

     negative rho (up, down):  4.593E-01 0.000E+00

     total cpu time spent up to now is     2469.4 secs

     total energy              =  -21687.61588313 Ry
     estimated scf accuracy    <       0.00330498 Ry

     iteration # 79     ecut=    50.00 Ry     beta= 0.10
     Davidson diagonalization with overlap
     ethr =  4.45E-07,  avg # of iterations =  1.0

     negative rho (up, down):  4.481E-01 0.000E+00

     total cpu time spent up to now is     2494.1 secs

     total energy              =  -21687.61584493 Ry
     estimated scf accuracy    <       0.00241450 Ry

     iteration # 80     ecut=    50.00 Ry     beta= 0.10
     Davidson diagonalization with overlap
     ethr =  4.45E-07,  avg # of iterations =  1.0

     negative rho (up, down):  4.459E-01 0.000E+00

     total cpu time spent up to now is     2519.5 secs

     total energy              =  -21687.61584306 Ry
     estimated scf accuracy    <       0.00313075 Ry

     iteration # 81     ecut=    50.00 Ry     beta= 0.10
     Davidson diagonalization with overlap
     ethr =  4.45E-07,  avg # of iterations =  1.0

     negative rho (up, down):  5.328E-01 0.000E+00

     total cpu time spent up to now is     2544.9 secs

     total energy              =  -21687.61644212 Ry
     estimated scf accuracy    <       0.00328275 Ry

     iteration # 82     ecut=    50.00 Ry     beta= 0.10
     Davidson diagonalization with overlap
     ethr =  4.45E-07,  avg # of iterations =  6.6

     negative rho (up, down):  5.436E-01 0.000E+00

     total cpu time spent up to now is     2582.7 secs

     total energy              =  -21687.61765818 Ry
     estimated scf accuracy    <       0.00232069 Ry

     iteration # 83     ecut=    50.00 Ry     beta= 0.10
     Davidson diagonalization with overlap
     ethr =  4.45E-07,  avg # of iterations =  4.4

     negative rho (up, down):  5.575E-01 0.000E+00

     total cpu time spent up to now is     2613.1 secs

     total energy              =  -21687.61862881 Ry
     estimated scf accuracy    <       0.00325727 Ry

     iteration # 84     ecut=    50.00 Ry     beta= 0.10
     Davidson diagonalization with overlap
     ethr =  4.45E-07,  avg # of iterations =  6.6

     negative rho (up, down):  4.438E-01 0.000E+00

     total cpu time spent up to now is     2647.2 secs

     total energy              =  -21687.61299683 Ry
     estimated scf accuracy    <       0.00586917 Ry

     iteration # 85     ecut=    50.00 Ry     beta= 0.10
     Davidson diagonalization with overlap
     c_bands:  1 eigenvalues not converged
     ethr =  4.45E-07,  avg # of iterations =  8.7

     negative rho (up, down):  4.377E-01 0.000E+00

     total cpu time spent up to now is     2692.4 secs

     total energy              =  -21687.61582431 Ry
     estimated scf accuracy    <       0.00332158 Ry

     iteration # 86     ecut=    50.00 Ry     beta= 0.10
     Davidson diagonalization with overlap
     ethr =  4.45E-07,  avg # of iterations =  1.0

     negative rho (up, down):  4.301E-01 0.000E+00

     total cpu time spent up to now is     2718.1 secs

     total energy              =  -21687.61582903 Ry
     estimated scf accuracy    <       0.00377177 Ry

     iteration # 87     ecut=    50.00 Ry     beta= 0.10
     Davidson diagonalization with overlap
     ethr =  4.45E-07,  avg # of iterations =  1.0

     negative rho (up, down):  4.047E-01 0.000E+00

     total cpu time spent up to now is     2744.0 secs

     total energy              =  -21687.61590619 Ry
     estimated scf accuracy    <       0.00438504 Ry

     iteration # 88     ecut=    50.00 Ry     beta= 0.10
     Davidson diagonalization with overlap
     ethr =  4.45E-07,  avg # of iterations =  1.6

     negative rho (up, down):  3.947E-01 0.000E+00

     total cpu time spent up to now is     2771.4 secs

     total energy              =  -21687.61597172 Ry
     estimated scf accuracy    <       0.00698563 Ry

     iteration # 89     ecut=    50.00 Ry     beta= 0.10
     Davidson diagonalization with overlap
     ethr =  4.45E-07,  avg # of iterations =  1.3

     negative rho (up, down):  3.923E-01 0.000E+00

     total cpu time spent up to now is     2798.2 secs

     total energy              =  -21687.61599177 Ry
     estimated scf accuracy    <       0.00818599 Ry

     iteration # 90     ecut=    50.00 Ry     beta= 0.10
     Davidson diagonalization with overlap
     ethr =  4.45E-07,  avg # of iterations =  1.0

     negative rho (up, down):  4.261E-01 0.000E+00

     total cpu time spent up to now is     2824.0 secs

     total energy              =  -21687.61582987 Ry
     estimated scf accuracy    <       0.00849149 Ry

     iteration # 91     ecut=    50.00 Ry     beta= 0.10
     Davidson diagonalization with overlap
     ethr =  4.45E-07,  avg # of iterations =  1.5

     negative rho (up, down):  4.437E-01 0.000E+00

     total cpu time spent up to now is     2850.9 secs

     total energy              =  -21687.61582335 Ry
     estimated scf accuracy    <       0.00475052 Ry

     iteration # 92     ecut=    50.00 Ry     beta= 0.10
     Davidson diagonalization with overlap
     ethr =  4.45E-07,  avg # of iterations =  1.5

     negative rho (up, down):  4.205E-01 0.000E+00

     total cpu time spent up to now is     2878.0 secs

     total energy              =  -21687.61586400 Ry
     estimated scf accuracy    <       0.00324192 Ry

     iteration # 93     ecut=    50.00 Ry     beta= 0.10
     Davidson diagonalization with overlap
     ethr =  4.45E-07,  avg # of iterations =  1.2

     negative rho (up, down):  5.289E-01 0.000E+00

     total cpu time spent up to now is     2903.9 secs

     total energy              =  -21687.61632127 Ry
     estimated scf accuracy    <       0.00529164 Ry

     iteration # 94     ecut=    50.00 Ry     beta= 0.10
     Davidson diagonalization with overlap
     ethr =  4.45E-07,  avg # of iterations =  6.7

     negative rho (up, down):  6.389E-01 0.000E+00

     total cpu time spent up to now is     2943.3 secs

     total energy              =  -21687.61846054 Ry
     estimated scf accuracy    <       0.00204482 Ry

     iteration # 95     ecut=    50.00 Ry     beta= 0.10
     Davidson diagonalization with overlap
     c_bands:  1 eigenvalues not converged
     c_bands:  1 eigenvalues not converged
     c_bands:  2 eigenvalues not converged
     c_bands:  2 eigenvalues not converged
     c_bands:  1 eigenvalues not converged
     c_bands:  1 eigenvalues not converged
     c_bands:  1 eigenvalues not converged
     c_bands:  1 eigenvalues not converged
     c_bands:  2 eigenvalues not converged
     c_bands:  1 eigenvalues not converged
     c_bands:  1 eigenvalues not converged
     ethr =  4.45E-07,  avg # of iterations = 15.7

     negative rho (up, down):  4.713E-01 0.000E+00

     total cpu time spent up to now is     3021.4 secs

     total energy              =  -21687.56819449 Ry
     estimated scf accuracy    <       0.12311597 Ry

     iteration # 96     ecut=    50.00 Ry     beta= 0.10
     Davidson diagonalization with overlap
     c_bands:  1 eigenvalues not converged
     c_bands:  1 eigenvalues not converged
     c_bands:  1 eigenvalues not converged
     c_bands:  1 eigenvalues not converged
     c_bands:  1 eigenvalues not converged
     c_bands:  1 eigenvalues not converged
     c_bands:  1 eigenvalues not converged
     c_bands:  1 eigenvalues not converged
     c_bands:  2 eigenvalues not converged
     c_bands:  1 eigenvalues not converged
     c_bands:  1 eigenvalues not converged
     c_bands:  1 eigenvalues not converged
     c_bands:  1 eigenvalues not converged
     ethr =  4.45E-07,  avg # of iterations = 15.3

     negative rho (up, down):  4.570E-01 0.000E+00

     total cpu time spent up to now is     3092.9 secs

     total energy              =  -21687.61587495 Ry
     estimated scf accuracy    <       0.00189654 Ry

     iteration # 97     ecut=    50.00 Ry     beta= 0.10
     Davidson diagonalization with overlap
     c_bands:  1 eigenvalues not converged
     c_bands:  1 eigenvalues not converged
     ethr =  4.45E-07,  avg # of iterations =  4.2

     negative rho (up, down):  4.690E-01 0.000E+00

     total cpu time spent up to now is     3122.2 secs

     total energy              =  -21687.61594881 Ry
     estimated scf accuracy    <       0.00261330 Ry

     iteration # 98     ecut=    50.00 Ry     beta= 0.10
     Davidson diagonalization with overlap
     c_bands:  1 eigenvalues not converged
     ethr =  4.45E-07,  avg # of iterations =  1.6

     negative rho (up, down):  4.928E-01 0.000E+00

     total cpu time spent up to now is     3149.0 secs

     total energy              =  -21687.61615288 Ry
     estimated scf accuracy    <       0.00194609 Ry

     iteration # 99     ecut=    50.00 Ry     beta= 0.10
     Davidson diagonalization with overlap
     ethr =  4.45E-07,  avg # of iterations =  3.3

     negative rho (up, down):  5.347E-01 0.000E+00

     total cpu time spent up to now is     3178.2 secs

     total energy              =  -21687.61673783 Ry
     estimated scf accuracy    <       0.00135067 Ry

     iteration #100     ecut=    50.00 Ry     beta= 0.10
     Davidson diagonalization with overlap
     ethr =  4.39E-07,  avg # of iterations =  6.5

     negative rho (up, down):  5.324E-01 0.000E+00

     total cpu time spent up to now is     3215.9 secs

     total energy              =  -21687.61715866 Ry
     estimated scf accuracy    <       0.00246684 Ry

     iteration #101     ecut=    50.00 Ry     beta= 0.10
     Davidson diagonalization with overlap
     ethr =  4.39E-07,  avg # of iterations =  1.2

     negative rho (up, down):  5.521E-01 0.000E+00

     total cpu time spent up to now is     3243.2 secs

     total energy              =  -21687.61806356 Ry
     estimated scf accuracy    <       0.00240910 Ry

     iteration #102     ecut=    50.00 Ry     beta= 0.10
     Davidson diagonalization with overlap
     ethr =  4.39E-07,  avg # of iterations =  6.1

     negative rho (up, down):  4.699E-01 0.000E+00

     total cpu time spent up to now is     3279.4 secs

     total energy              =  -21687.61395071 Ry
     estimated scf accuracy    <       0.00474500 Ry

     iteration #103     ecut=    50.00 Ry     beta= 0.10
     Davidson diagonalization with overlap
     c_bands:  1 eigenvalues not converged
     ethr =  4.39E-07,  avg # of iterations =  7.9

     negative rho (up, down):  4.139E-01 0.000E+00

     total cpu time spent up to now is     3322.8 secs

     total energy              =  -21687.61580616 Ry
     estimated scf accuracy    <       0.00195594 Ry

     iteration #104     ecut=    50.00 Ry     beta= 0.10
     Davidson diagonalization with overlap
     ethr =  4.39E-07,  avg # of iterations =  3.0

     negative rho (up, down):  4.986E-01 0.000E+00

     total cpu time spent up to now is     3353.3 secs

     total energy              =  -21687.61613673 Ry
     estimated scf accuracy    <       0.00623178 Ry

     iteration #105     ecut=    50.00 Ry     beta= 0.10
     Davidson diagonalization with overlap
     ethr =  4.39E-07,  avg # of iterations =  4.3

     negative rho (up, down):  5.189E-01 0.000E+00

     total cpu time spent up to now is     3385.8 secs

     total energy              =  -21687.61659101 Ry
     estimated scf accuracy    <       0.00136148 Ry

     iteration #106     ecut=    50.00 Ry     beta= 0.10
     Davidson diagonalization with overlap
     ethr =  4.39E-07,  avg # of iterations =  5.3

     negative rho (up, down):  4.613E-01 0.000E+00

     total cpu time spent up to now is     3418.8 secs

     total energy              =  -21687.61558295 Ry
     estimated scf accuracy    <       0.00163173 Ry

     iteration #107     ecut=    50.00 Ry     beta= 0.10
     Davidson diagonalization with overlap
     ethr =  4.39E-07,  avg # of iterations =  6.0

     negative rho (up, down):  4.776E-01 0.000E+00

     total cpu time spent up to now is     3454.8 secs

     total energy              =  -21687.61600453 Ry
     estimated scf accuracy    <       0.00226212 Ry

     iteration #108     ecut=    50.00 Ry     beta= 0.10
     Davidson diagonalization with overlap
     ethr =  4.39E-07,  avg # of iterations =  1.4

     negative rho (up, down):  4.812E-01 0.000E+00

     total cpu time spent up to now is     3483.3 secs

     total energy              =  -21687.61604260 Ry
     estimated scf accuracy    <       0.00154713 Ry

     iteration #109     ecut=    50.00 Ry     beta= 0.10
     Davidson diagonalization with overlap
     ethr =  4.39E-07,  avg # of iterations =  1.0

     negative rho (up, down):  4.810E-01 0.000E+00

     total cpu time spent up to now is     3510.7 secs

     total energy              =  -21687.61603941 Ry
     estimated scf accuracy    <       0.00140768 Ry

     iteration #110     ecut=    50.00 Ry     beta= 0.10
     Davidson diagonalization with overlap
     ethr =  4.39E-07,  avg # of iterations =  1.0

     negative rho (up, down):  4.719E-01 0.000E+00

     total cpu time spent up to now is     3537.9 secs

     total energy              =  -21687.61595909 Ry
     estimated scf accuracy    <       0.00141949 Ry

     iteration #111     ecut=    50.00 Ry     beta= 0.10
     Davidson diagonalization with overlap
     ethr =  4.39E-07,  avg # of iterations =  1.0

     negative rho (up, down):  4.868E-01 0.000E+00

     total cpu time spent up to now is     3565.1 secs

     total energy              =  -21687.61609277 Ry
     estimated scf accuracy    <       0.00180806 Ry

     iteration #112     ecut=    50.00 Ry     beta= 0.10
     Davidson diagonalization with overlap
     ethr =  4.39E-07,  avg # of iterations =  1.8

     negative rho (up, down):  5.339E-01 0.000E+00

     total cpu time spent up to now is     3594.1 secs

     total energy              =  -21687.61661270 Ry
     estimated scf accuracy    <       0.00129333 Ry

     iteration #113     ecut=    50.00 Ry     beta= 0.10
     Davidson diagonalization with overlap
     c_bands:  1 eigenvalues not converged
     ethr =  4.20E-07,  avg # of iterations =  6.7

     negative rho (up, down):  5.250E-01 0.000E+00

     total cpu time spent up to now is     3634.5 secs

     total energy              =  -21687.61683745 Ry
     estimated scf accuracy    <       0.00240910 Ry

     iteration #114     ecut=    50.00 Ry     beta= 0.10
     Davidson diagonalization with overlap
     ethr =  4.20E-07,  avg # of iterations =  3.2

     negative rho (up, down):  5.143E-01 0.000E+00

     total cpu time spent up to now is     3664.8 secs

     total energy              =  -21687.61650756 Ry
     estimated scf accuracy    <       0.00208309 Ry

     iteration #115     ecut=    50.00 Ry     beta= 0.10
     Davidson diagonalization with overlap
     ethr =  4.20E-07,  avg # of iterations =  4.6

     negative rho (up, down):  4.901E-01 0.000E+00

     total cpu time spent up to now is     3696.6 secs

     total energy              =  -21687.61602799 Ry
     estimated scf accuracy    <       0.00157875 Ry

     iteration #116     ecut=    50.00 Ry     beta= 0.10
     Davidson diagonalization with overlap
     ethr =  4.20E-07,  avg # of iterations =  5.2

     negative rho (up, down):  4.951E-01 0.000E+00

     total cpu time spent up to now is     3729.9 secs

     total energy              =  -21687.61620375 Ry
     estimated scf accuracy    <       0.00144611 Ry

     iteration #117     ecut=    50.00 Ry     beta= 0.10
     Davidson diagonalization with overlap
     ethr =  4.20E-07,  avg # of iterations =  1.1

     negative rho (up, down):  4.983E-01 0.000E+00

     total cpu time spent up to now is     3757.6 secs

     total energy              =  -21687.61625367 Ry
     estimated scf accuracy    <       0.00129448 Ry

     iteration #118     ecut=    50.00 Ry     beta= 0.10
     Davidson diagonalization with overlap
     ethr =  4.20E-07,  avg # of iterations =  1.0

     negative rho (up, down):  5.103E-01 0.000E+00

     total cpu time spent up to now is     3784.5 secs

     total energy              =  -21687.61644058 Ry
     estimated scf accuracy    <       0.00120025 Ry

     iteration #119     ecut=    50.00 Ry     beta= 0.10
     Davidson diagonalization with overlap
     ethr =  3.90E-07,  avg # of iterations =  3.9

     negative rho (up, down):  5.381E-01 0.000E+00

     total cpu time spent up to now is     3815.5 secs

     total energy              =  -21687.61709280 Ry
     estimated scf accuracy    <       0.00140557 Ry

     iteration #120     ecut=    50.00 Ry     beta= 0.10
     Davidson diagonalization with overlap
     ethr =  3.90E-07,  avg # of iterations =  6.0

     negative rho (up, down):  5.073E-01 0.000E+00

     total cpu time spent up to now is     3852.9 secs

     total energy              =  -21687.61602623 Ry
     estimated scf accuracy    <       0.00277223 Ry

     iteration #121     ecut=    50.00 Ry     beta= 0.10
     Davidson diagonalization with overlap
     ethr =  3.90E-07,  avg # of iterations =  6.0

     negative rho (up, down):  4.660E-01 0.000E+00

     total cpu time spent up to now is     3890.2 secs

     total energy              =  -21687.61576212 Ry
     estimated scf accuracy    <       0.00145397 Ry

     iteration #122     ecut=    50.00 Ry     beta= 0.10
     Davidson diagonalization with overlap
     ethr =  3.90E-07,  avg # of iterations =  5.7

     negative rho (up, down):  4.929E-01 0.000E+00

     total cpu time spent up to now is     3925.8 secs

     total energy              =  -21687.61614260 Ry
     estimated scf accuracy    <       0.00204228 Ry

     iteration #123     ecut=    50.00 Ry     beta= 0.10
     Davidson diagonalization with overlap
     ethr =  3.90E-07,  avg # of iterations =  3.3

     negative rho (up, down):  4.573E-01 0.000E+00

     total cpu time spent up to now is     3957.1 secs

     total energy              =  -21687.61582703 Ry
     estimated scf accuracy    <       0.00129233 Ry

     iteration #124     ecut=    50.00 Ry     beta= 0.10
     Davidson diagonalization with overlap
     ethr =  3.90E-07,  avg # of iterations =  3.4

     negative rho (up, down):  4.662E-01 0.000E+00

     total cpu time spent up to now is     3989.0 secs

     total energy              =  -21687.61591723 Ry
     estimated scf accuracy    <       0.00248749 Ry

     iteration #125     ecut=    50.00 Ry     beta= 0.10
     Davidson diagonalization with overlap
     ethr =  3.90E-07,  avg # of iterations =  1.0

     negative rho (up, down):  4.503E-01 0.000E+00

     total cpu time spent up to now is     4017.1 secs

     total energy              =  -21687.61582586 Ry
     estimated scf accuracy    <       0.00199444 Ry

     iteration #126     ecut=    50.00 Ry     beta= 0.10
     Davidson diagonalization with overlap
     ethr =  3.90E-07,  avg # of iterations =  1.3

     negative rho (up, down):  4.539E-01 0.000E+00

     total cpu time spent up to now is     4046.4 secs

     total energy              =  -21687.61585998 Ry
     estimated scf accuracy    <       0.00288093 Ry

     iteration #127     ecut=    50.00 Ry     beta= 0.10
     Davidson diagonalization with overlap
     ethr =  3.90E-07,  avg # of iterations =  1.0

     negative rho (up, down):  3.873E-01 0.000E+00

     total cpu time spent up to now is     4074.6 secs

     total energy              =  -21687.61593761 Ry
     estimated scf accuracy    <       0.00265654 Ry

     iteration #128     ecut=    50.00 Ry     beta= 0.10
     Davidson diagonalization with overlap
     ethr =  3.90E-07,  avg # of iterations =  3.3

     negative rho (up, down):  4.411E-01 0.000E+00

     total cpu time spent up to now is     4108.0 secs

     total energy              =  -21687.61578176 Ry
     estimated scf accuracy    <       0.00936510 Ry

     iteration #129     ecut=    50.00 Ry     beta= 0.10
     Davidson diagonalization with overlap
     ethr =  3.90E-07,  avg # of iterations =  2.2

     negative rho (up, down):  6.006E-01 0.000E+00

     total cpu time spent up to now is     4139.7 secs

     total energy              =  -21687.61441456 Ry
     estimated scf accuracy    <       0.00355859 Ry

     iteration #130     ecut=    50.00 Ry     beta= 0.10
     Davidson diagonalization with overlap
     c_bands:  2 eigenvalues not converged
     c_bands:  1 eigenvalues not converged
     c_bands:  2 eigenvalues not converged
     c_bands:  1 eigenvalues not converged
     c_bands:  1 eigenvalues not converged
     ethr =  3.90E-07,  avg # of iterations = 13.3

     negative rho (up, down):  5.319E-01 0.000E+00

     total cpu time spent up to now is     4212.2 secs

     total energy              =  -21687.60758325 Ry
     estimated scf accuracy    <       0.03508512 Ry

     iteration #131     ecut=    50.00 Ry     beta= 0.10
     Davidson diagonalization with overlap
     c_bands:  1 eigenvalues not converged
     ethr =  3.90E-07,  avg # of iterations = 11.2

     negative rho (up, down):  5.500E-01 0.000E+00

     total cpu time spent up to now is     4272.2 secs

     total energy              =  -21687.61796184 Ry
     estimated scf accuracy    <       0.00243010 Ry

     iteration #132     ecut=    50.00 Ry     beta= 0.10
     Davidson diagonalization with overlap
     ethr =  3.90E-07,  avg # of iterations =  5.6

     negative rho (up, down):  5.046E-01 0.000E+00

     total cpu time spent up to now is     4309.8 secs

     total energy              =  -21687.61529157 Ry
     estimated scf accuracy    <       0.00444300 Ry

     iteration #133     ecut=    50.00 Ry     beta= 0.10
     Davidson diagonalization with overlap
     c_bands:  1 eigenvalues not converged
     ethr =  3.90E-07,  avg # of iterations =  7.1

     negative rho (up, down):  3.931E-01 0.000E+00

     total cpu time spent up to now is     4353.0 secs

     total energy              =  -21687.61565591 Ry
     estimated scf accuracy    <       0.00150717 Ry

     iteration #134     ecut=    50.00 Ry     beta= 0.10
     Davidson diagonalization with overlap
     ethr =  3.90E-07,  avg # of iterations =  6.6

     negative rho (up, down):  3.611E-01 0.000E+00

     total cpu time spent up to now is     4395.4 secs

     total energy              =  -21687.61612214 Ry
     estimated scf accuracy    <       0.00847372 Ry

     iteration #135     ecut=    50.00 Ry     beta= 0.10
     Davidson diagonalization with overlap
     ethr =  3.90E-07,  avg # of iterations =  1.9

     negative rho (up, down):  3.345E-01 0.000E+00

     total cpu time spent up to now is     4427.3 secs

     total energy              =  -21687.61623309 Ry
     estimated scf accuracy    <       0.01312164 Ry

     iteration #136     ecut=    50.00 Ry     beta= 0.10
     Davidson diagonalization with overlap
     ethr =  3.90E-07,  avg # of iterations =  2.9

     negative rho (up, down):  3.265E-01 0.000E+00

     total cpu time spent up to now is     4460.2 secs

     total energy              =  -21687.61626779 Ry
     estimated scf accuracy    <       0.01761389 Ry

     iteration #137     ecut=    50.00 Ry     beta= 0.10
     Davidson diagonalization with overlap
     ethr =  3.90E-07,  avg # of iterations =  1.1

     negative rho (up, down):  3.430E-01 0.000E+00

     total cpu time spent up to now is     4488.1 secs

     total energy              =  -21687.61624141 Ry
     estimated scf accuracy    <       0.01911369 Ry

     iteration #138     ecut=    50.00 Ry     beta= 0.10
     Davidson diagonalization with overlap
     ethr =  3.90E-07,  avg # of iterations =  1.0

     negative rho (up, down):  4.061E-01 0.000E+00

     total cpu time spent up to now is     4515.8 secs

     total energy              =  -21687.61583344 Ry
     estimated scf accuracy    <       0.01620622 Ry

     iteration #139     ecut=    50.00 Ry     beta= 0.10
     Davidson diagonalization with overlap
     ethr =  3.90E-07,  avg # of iterations =  2.8

     negative rho (up, down):  4.565E-01 0.000E+00

     total cpu time spent up to now is     4547.1 secs

     total energy              =  -21687.61580691 Ry
     estimated scf accuracy    <       0.00697539 Ry

     iteration #140     ecut=    50.00 Ry     beta= 0.10
     Davidson diagonalization with overlap
     ethr =  3.90E-07,  avg # of iterations =  4.1

     negative rho (up, down):  5.046E-01 0.000E+00

     total cpu time spent up to now is     4579.6 secs

     total energy              =  -21687.61620459 Ry
     estimated scf accuracy    <       0.00249530 Ry

     iteration #141     ecut=    50.00 Ry     beta= 0.10
     Davidson diagonalization with overlap
     ethr =  3.90E-07,  avg # of iterations =  5.8

     negative rho (up, down):  5.589E-01 0.000E+00

     total cpu time spent up to now is     4616.0 secs

     total energy              =  -21687.61720679 Ry
     estimated scf accuracy    <       0.00139868 Ry

     iteration #142     ecut=    50.00 Ry     beta= 0.10
     Davidson diagonalization with overlap
     ethr =  3.90E-07,  avg # of iterations =  8.4

     negative rho (up, down):  5.877E-01 0.000E+00

     total cpu time spent up to now is     4663.6 secs

     total energy              =  -21687.62225090 Ry
     estimated scf accuracy    <       0.00633565 Ry

     iteration #143     ecut=    50.00 Ry     beta= 0.10
     Davidson diagonalization with overlap
     c_bands:  1 eigenvalues not converged
     c_bands:  1 eigenvalues not converged
     ethr =  3.90E-07,  avg # of iterations =  9.2

     negative rho (up, down):  6.232E-01 0.000E+00

     total cpu time spent up to now is     4709.0 secs

     total energy              =  -21687.63375932 Ry
     estimated scf accuracy    <       0.02106255 Ry

     iteration #144     ecut=    50.00 Ry     beta= 0.10
     Davidson diagonalization with overlap
     c_bands:  1 eigenvalues not converged
     c_bands:  1 eigenvalues not converged
     c_bands:  1 eigenvalues not converged
     c_bands:  1 eigenvalues not converged
     ethr =  3.90E-07,  avg # of iterations = 12.1

     negative rho (up, down):  6.270E-01 0.000E+00

     total cpu time spent up to now is     4764.8 secs

     total energy              =  -21687.64158496 Ry
     estimated scf accuracy    <       0.07687479 Ry

     iteration #145     ecut=    50.00 Ry     beta= 0.10
     Davidson diagonalization with overlap
     ethr =  3.90E-07,  avg # of iterations =  5.1

     negative rho (up, down):  6.060E-01 0.000E+00

     total cpu time spent up to now is     4794.6 secs

     total energy              =  -21687.62818525 Ry
     estimated scf accuracy    <       0.08664465 Ry

     iteration #146     ecut=    50.00 Ry     beta= 0.10
     Davidson diagonalization with overlap
     c_bands:  1 eigenvalues not converged
     ethr =  3.90E-07,  avg # of iterations =  9.1

     negative rho (up, down):  5.512E-01 0.000E+00

     total cpu time spent up to now is     4836.3 secs

     total energy              =  -21687.60993631 Ry
     estimated scf accuracy    <       0.04330674 Ry

     iteration #147     ecut=    50.00 Ry     beta= 0.10
     Davidson diagonalization with overlap
     c_bands:  1 eigenvalues not converged
     c_bands:  1 eigenvalues not converged
     c_bands:  1 eigenvalues not converged
     c_bands:  1 eigenvalues not converged
     c_bands:  1 eigenvalues not converged
     ethr =  3.90E-07,  avg # of iterations = 11.9

     negative rho (up, down):  5.051E-01 0.000E+00

     total cpu time spent up to now is     4892.5 secs

     total energy              =  -21687.61517313 Ry
     estimated scf accuracy    <       0.00482380 Ry

     iteration #148     ecut=    50.00 Ry     beta= 0.10
     Davidson diagonalization with overlap
     c_bands:  1 eigenvalues not converged
     ethr =  3.90E-07,  avg # of iterations =  8.1

     negative rho (up, down):  4.471E-01 0.000E+00

     total cpu time spent up to now is     4933.8 secs

     total energy              =  -21687.61563121 Ry
     estimated scf accuracy    <       0.00150268 Ry

     iteration #149     ecut=    50.00 Ry     beta= 0.10
     Davidson diagonalization with overlap
     c_bands:  1 eigenvalues not converged
     ethr =  3.90E-07,  avg # of iterations =  6.1

     negative rho (up, down):  4.316E-01 0.000E+00

     total cpu time spent up to now is     4967.3 secs

     total energy              =  -21687.61579310 Ry
     estimated scf accuracy    <       0.00304713 Ry

     iteration #150     ecut=    50.00 Ry     beta= 0.10
     Davidson diagonalization with overlap
     ethr =  3.90E-07,  avg # of iterations =  1.5

     negative rho (up, down):  4.083E-01 0.000E+00

     total cpu time spent up to now is     4993.9 secs

     total energy              =  -21687.61585718 Ry
     estimated scf accuracy    <       0.00425473 Ry

     iteration #151     ecut=    50.00 Ry     beta= 0.10
     Davidson diagonalization with overlap
     ethr =  3.90E-07,  avg # of iterations =  1.9

     negative rho (up, down):  3.458E-01 0.000E+00

     total cpu time spent up to now is     5021.8 secs

     total energy              =  -21687.61614733 Ry
     estimated scf accuracy    <       0.00660302 Ry

     iteration #152     ecut=    50.00 Ry     beta= 0.10
     Davidson diagonalization with overlap
     ethr =  3.90E-07,  avg # of iterations =  5.7

     negative rho (up, down):  4.388E-01 0.000E+00

     total cpu time spent up to now is     5054.7 secs

     total energy              =  -21687.61569243 Ry
     estimated scf accuracy    <       0.01580187 Ry

     iteration #153     ecut=    50.00 Ry     beta= 0.10
     Davidson diagonalization with overlap
     ethr =  3.90E-07,  avg # of iterations =  4.9

     negative rho (up, down):  5.244E-01 0.000E+00

     total cpu time spent up to now is     5085.7 secs

     total energy              =  -21687.61628969 Ry
     estimated scf accuracy    <       0.00362112 Ry

     iteration #154     ecut=    50.00 Ry     beta= 0.10
     Davidson diagonalization with overlap
     ethr =  3.90E-07,  avg # of iterations =  7.3

     negative rho (up, down):  5.702E-01 0.000E+00

     total cpu time spent up to now is     5124.9 secs

     total energy              =  -21687.61829587 Ry
     estimated scf accuracy    <       0.00185719 Ry

     iteration #155     ecut=    50.00 Ry     beta= 0.10
     Davidson diagonalization with overlap
     ethr =  3.90E-07,  avg # of iterations =  9.1

     negative rho (up, down):  5.213E-01 0.000E+00

     total cpu time spent up to now is     5169.5 secs

     total energy              =  -21687.61427322 Ry
     estimated scf accuracy    <       0.01023109 Ry

     iteration #156     ecut=    50.00 Ry     beta= 0.10
     Davidson diagonalization with overlap
     c_bands:  1 eigenvalues not converged
     ethr =  3.90E-07,  avg # of iterations =  8.6

     negative rho (up, down):  4.666E-01 0.000E+00

     total cpu time spent up to now is     5210.2 secs

     total energy              =  -21687.61552766 Ry
     estimated scf accuracy    <       0.00183955 Ry

     iteration #157     ecut=    50.00 Ry     beta= 0.10
     Davidson diagonalization with overlap
     ethr =  3.90E-07,  avg # of iterations =  6.8

     negative rho (up, down):  4.257E-01 0.000E+00

     total cpu time spent up to now is     5243.2 secs

     total energy              =  -21687.61577614 Ry
     estimated scf accuracy    <       0.00205297 Ry

     iteration #158     ecut=    50.00 Ry     beta= 0.10
     Davidson diagonalization with overlap
     ethr =  3.90E-07,  avg # of iterations =  2.5

     negative rho (up, down):  3.815E-01 0.000E+00

     total cpu time spent up to now is     5269.9 secs

     total energy              =  -21687.61596801 Ry
     estimated scf accuracy    <       0.00492299 Ry

     iteration #159     ecut=    50.00 Ry     beta= 0.10
     Davidson diagonalization with overlap
     ethr =  3.90E-07,  avg # of iterations =  4.3

     negative rho (up, down):  3.820E-01 0.000E+00

     total cpu time spent up to now is     5298.2 secs

     total energy              =  -21687.61601106 Ry
     estimated scf accuracy    <       0.01014779 Ry

     iteration #160     ecut=    50.00 Ry     beta= 0.10
     Davidson diagonalization with overlap
     ethr =  3.90E-07,  avg # of iterations =  1.0

     negative rho (up, down):  3.676E-01 0.000E+00

     total cpu time spent up to now is     5321.1 secs

     total energy              =  -21687.61610231 Ry
     estimated scf accuracy    <       0.01006671 Ry

     iteration #161     ecut=    50.00 Ry     beta= 0.10
     Davidson diagonalization with overlap
     ethr =  3.90E-07,  avg # of iterations =  1.3

     negative rho (up, down):  4.366E-01 0.000E+00

     total cpu time spent up to now is     5344.7 secs

     total energy              =  -21687.61575171 Ry
     estimated scf accuracy    <       0.01219084 Ry

     iteration #162     ecut=    50.00 Ry     beta= 0.10
     Davidson diagonalization with overlap
     ethr =  3.90E-07,  avg # of iterations =  3.3

     negative rho (up, down):  4.375E-01 0.000E+00

     total cpu time spent up to now is     5371.7 secs

     total energy              =  -21687.61580450 Ry
     estimated scf accuracy    <       0.00391042 Ry

     iteration #163     ecut=    50.00 Ry     beta= 0.10
     Davidson diagonalization with overlap
     ethr =  3.90E-07,  avg # of iterations =  1.0

     negative rho (up, down):  5.008E-01 0.000E+00

     total cpu time spent up to now is     5394.7 secs

     total energy              =  -21687.61614808 Ry
     estimated scf accuracy    <       0.00380964 Ry

     iteration #164     ecut=    50.00 Ry     beta= 0.10
     Davidson diagonalization with overlap
     ethr =  3.90E-07,  avg # of iterations =  5.6

     negative rho (up, down):  5.551E-01 0.000E+00

     total cpu time spent up to now is     5424.6 secs

     total energy              =  -21687.61707615 Ry
     estimated scf accuracy    <       0.00137477 Ry

     iteration #165     ecut=    50.00 Ry     beta= 0.10
     Davidson diagonalization with overlap
     ethr =  3.90E-07,  avg # of iterations =  8.3

     negative rho (up, down):  5.408E-01 0.000E+00

     total cpu time spent up to now is     5464.0 secs

     total energy              =  -21687.61737703 Ry
     estimated scf accuracy    <       0.00544156 Ry

     iteration #166     ecut=    50.00 Ry     beta= 0.10
     Davidson diagonalization with overlap
     ethr =  3.90E-07,  avg # of iterations =  5.5

     negative rho (up, down):  5.175E-01 0.000E+00

     total cpu time spent up to now is     5493.2 secs

     total energy              =  -21687.61634255 Ry
     estimated scf accuracy    <       0.00324089 Ry

     iteration #167     ecut=    50.00 Ry     beta= 0.10
     Davidson diagonalization with overlap
     ethr =  3.90E-07,  avg # of iterations =  6.3

     negative rho (up, down):  4.662E-01 0.000E+00

     total cpu time spent up to now is     5524.2 secs

     total energy              =  -21687.61560719 Ry
     estimated scf accuracy    <       0.00170134 Ry

     iteration #168     ecut=    50.00 Ry     beta= 0.10
     Davidson diagonalization with overlap
     ethr =  3.90E-07,  avg # of iterations =  6.7

     negative rho (up, down):  4.447E-01 0.000E+00

     total cpu time spent up to now is     5556.0 secs

     total energy              =  -21687.61579510 Ry
     estimated scf accuracy    <       0.00206265 Ry

     iteration #169     ecut=    50.00 Ry     beta= 0.10
     Davidson diagonalization with overlap
     ethr =  3.90E-07,  avg # of iterations =  1.6

     negative rho (up, down):  4.420E-01 0.000E+00

     total cpu time spent up to now is     5580.7 secs

     total energy              =  -21687.61580364 Ry
     estimated scf accuracy    <       0.00332530 Ry

     iteration #170     ecut=    50.00 Ry     beta= 0.10
     Davidson diagonalization with overlap
     ethr =  3.90E-07,  avg # of iterations =  1.0

     negative rho (up, down):  3.939E-01 0.000E+00

     total cpu time spent up to now is     5603.6 secs

     total energy              =  -21687.61589059 Ry
     estimated scf accuracy    <       0.00350003 Ry

     iteration #171     ecut=    50.00 Ry     beta= 0.10
     Davidson diagonalization with overlap
     ethr =  3.90E-07,  avg # of iterations =  3.6

     negative rho (up, down):  4.563E-01 0.000E+00

     total cpu time spent up to now is     5630.4 secs

     total energy              =  -21687.61581352 Ry
     estimated scf accuracy    <       0.00840886 Ry

     iteration #172     ecut=    50.00 Ry     beta= 0.10
     Davidson diagonalization with overlap
     ethr =  3.90E-07,  avg # of iterations =  2.7

     negative rho (up, down):  4.426E-01 0.000E+00

     total cpu time spent up to now is     5656.0 secs

     total energy              =  -21687.61581157 Ry
     estimated scf accuracy    <       0.00247917 Ry

     iteration #173     ecut=    50.00 Ry     beta= 0.10
     Davidson diagonalization with overlap
     ethr =  3.90E-07,  avg # of iterations =  1.0

     negative rho (up, down):  4.511E-01 0.000E+00

     total cpu time spent up to now is     5678.7 secs

     total energy              =  -21687.61583487 Ry
     estimated scf accuracy    <       0.00340915 Ry

     iteration #174     ecut=    50.00 Ry     beta= 0.10
     Davidson diagonalization with overlap
     ethr =  3.90E-07,  avg # of iterations =  1.0

     negative rho (up, down):  5.019E-01 0.000E+00

     total cpu time spent up to now is     5701.6 secs

     total energy              =  -21687.61619135 Ry
     estimated scf accuracy    <       0.00277854 Ry

     iteration #175     ecut=    50.00 Ry     beta= 0.10
     Davidson diagonalization with overlap
     ethr =  3.90E-07,  avg # of iterations =  5.2

     negative rho (up, down):  5.398E-01 0.000E+00

     total cpu time spent up to now is     5731.0 secs

     total energy              =  -21687.61695633 Ry
     estimated scf accuracy    <       0.00136927 Ry

     iteration #176     ecut=    50.00 Ry     beta= 0.10
     Davidson diagonalization with overlap
     ethr =  3.90E-07,  avg # of iterations =  6.8

     negative rho (up, down):  5.357E-01 0.000E+00

     total cpu time spent up to now is     5764.8 secs

     total energy              =  -21687.61730342 Ry
     estimated scf accuracy    <       0.00298225 Ry

     iteration #177     ecut=    50.00 Ry     beta= 0.10
     Davidson diagonalization with overlap
     ethr =  3.90E-07,  avg # of iterations =  1.8

     negative rho (up, down):  5.371E-01 0.000E+00

     total cpu time spent up to now is     5789.6 secs

     total energy              =  -21687.61738681 Ry
     estimated scf accuracy    <       0.00280528 Ry

     iteration #178     ecut=    50.00 Ry     beta= 0.10
     Davidson diagonalization with overlap
     ethr =  3.90E-07,  avg # of iterations =  1.0

     negative rho (up, down):  5.513E-01 0.000E+00

     total cpu time spent up to now is     5812.8 secs

     total energy              =  -21687.61813136 Ry
     estimated scf accuracy    <       0.00277064 Ry

     iteration #179     ecut=    50.00 Ry     beta= 0.10
     Davidson diagonalization with overlap
     ethr =  3.90E-07,  avg # of iterations =  6.0

     negative rho (up, down):  5.627E-01 0.000E+00

     total cpu time spent up to now is     5843.9 secs

     total energy              =  -21687.61928273 Ry
     estimated scf accuracy    <       0.00463027 Ry

     iteration #180     ecut=    50.00 Ry     beta= 0.10
     Davidson diagonalization with overlap
     ethr =  3.90E-07,  avg # of iterations =  6.0

     negative rho (up, down):  4.244E-01 0.000E+00

     total cpu time spent up to now is     5874.5 secs

     total energy              =  -21687.61210270 Ry
     estimated scf accuracy    <       0.00740031 Ry

     iteration #181     ecut=    50.00 Ry     beta= 0.10
     Davidson diagonalization with overlap
     ethr =  3.90E-07,  avg # of iterations =  9.4

     negative rho (up, down):  3.369E-01 0.000E+00

     total cpu time spent up to now is     5918.2 secs

[...]

     total cpu time spent up to now is    14981.7 secs

     total energy              =  -21687.59502070 Ry
     estimated scf accuracy    <       0.05172310 Ry

     iteration #455     ecut=    50.00 Ry     beta= 0.10
     Davidson diagonalization with overlap
     c_bands:  1 eigenvalues not converged
     c_bands:  1 eigenvalues not converged
     c_bands:  1 eigenvalues not converged
     c_bands:  1 eigenvalues not converged
     c_bands:  1 eigenvalues not converged
     c_bands:  1 eigenvalues not converged
     ethr =  3.90E-07,  avg # of iterations = 13.5

     negative rho (up, down):  4.644E-01 0.000E+00

     total cpu time spent up to now is    15041.3 secs

     total energy              =  -21687.61586883 Ry
     estimated scf accuracy    <       0.00154324 Ry

     iteration #456     ecut=    50.00 Ry     beta= 0.10
     Davidson diagonalization with overlap
     c_bands:  1 eigenvalues not converged
     ethr =  3.90E-07,  avg # of iterations =  3.9

     negative rho (up, down):  4.752E-01 0.000E+00

     total cpu time spent up to now is    15068.6 secs

     total energy              =  -21687.61597852 Ry
     estimated scf accuracy    <       0.00223989 Ry

     iteration #457     ecut=    50.00 Ry     beta= 0.10
     Davidson diagonalization with overlap
     ethr =  3.90E-07,  avg # of iterations =  1.1

     negative rho (up, down):  4.795E-01 0.000E+00

     total cpu time spent up to now is    15092.7 secs

     total energy              =  -21687.61602458 Ry
     estimated scf accuracy    <       0.00170507 Ry

     iteration #458     ecut=    50.00 Ry     beta= 0.10
     Davidson diagonalization with overlap
     ethr =  3.90E-07,  avg # of iterations =  1.0

     negative rho (up, down):  4.752E-01 0.000E+00

     total cpu time spent up to now is    15116.2 secs

     total energy              =  -21687.61598851 Ry
     estimated scf accuracy    <       0.00152845 Ry

     iteration #459     ecut=    50.00 Ry     beta= 0.10
     Davidson diagonalization with overlap
     ethr =  3.90E-07,  avg # of iterations =  1.0

     negative rho (up, down):  4.781E-01 0.000E+00

     total cpu time spent up to now is    15140.0 secs

     total energy              =  -21687.61601929 Ry
     estimated scf accuracy    <       0.00172027 Ry

     iteration #460     ecut=    50.00 Ry     beta= 0.10
     Davidson diagonalization with overlap
     ethr =  3.90E-07,  avg # of iterations =  1.0

     negative rho (up, down):  4.565E-01 0.000E+00

     total cpu time spent up to now is    15164.1 secs

     total energy              =  -21687.61586351 Ry
     estimated scf accuracy    <       0.00161746 Ry

     iteration #461     ecut=    50.00 Ry     beta= 0.10
     Davidson diagonalization with overlap
     ethr =  3.90E-07,  avg # of iterations =  1.5

     negative rho (up, down):  4.683E-01 0.000E+00

     total cpu time spent up to now is    15189.5 secs

     total energy              =  -21687.61593887 Ry
     estimated scf accuracy    <       0.00263043 Ry

     iteration #462     ecut=    50.00 Ry     beta= 0.10
     Davidson diagonalization with overlap
     ethr =  3.90E-07,  avg # of iterations =  1.0

     negative rho (up, down):  5.094E-01 0.000E+00

     total cpu time spent up to now is    15213.3 secs

     total energy              =  -21687.61632658 Ry
     estimated scf accuracy    <       0.00196520 Ry

     iteration #463     ecut=    50.00 Ry     beta= 0.10
     Davidson diagonalization with overlap
     ethr =  3.90E-07,  avg # of iterations =  5.1

     negative rho (up, down):  5.787E-01 0.000E+00

     total cpu time spent up to now is    15244.2 secs

     total energy              =  -21687.61744505 Ry
     estimated scf accuracy    <       0.00141637 Ry

     iteration #464     ecut=    50.00 Ry     beta= 0.10
     Davidson diagonalization with overlap
     c_bands:  1 eigenvalues not converged
     ethr =  3.90E-07,  avg # of iterations = 10.2

     negative rho (up, down):  4.416E-01 0.000E+00

     total cpu time spent up to now is    15294.6 secs

     total energy              =  -21687.60870807 Ry
     estimated scf accuracy    <       0.01447128 Ry

     iteration #465     ecut=    50.00 Ry     beta= 0.10
     Davidson diagonalization with overlap
     c_bands:  1 eigenvalues not converged
     ethr =  3.90E-07,  avg # of iterations = 10.5

     negative rho (up, down):  4.293E-01 0.000E+00

     total cpu time spent up to now is    15346.1 secs

     total energy              =  -21687.61582144 Ry
     estimated scf accuracy    <       0.00342863 Ry

     iteration #466     ecut=    50.00 Ry     beta= 0.10
     Davidson diagonalization with overlap
     ethr =  3.90E-07,  avg # of iterations =  1.3

     negative rho (up, down):  4.565E-01 0.000E+00

     total cpu time spent up to now is    15370.5 secs

     total energy              =  -21687.61586426 Ry
     estimated scf accuracy    <       0.00441636 Ry

     iteration #467     ecut=    50.00 Ry     beta= 0.10
     Davidson diagonalization with overlap
     ethr =  3.90E-07,  avg # of iterations =  1.4

     negative rho (up, down):  4.692E-01 0.000E+00

     total cpu time spent up to now is    15395.0 secs

     total energy              =  -21687.61593841 Ry
     estimated scf accuracy    <       0.00237593 Ry

     iteration #468     ecut=    50.00 Ry     beta= 0.10
     Davidson diagonalization with overlap
     ethr =  3.90E-07,  avg # of iterations =  1.4

     negative rho (up, down):  4.618E-01 0.000E+00

     total cpu time spent up to now is    15420.5 secs

     total energy              =  -21687.61590066 Ry
     estimated scf accuracy    <       0.00176674 Ry

     iteration #469     ecut=    50.00 Ry     beta= 0.10
     Davidson diagonalization with overlap
     ethr =  3.90E-07,  avg # of iterations =  1.0

     negative rho (up, down):  4.658E-01 0.000E+00

     total cpu time spent up to now is    15444.5 secs

     total energy              =  -21687.61592484 Ry
     estimated scf accuracy    <       0.00214678 Ry

     iteration #470     ecut=    50.00 Ry     beta= 0.10
     Davidson diagonalization with overlap
     ethr =  3.90E-07,  avg # of iterations =  1.0

     negative rho (up, down):  4.690E-01 0.000E+00

     total cpu time spent up to now is    15468.7 secs

     total energy              =  -21687.61594665 Ry
     estimated scf accuracy    <       0.00194976 Ry

     iteration #471     ecut=    50.00 Ry     beta= 0.10
     Davidson diagonalization with overlap
     ethr =  3.90E-07,  avg # of iterations =  1.0

     negative rho (up, down):  4.777E-01 0.000E+00

     total cpu time spent up to now is    15493.0 secs

     total energy              =  -21687.61601277 Ry
     estimated scf accuracy    <       0.00179971 Ry

     iteration #472     ecut=    50.00 Ry     beta= 0.10
     Davidson diagonalization with overlap
     ethr =  3.90E-07,  avg # of iterations =  1.2

     negative rho (up, down):  4.767E-01 0.000E+00

     total cpu time spent up to now is    15517.6 secs

     total energy              =  -21687.61600833 Ry
     estimated scf accuracy    <       0.00146467 Ry

     iteration #473     ecut=    50.00 Ry     beta= 0.10
     Davidson diagonalization with overlap
     ethr =  3.90E-07,  avg # of iterations =  1.0

     negative rho (up, down):  5.408E-01 0.000E+00

     total cpu time spent up to now is    15541.8 secs

     total energy              =  -21687.61651483 Ry
     estimated scf accuracy    <       0.00152384 Ry

     iteration #474     ecut=    50.00 Ry     beta= 0.10
     Davidson diagonalization with overlap
     c_bands:  1 eigenvalues not converged
     ethr =  3.90E-07,  avg # of iterations =  7.3

     negative rho (up, down):  5.455E-01 0.000E+00

     total cpu time spent up to now is    15580.5 secs

     total energy              =  -21687.61786306 Ry
     estimated scf accuracy    <       0.00303649 Ry

     iteration #475     ecut=    50.00 Ry     beta= 0.10
     Davidson diagonalization with overlap
     ethr =  3.90E-07,  avg # of iterations =  2.2

     negative rho (up, down):  4.700E-01 0.000E+00

     total cpu time spent up to now is    15606.9 secs

     total energy              =  -21687.61464629 Ry
     estimated scf accuracy    <       0.00343141 Ry

     iteration #476     ecut=    50.00 Ry     beta= 0.10
     Davidson diagonalization with overlap
     c_bands:  1 eigenvalues not converged
     ethr =  3.90E-07,  avg # of iterations =  7.5

     negative rho (up, down):  4.565E-01 0.000E+00

     total cpu time spent up to now is    15645.9 secs

     total energy              =  -21687.61587369 Ry
     estimated scf accuracy    <       0.00200824 Ry

     iteration #477     ecut=    50.00 Ry     beta= 0.10
     Davidson diagonalization with overlap
     ethr =  3.90E-07,  avg # of iterations =  1.3

     negative rho (up, down):  4.807E-01 0.000E+00

     total cpu time spent up to now is    15671.0 secs

     total energy              =  -21687.61603218 Ry
     estimated scf accuracy    <       0.00268633 Ry

     iteration #478     ecut=    50.00 Ry     beta= 0.10
     Davidson diagonalization with overlap
     ethr =  3.90E-07,  avg # of iterations =  1.5

     negative rho (up, down):  4.629E-01 0.000E+00

     total cpu time spent up to now is    15696.5 secs

     total energy              =  -21687.61590123 Ry
     estimated scf accuracy    <       0.00147554 Ry

     iteration #479     ecut=    50.00 Ry     beta= 0.10
     Davidson diagonalization with overlap
     ethr =  3.90E-07,  avg # of iterations =  1.3

     negative rho (up, down):  4.778E-01 0.000E+00

     total cpu time spent up to now is    15721.1 secs

     total energy              =  -21687.61601575 Ry
     estimated scf accuracy    <       0.00232071 Ry

     iteration #480     ecut=    50.00 Ry     beta= 0.10
     Davidson diagonalization with overlap
     ethr =  3.90E-07,  avg # of iterations =  1.0

     negative rho (up, down):  5.250E-01 0.000E+00

     total cpu time spent up to now is    15745.2 secs

     total energy              =  -21687.61649535 Ry
     estimated scf accuracy    <       0.00158260 Ry

     iteration #481     ecut=    50.00 Ry     beta= 0.10
     Davidson diagonalization with overlap
     ethr =  3.90E-07,  avg # of iterations =  6.4

     negative rho (up, down):  5.332E-01 0.000E+00

     total cpu time spent up to now is    15779.8 secs

     total energy              =  -21687.61716990 Ry
     estimated scf accuracy    <       0.00189016 Ry

     iteration #482     ecut=    50.00 Ry     beta= 0.10
     Davidson diagonalization with overlap
     ethr =  3.90E-07,  avg # of iterations =  2.8

     negative rho (up, down):  5.386E-01 0.000E+00

     total cpu time spent up to now is    15807.2 secs

     total energy              =  -21687.61743174 Ry
     estimated scf accuracy    <       0.00216143 Ry

     iteration #483     ecut=    50.00 Ry     beta= 0.10
     Davidson diagonalization with overlap
     ethr =  3.90E-07,  avg # of iterations =  3.6

     negative rho (up, down):  4.759E-01 0.000E+00

     total cpu time spent up to now is    15835.2 secs

     total energy              =  -21687.61514850 Ry
     estimated scf accuracy    <       0.00268081 Ry

     iteration #484     ecut=    50.00 Ry     beta= 0.10
     Davidson diagonalization with overlap
     ethr =  3.90E-07,  avg # of iterations =  6.6

     negative rho (up, down):  4.566E-01 0.000E+00

     total cpu time spent up to now is    15871.4 secs

     total energy              =  -21687.61584774 Ry
     estimated scf accuracy    <       0.00175976 Ry

     iteration #485     ecut=    50.00 Ry     beta= 0.10
     Davidson diagonalization with overlap
     ethr =  3.90E-07,  avg # of iterations =  1.6

     negative rho (up, down):  4.565E-01 0.000E+00

     total cpu time spent up to now is    15897.0 secs

     total energy              =  -21687.61585997 Ry
     estimated scf accuracy    <       0.00265294 Ry

     iteration #486     ecut=    50.00 Ry     beta= 0.10
     Davidson diagonalization with overlap
     ethr =  3.90E-07,  avg # of iterations =  1.0

     negative rho (up, down):  4.625E-01 0.000E+00

     total cpu time spent up to now is    15921.2 secs

     total energy              =  -21687.61590113 Ry
     estimated scf accuracy    <       0.00263758 Ry

     iteration #487     ecut=    50.00 Ry     beta= 0.10
     Davidson diagonalization with overlap
     ethr =  3.90E-07,  avg # of iterations =  1.0

     negative rho (up, down):  4.722E-01 0.000E+00

     total cpu time spent up to now is    15944.7 secs

     total energy              =  -21687.61597008 Ry
     estimated scf accuracy    <       0.00227907 Ry

     iteration #488     ecut=    50.00 Ry     beta= 0.10
     Davidson diagonalization with overlap
     ethr =  3.90E-07,  avg # of iterations =  1.0

     negative rho (up, down):  4.615E-01 0.000E+00

     total cpu time spent up to now is    15969.0 secs

     total energy              =  -21687.61590750 Ry
     estimated scf accuracy    <       0.00179263 Ry

     iteration #489     ecut=    50.00 Ry     beta= 0.10
     Davidson diagonalization with overlap
     ethr =  3.90E-07,  avg # of iterations =  1.0

     negative rho (up, down):  4.713E-01 0.000E+00

     total cpu time spent up to now is    15993.0 secs

     total energy              =  -21687.61596564 Ry
     estimated scf accuracy    <       0.00234755 Ry

     iteration #490     ecut=    50.00 Ry     beta= 0.10
     Davidson diagonalization with overlap
     ethr =  3.90E-07,  avg # of iterations =  1.0

     negative rho (up, down):  4.427E-01 0.000E+00

     total cpu time spent up to now is    16017.5 secs

     total energy              =  -21687.61581339 Ry
     estimated scf accuracy    <       0.00182007 Ry

     iteration #491     ecut=    50.00 Ry     beta= 0.10
     Davidson diagonalization with overlap
     ethr =  3.90E-07,  avg # of iterations =  1.7

     negative rho (up, down):  4.271E-01 0.000E+00

     total cpu time spent up to now is    16043.6 secs

     total energy              =  -21687.61581860 Ry
     estimated scf accuracy    <       0.00342724 Ry

     iteration #492     ecut=    50.00 Ry     beta= 0.10
     Davidson diagonalization with overlap
     ethr =  3.90E-07,  avg # of iterations =  1.3

     negative rho (up, down):  5.474E-01 0.000E+00

     total cpu time spent up to now is    16068.7 secs

     total energy              =  -21687.61633951 Ry
     estimated scf accuracy    <       0.00472186 Ry

     iteration #493     ecut=    50.00 Ry     beta= 0.10
     Davidson diagonalization with overlap
     c_bands:  1 eigenvalues not converged
     ethr =  3.90E-07,  avg # of iterations =  8.9

     negative rho (up, down):  5.693E-01 0.000E+00

     total cpu time spent up to now is    16113.7 secs

     total energy              =  -21687.61964927 Ry
     estimated scf accuracy    <       0.00396852 Ry

     iteration #494     ecut=    50.00 Ry     beta= 0.10
     Davidson diagonalization with overlap
     ethr =  3.90E-07,  avg # of iterations =  7.3

     negative rho (up, down):  5.554E-01 0.000E+00

     total cpu time spent up to now is    16151.6 secs

     total energy              =  -21687.61837871 Ry
     estimated scf accuracy    <       0.00975348 Ry

     iteration #495     ecut=    50.00 Ry     beta= 0.10
     Davidson diagonalization with overlap
     ethr =  3.90E-07,  avg # of iterations =  5.9

     negative rho (up, down):  3.735E-01 0.000E+00

     total cpu time spent up to now is    16184.4 secs

     total energy              =  -21687.61336753 Ry
     estimated scf accuracy    <       0.00563382 Ry

     iteration #496     ecut=    50.00 Ry     beta= 0.10
     Davidson diagonalization with overlap
     ethr =  3.90E-07,  avg # of iterations =  9.9

     negative rho (up, down):  3.800E-01 0.000E+00

     total cpu time spent up to now is    16233.1 secs

     total energy              =  -21687.61606537 Ry
     estimated scf accuracy    <       0.01150043 Ry

     iteration #497     ecut=    50.00 Ry     beta= 0.10
     Davidson diagonalization with overlap
     ethr =  3.90E-07,  avg # of iterations =  1.0

     negative rho (up, down):  3.941E-01 0.000E+00

     total cpu time spent up to now is    16255.9 secs

     total energy              =  -21687.61597583 Ry
     estimated scf accuracy    <       0.01050543 Ry

     iteration #498     ecut=    50.00 Ry     beta= 0.10
     Davidson diagonalization with overlap
     ethr =  3.90E-07,  avg # of iterations =  1.3

     negative rho (up, down):  4.427E-01 0.000E+00

     total cpu time spent up to now is    16280.0 secs

     total energy              =  -21687.61579389 Ry
     estimated scf accuracy    <       0.00850506 Ry

     iteration #499     ecut=    50.00 Ry     beta= 0.10
     Davidson diagonalization with overlap
     ethr =  3.90E-07,  avg # of iterations =  3.4

     negative rho (up, down):  4.878E-01 0.000E+00

     total cpu time spent up to now is    16307.1 secs

     total energy              =  -21687.61605370 Ry
     estimated scf accuracy    <       0.00342776 Ry

     iteration #500     ecut=    50.00 Ry     beta= 0.10
     Davidson diagonalization with overlap
     ethr =  3.90E-07,  avg # of iterations =  4.9

     negative rho (up, down):  4.847E-01 0.000E+00

     total cpu time spent up to now is    16335.5 secs

     total energy              =  -21687.61608183 Ry
     estimated scf accuracy    <       0.00146760 Ry

     End of self-consistent calculation

     convergence NOT achieved after 500 iterations: stopping

     Writing config to output data dir ./pwscf.save/
 
     init_run     :     12.30s CPU     12.86s WALL (       1 calls)
     electrons    :  16047.11s CPU  16322.61s WALL (       1 calls)

     Called by init_run:
     wfcinit      :     11.80s CPU     12.16s WALL (       1 calls)
     potinit      :      0.28s CPU      0.36s WALL (       1 calls)
     hinit0       :      0.08s CPU      0.16s WALL (       1 calls)

     Called by electrons:
     c_bands      :  14465.55s CPU  14721.52s WALL (     500 calls)
     sum_band     :   1454.29s CPU   1469.60s WALL (     500 calls)
     v_of_rho     :      5.49s CPU      6.14s WALL (     501 calls)
     newd         :     13.20s CPU     15.40s WALL (     501 calls)
     PAW_pot      :    106.77s CPU    107.43s WALL (     501 calls)
     mix_rho      :      1.71s CPU      1.84s WALL (     500 calls)

     Called by c_bands:
     init_us_2    :     43.41s CPU     44.38s WALL (   35035 calls)
     init_us_2:cp :     43.29s CPU     44.32s WALL (   35035 calls)
     cegterg      :  13876.27s CPU  14125.59s WALL (   17502 calls)

     Called by *egterg:
     cdiaghg      :   2495.17s CPU   2567.40s WALL (  103018 calls)
     h_psi        :   6887.78s CPU   6979.02s WALL (  103053 calls)
     s_psi        :   1128.50s CPU   1134.71s WALL (  103053 calls)
     g_psi        :     19.54s CPU     19.71s WALL (   85516 calls)

     Called by h_psi:
     h_psi:calbec :   1265.36s CPU   1272.88s WALL (  103053 calls)
     vloc_psi     :   4491.90s CPU   4562.37s WALL (  103053 calls)
     add_vuspsi   :   1116.49s CPU   1123.44s WALL (  103053 calls)

     General routines
     calbec       :   1762.63s CPU   1772.70s WALL (  120553 calls)
     fft          :      4.64s CPU      5.42s WALL (    5512 calls)
     ffts         :      0.44s CPU      0.52s WALL (     500 calls)
     fftw         :   5116.32s CPU   5191.81s WALL (18493986 calls)
     davcio       :      0.00s CPU      0.29s WALL (      18 calls)
 
     Parallel routines
 
     PWSCF        :      4h27m CPU      4h32m WALL

 
   This run was terminated on:  12: 0:12  22Mar2024            

=------------------------------------------------------------------------------=
   JOB DONE.
=------------------------------------------------------------------------------=
