MPI startup(): Warning: I_MPI_PMI_LIBRARY will be ignored since the hydra process manager was found
MPI startup(): Warning: I_MPI_PMI_LIBRARY will be ignored since the hydra process manager was found
MPI startup(): Warning: I_MPI_PMI_LIBRARY will be ignored since the hydra process manager was found
MPI startup(): Warning: I_MPI_PMI_LIBRARY will be ignored since the hydra process manager was found
MPI startup(): Warning: I_MPI_PMI_LIBRARY will be ignored since the hydra process manager was found
MPI startup(): Warning: I_MPI_PMI_LIBRARY will be ignored since the hydra process manager was found
MPI startup(): Warning: I_MPI_PMI_LIBRARY will be ignored since the hydra process manager was found
MPI startup(): Warning: I_MPI_PMI_LIBRARY will be ignored since the hydra process manager was found
MPI startup(): Warning: I_MPI_PMI_LIBRARY will be ignored since the hydra process manager was found
MPI startup(): Warning: I_MPI_PMI_LIBRARY will be ignored since the hydra process manager was found

     Program PWSCF v.7.0 starts on  9Mar2024 at  9:22:45 

     This program is part of the open-source Quantum ESPRESSO suite
     for quantum simulation of materials; please cite
         "P. Giannozzi et al., J. Phys.:Condens. Matter 21 395502 (2009);
         "P. Giannozzi et al., J. Phys.:Condens. Matter 29 465901 (2017);
         "P. Giannozzi et al., J. Chem. Phys. 152 154105 (2020);
          URL http://www.quantum-espresso.org", 
     in publications or presentations arising from this work. More details at
     http://www.quantum-espresso.org/quote

     Parallel version (MPI), running on    10 processors

     MPI processes distributed on     1 nodes
     R & G space division:  proc/nbgrp/npool/nimage =      10
     70881 MiB available memory on the printing compute node when the environment starts
 
     Reading input from GSF110R_0.15.in
Warning: card &CELL ignored
Warning: card / ignored

     Current dimensions of program PWSCF are:
     Max number of different atomic species (ntypx) = 10
     Max number of k-points (npk) =  40000
     Max angular momentum in pseudopotentials (lmaxx) =  4
     file Au.pbe-n-kjpaw_psl.1.0.0.UPF: wavefunction(s)  6S 5D renormalized
     Found identity + (  0.0000 -0.5000  0.0000) symmetry
     This is a supercell, fractional translations are disabled

     Subspace diagonalization in iterative solution of the eigenvalue problem:
     one sub-group per band group will be used
     scalapack distributed-memory algorithm (size of sub-group:  3*  3 procs)

 
     Parallelization info
     --------------------
     sticks:   dense  smooth     PW     G-vecs:    dense   smooth      PW
     Min         200     133     38                26142    14227    2178
     Max         201     134     39                26149    14242    2183
     Sum        2007    1339    389               261457   142317   21821
 
     Using Slab Decomposition
 


     bravais-lattice index     =            0
     lattice parameter (alat)  =       7.7101  a.u.
     unit-cell volume          =    2979.1368 (a.u.)^3
     number of atoms/cell      =           28
     number of atomic types    =            1
     number of electrons       =       308.00
     number of Kohn-Sham states=          185
     kinetic-energy cutoff     =      50.0000  Ry
     charge density cutoff     =     300.0000  Ry
     scf convergence threshold =      1.0E-06
     mixing beta               =       0.0080
     number of iterations used =            8  plain     mixing
     energy convergence thresh.=      1.0E-04
     force convergence thresh. =      1.0E-03
     Exchange-correlation= SLA  PW   PBX  PBC
                           (   1   4   3   4   0   0   0)
     nstep                     =           50


     celldm(1)=   7.710083  celldm(2)=   0.000000  celldm(3)=   0.000000
     celldm(4)=   0.000000  celldm(5)=   0.000000  celldm(6)=   0.000000

     crystal axes: (cart. coord. in units of alat)
               a(1) = (   1.000000   0.000000   0.000000 )  
               a(2) = (   0.000000   1.414214   0.000000 )  
               a(3) = (   0.000000   0.000000   4.596194 )  

     reciprocal axes: (cart. coord. in units 2 pi/alat)
               b(1) = (  1.000000  0.000000  0.000000 )  
               b(2) = (  0.000000  0.707107  0.000000 )  
               b(3) = (  0.000000  0.000000  0.217571 )  


     PseudoPot. # 1 for Au read from file:
     ./Au.pbe-n-kjpaw_psl.1.0.0.UPF
     MD5 check sum: 4db85c736373c707a97ce4c36c2a9d23
     Pseudo is Projector augmented-wave + core cor, Zval = 11.0
     Generated using &quot;atomic&quot; code by A. Dal Corso  v.6.3
     Shape of augmentation charge: PSQ
     Using radial grid of 1279 points,  6 beta functions with: 
                l(1) =   0
                l(2) =   0
                l(3) =   1
                l(4) =   1
                l(5) =   2
                l(6) =   2
     Q(r) pseudized with 0 coefficients 


     atomic species   valence    mass     pseudopotential
        Au            11.00   196.96657     Au( 1.00)

     No symmetry found



   Cartesian axes

     site n.     atom                  positions (alat units)
         1           Au  tau(   1) = (   0.5000000   0.3535534   0.0000000  )
         2           Au  tau(   2) = (   0.5000000   1.0606602   0.0000000  )
         3           Au  tau(   3) = (   0.0000000   0.0000000   0.3535534  )
         4           Au  tau(   4) = (   0.0000000   0.7071068   0.3535534  )
         5           Au  tau(   5) = (   0.5000000   0.3535534   0.7071068  )
         6           Au  tau(   6) = (   0.5000000   1.0606602   0.7071068  )
         7           Au  tau(   7) = (   0.0000000   0.0000000   1.0606602  )
         8           Au  tau(   8) = (   0.0000000   0.7071068   1.0606602  )
         9           Au  tau(   9) = (   0.5000000   0.3535534   1.4142136  )
        10           Au  tau(  10) = (   0.5000000   1.0606602   1.4142136  )
        11           Au  tau(  11) = (   0.0000000   0.0000000   1.7677670  )
        12           Au  tau(  12) = (   0.0000000   0.7071068   1.7677670  )
        13           Au  tau(  13) = (   0.5000000   0.3535534   2.1213203  )
        14           Au  tau(  14) = (   0.5000000   1.0606602   2.1213203  )
        15           Au  tau(  15) = (   0.0000000   0.0000000   2.4748737  )
        16           Au  tau(  16) = (   0.0000000   0.7071068   2.4748737  )
        17           Au  tau(  17) = (   0.6500000   0.3535534   2.8284271  )
        18           Au  tau(  18) = (   0.6500000   1.0606602   2.8284271  )
        19           Au  tau(  19) = (   0.1500000   0.0000000   3.1819805  )
        20           Au  tau(  20) = (   0.1500000   0.7071068   3.1819805  )
        21           Au  tau(  21) = (   0.6500000   0.3535534   3.5355339  )
        22           Au  tau(  22) = (   0.6500000   1.0606602   3.5355339  )
        23           Au  tau(  23) = (   0.1500000   0.0000000   3.8890873  )
        24           Au  tau(  24) = (   0.1500000   0.7071068   3.8890873  )
        25           Au  tau(  25) = (   0.6500000   0.3535534   4.2426407  )
        26           Au  tau(  26) = (   0.6500000   1.0606602   4.2426407  )
        27           Au  tau(  27) = (   0.1500000   0.0000000   4.5961941  )
        28           Au  tau(  28) = (   0.1500000   0.7071068   4.5961941  )

     number of k points=    50  Gaussian smearing, width (Ry)=  0.0080
                       cart. coord. in units 2pi/alat
        k(    1) = (   0.0000000   0.0000000   0.0000000), wk =   0.0208333
        k(    2) = (   0.0000000   0.0589256   0.0000000), wk =   0.0416667
        k(    3) = (   0.0000000   0.1178511   0.0000000), wk =   0.0416667
        k(    4) = (   0.0000000   0.1767767   0.0000000), wk =   0.0416667
        k(    5) = (   0.0000000   0.2357023   0.0000000), wk =   0.0416667
        k(    6) = (   0.0000000   0.2946278   0.0000000), wk =   0.0416667
        k(    7) = (   0.0000000  -0.3535534   0.0000000), wk =   0.0208333
        k(    8) = (   0.1250000   0.0000000   0.0000000), wk =   0.0416667
        k(    9) = (   0.1250000   0.0589256   0.0000000), wk =   0.0416667
        k(   10) = (   0.1250000   0.1178511   0.0000000), wk =   0.0416667
        k(   11) = (   0.1250000   0.1767767   0.0000000), wk =   0.0416667
        k(   12) = (   0.1250000   0.2357023   0.0000000), wk =   0.0416667
        k(   13) = (   0.1250000   0.2946278   0.0000000), wk =   0.0416667
        k(   14) = (   0.1250000  -0.3535534   0.0000000), wk =   0.0416667
        k(   15) = (   0.1250000  -0.2946278   0.0000000), wk =   0.0416667
        k(   16) = (   0.1250000  -0.2357023   0.0000000), wk =   0.0416667
        k(   17) = (   0.1250000  -0.1767767   0.0000000), wk =   0.0416667
        k(   18) = (   0.1250000  -0.1178511   0.0000000), wk =   0.0416667
        k(   19) = (   0.1250000  -0.0589256   0.0000000), wk =   0.0416667
        k(   20) = (   0.2500000   0.0000000   0.0000000), wk =   0.0416667
        k(   21) = (   0.2500000   0.0589256   0.0000000), wk =   0.0416667
        k(   22) = (   0.2500000   0.1178511   0.0000000), wk =   0.0416667
        k(   23) = (   0.2500000   0.1767767   0.0000000), wk =   0.0416667
        k(   24) = (   0.2500000   0.2357023   0.0000000), wk =   0.0416667
        k(   25) = (   0.2500000   0.2946278   0.0000000), wk =   0.0416667
        k(   26) = (   0.2500000  -0.3535534   0.0000000), wk =   0.0416667
        k(   27) = (   0.2500000  -0.2946278   0.0000000), wk =   0.0416667
        k(   28) = (   0.2500000  -0.2357023   0.0000000), wk =   0.0416667
        k(   29) = (   0.2500000  -0.1767767   0.0000000), wk =   0.0416667
        k(   30) = (   0.2500000  -0.1178511   0.0000000), wk =   0.0416667
        k(   31) = (   0.2500000  -0.0589256   0.0000000), wk =   0.0416667
        k(   32) = (   0.3750000   0.0000000   0.0000000), wk =   0.0416667
        k(   33) = (   0.3750000   0.0589256   0.0000000), wk =   0.0416667
        k(   34) = (   0.3750000   0.1178511   0.0000000), wk =   0.0416667
        k(   35) = (   0.3750000   0.1767767   0.0000000), wk =   0.0416667
        k(   36) = (   0.3750000   0.2357023   0.0000000), wk =   0.0416667
        k(   37) = (   0.3750000   0.2946278   0.0000000), wk =   0.0416667
        k(   38) = (   0.3750000  -0.3535534   0.0000000), wk =   0.0416667
        k(   39) = (   0.3750000  -0.2946278   0.0000000), wk =   0.0416667
        k(   40) = (   0.3750000  -0.2357023   0.0000000), wk =   0.0416667
        k(   41) = (   0.3750000  -0.1767767   0.0000000), wk =   0.0416667
        k(   42) = (   0.3750000  -0.1178511   0.0000000), wk =   0.0416667
        k(   43) = (   0.3750000  -0.0589256   0.0000000), wk =   0.0416667
        k(   44) = (  -0.5000000   0.0000000   0.0000000), wk =   0.0208333
        k(   45) = (  -0.5000000   0.0589256   0.0000000), wk =   0.0416667
        k(   46) = (  -0.5000000   0.1178511   0.0000000), wk =   0.0416667
        k(   47) = (  -0.5000000   0.1767767   0.0000000), wk =   0.0416667
        k(   48) = (  -0.5000000   0.2357023   0.0000000), wk =   0.0416667
        k(   49) = (  -0.5000000   0.2946278   0.0000000), wk =   0.0416667
        k(   50) = (  -0.5000000  -0.3535534   0.0000000), wk =   0.0208333

     Dense  grid:   261457 G-vectors     FFT dimensions: (  45,  64, 200)

     Smooth grid:   142317 G-vectors     FFT dimensions: (  36,  50, 160)

     Estimated max dynamical RAM per process >     393.00 MB

     Estimated total dynamical RAM >       3.84 GB

     Initial potential from superposition of free atoms

     starting charge     307.9969, renormalised to     308.0000
     Starting wfcs are  252 randomized atomic wfcs
     Checking if some PAW data can be deallocated... 

     total cpu time spent up to now is       23.2 secs

     Self-consistent Calculation

     iteration #  1     ecut=    50.00 Ry     beta= 0.01
     Davidson diagonalization with overlap
     ethr =  1.00E-02,  avg # of iterations =  4.0

     total cpu time spent up to now is       84.4 secs

     total energy              =  -21691.68940879 Ry
     estimated scf accuracy    <      20.73285638 Ry

     iteration #  2     ecut=    50.00 Ry     beta= 0.01
     Davidson diagonalization with overlap
     ethr =  6.73E-03,  avg # of iterations =  1.0

     total cpu time spent up to now is      125.7 secs

     total energy              =  -21691.66691534 Ry
     estimated scf accuracy    <       9.86084774 Ry

     iteration #  3     ecut=    50.00 Ry     beta= 0.01
     Davidson diagonalization with overlap
     ethr =  3.20E-03,  avg # of iterations =  1.0

     total cpu time spent up to now is      166.9 secs

     total energy              =  -21691.86968492 Ry
     estimated scf accuracy    <       2.24630947 Ry

     iteration #  4     ecut=    50.00 Ry     beta= 0.01
     Davidson diagonalization with overlap
     ethr =  7.29E-04,  avg # of iterations =  3.7

     total cpu time spent up to now is      218.3 secs

     total energy              =  -21691.83297398 Ry
     estimated scf accuracy    <       3.94309458 Ry

     iteration #  5     ecut=    50.00 Ry     beta= 0.01
     Davidson diagonalization with overlap
     ethr =  7.29E-04,  avg # of iterations =  1.8

     total cpu time spent up to now is      264.9 secs

     total energy              =  -21691.75265577 Ry
     estimated scf accuracy    <       4.71450636 Ry

     iteration #  6     ecut=    50.00 Ry     beta= 0.01
     Davidson diagonalization with overlap
     ethr =  7.29E-04,  avg # of iterations =  1.5

     total cpu time spent up to now is      308.7 secs

     total energy              =  -21691.67543816 Ry
     estimated scf accuracy    <       1.26097749 Ry

     iteration #  7     ecut=    50.00 Ry     beta= 0.01
     Davidson diagonalization with overlap
     ethr =  4.09E-04,  avg # of iterations =  3.5

     total cpu time spent up to now is      358.4 secs

     total energy              =  -21691.62239654 Ry
     estimated scf accuracy    <       0.44678329 Ry

     iteration #  8     ecut=    50.00 Ry     beta= 0.01
     Davidson diagonalization with overlap
     c_bands:  1 eigenvalues not converged
     ethr =  1.45E-04,  avg # of iterations =  7.9

     total cpu time spent up to now is      422.2 secs

     total energy              =  -21691.68279817 Ry
     estimated scf accuracy    <       0.20909694 Ry

     iteration #  9     ecut=    50.00 Ry     beta= 0.01
     Davidson diagonalization with overlap
     c_bands:  2 eigenvalues not converged
     c_bands:  2 eigenvalues not converged
     c_bands:  2 eigenvalues not converged
     ethr =  6.79E-05,  avg # of iterations =  7.7

     total cpu time spent up to now is      480.2 secs

     total energy              =  -21691.68479977 Ry
     estimated scf accuracy    <       0.22479421 Ry

     iteration # 10     ecut=    50.00 Ry     beta= 0.01
     Davidson diagonalization with overlap
     ethr =  6.79E-05,  avg # of iterations =  1.8

     total cpu time spent up to now is      523.6 secs

     total energy              =  -21691.66706954 Ry
     estimated scf accuracy    <       0.14012150 Ry

     iteration # 11     ecut=    50.00 Ry     beta= 0.01
     Davidson diagonalization with overlap
     ethr =  4.55E-05,  avg # of iterations =  7.5

     total cpu time spent up to now is      597.8 secs

     total energy              =  -21691.69053465 Ry
     estimated scf accuracy    <       0.24296715 Ry

     iteration # 12     ecut=    50.00 Ry     beta= 0.01
     Davidson diagonalization with overlap
     ethr =  4.55E-05,  avg # of iterations =  1.2

     total cpu time spent up to now is      639.9 secs

     total energy              =  -21691.72127787 Ry
     estimated scf accuracy    <       0.07051210 Ry

     iteration # 13     ecut=    50.00 Ry     beta= 0.01
     Davidson diagonalization with overlap
     ethr =  2.29E-05,  avg # of iterations =  3.1

     total cpu time spent up to now is      692.7 secs

     total energy              =  -21691.72880614 Ry
     estimated scf accuracy    <       0.32219616 Ry

     iteration # 14     ecut=    50.00 Ry     beta= 0.01
     Davidson diagonalization with overlap
     ethr =  2.29E-05,  avg # of iterations =  2.0

     total cpu time spent up to now is      740.1 secs

     total energy              =  -21691.71049091 Ry
     estimated scf accuracy    <       0.12538866 Ry

     iteration # 15     ecut=    50.00 Ry     beta= 0.01
     Davidson diagonalization with overlap
     ethr =  2.29E-05,  avg # of iterations =  1.4

     total cpu time spent up to now is      783.7 secs

     total energy              =  -21691.70362896 Ry
     estimated scf accuracy    <       0.06332141 Ry

     iteration # 16     ecut=    50.00 Ry     beta= 0.01
     Davidson diagonalization with overlap
     ethr =  2.06E-05,  avg # of iterations =  1.0

     total cpu time spent up to now is      824.8 secs

     total energy              =  -21691.70710174 Ry
     estimated scf accuracy    <       0.03884264 Ry

     iteration # 17     ecut=    50.00 Ry     beta= 0.01
     Davidson diagonalization with overlap
     ethr =  1.26E-05,  avg # of iterations =  1.0

     total cpu time spent up to now is      865.9 secs

     total energy              =  -21691.70364678 Ry
     estimated scf accuracy    <       0.04241254 Ry

     iteration # 18     ecut=    50.00 Ry     beta= 0.01
     Davidson diagonalization with overlap
     ethr =  1.26E-05,  avg # of iterations =  1.0

     total cpu time spent up to now is      907.3 secs

     total energy              =  -21691.68539354 Ry
     estimated scf accuracy    <       0.03299925 Ry

     iteration # 19     ecut=    50.00 Ry     beta= 0.01
     Davidson diagonalization with overlap
     ethr =  1.07E-05,  avg # of iterations =  4.5

     total cpu time spent up to now is      975.7 secs

     total energy              =  -21691.69811403 Ry
     estimated scf accuracy    <       0.01527240 Ry

     iteration # 20     ecut=    50.00 Ry     beta= 0.01
     Davidson diagonalization with overlap
     c_bands:  1 eigenvalues not converged
     ethr =  4.96E-06,  avg # of iterations =  2.1

     total cpu time spent up to now is     1021.7 secs

     total energy              =  -21691.70019561 Ry
     estimated scf accuracy    <       0.01646225 Ry

     iteration # 21     ecut=    50.00 Ry     beta= 0.01
     Davidson diagonalization with overlap
     ethr =  4.96E-06,  avg # of iterations =  1.5

     total cpu time spent up to now is     1064.4 secs

     total energy              =  -21691.69049211 Ry
     estimated scf accuracy    <       0.02199819 Ry

     iteration # 22     ecut=    50.00 Ry     beta= 0.01
     Davidson diagonalization with overlap
     ethr =  4.96E-06,  avg # of iterations =  2.7

     total cpu time spent up to now is     1121.9 secs

     total energy              =  -21691.69437571 Ry
     estimated scf accuracy    <       0.00250945 Ry

     iteration # 23     ecut=    50.00 Ry     beta= 0.01
     Davidson diagonalization with overlap
     c_bands:  1 eigenvalues not converged
     c_bands:  1 eigenvalues not converged
     c_bands:  1 eigenvalues not converged
     c_bands:  1 eigenvalues not converged
     c_bands:  1 eigenvalues not converged
     c_bands:  1 eigenvalues not converged
     c_bands:  1 eigenvalues not converged
     c_bands:  1 eigenvalues not converged
     c_bands:  1 eigenvalues not converged
     ethr =  8.15E-07,  avg # of iterations =  8.6

     total cpu time spent up to now is     1179.1 secs

     total energy              =  -21691.69470536 Ry
     estimated scf accuracy    <       0.00052583 Ry

     iteration # 24     ecut=    50.00 Ry     beta= 0.01
     Davidson diagonalization with overlap
     c_bands:  1 eigenvalues not converged
     ethr =  1.71E-07,  avg # of iterations =  4.3

     total cpu time spent up to now is     1238.0 secs

     total energy              =  -21691.69478790 Ry
     estimated scf accuracy    <       0.00039015 Ry

     iteration # 25     ecut=    50.00 Ry     beta= 0.01
     Davidson diagonalization with overlap
     ethr =  1.27E-07,  avg # of iterations =  1.0

     total cpu time spent up to now is     1282.5 secs

     total energy              =  -21691.69476644 Ry
     estimated scf accuracy    <       0.00038510 Ry

     iteration # 26     ecut=    50.00 Ry     beta= 0.01
     Davidson diagonalization with overlap
     ethr =  1.25E-07,  avg # of iterations =  1.4

     total cpu time spent up to now is     1329.2 secs

     total energy              =  -21691.69469280 Ry
     estimated scf accuracy    <       0.00040655 Ry

     iteration # 27     ecut=    50.00 Ry     beta= 0.01
     Davidson diagonalization with overlap
     ethr =  1.25E-07,  avg # of iterations =  3.1

     total cpu time spent up to now is     1396.0 secs

     total energy              =  -21691.69473240 Ry
     estimated scf accuracy    <       0.00055672 Ry

     iteration # 28     ecut=    50.00 Ry     beta= 0.01
     Davidson diagonalization with overlap
     ethr =  1.25E-07,  avg # of iterations =  1.5

     total cpu time spent up to now is     1442.4 secs

     total energy              =  -21691.69470092 Ry
     estimated scf accuracy    <       0.00029784 Ry

     iteration # 29     ecut=    50.00 Ry     beta= 0.01
     Davidson diagonalization with overlap
     ethr =  9.67E-08,  avg # of iterations =  1.0

     total cpu time spent up to now is     1486.6 secs

     total energy              =  -21691.69473419 Ry
     estimated scf accuracy    <       0.00019577 Ry

     iteration # 30     ecut=    50.00 Ry     beta= 0.01
     Davidson diagonalization with overlap
     ethr =  6.36E-08,  avg # of iterations =  1.2

     total cpu time spent up to now is     1531.6 secs

     total energy              =  -21691.69473879 Ry
     estimated scf accuracy    <       0.00020676 Ry

     iteration # 31     ecut=    50.00 Ry     beta= 0.01
     Davidson diagonalization with overlap
     ethr =  6.36E-08,  avg # of iterations =  2.0

     total cpu time spent up to now is     1584.9 secs

     total energy              =  -21691.69476458 Ry
     estimated scf accuracy    <       0.00005147 Ry

     iteration # 32     ecut=    50.00 Ry     beta= 0.01
     Davidson diagonalization with overlap
     ethr =  1.67E-08,  avg # of iterations =  2.0

     total cpu time spent up to now is     1636.1 secs

     total energy              =  -21691.69478183 Ry
     estimated scf accuracy    <       0.00002396 Ry

     iteration # 33     ecut=    50.00 Ry     beta= 0.01
     Davidson diagonalization with overlap
     ethr =  7.78E-09,  avg # of iterations =  2.0

     total cpu time spent up to now is     1686.3 secs

     total energy              =  -21691.69479754 Ry
     estimated scf accuracy    <       0.00002050 Ry

     iteration # 34     ecut=    50.00 Ry     beta= 0.01
     Davidson diagonalization with overlap
     ethr =  6.66E-09,  avg # of iterations =  1.0

     total cpu time spent up to now is     1730.5 secs

     total energy              =  -21691.69479939 Ry
     estimated scf accuracy    <       0.00001920 Ry

     iteration # 35     ecut=    50.00 Ry     beta= 0.01
     Davidson diagonalization with overlap
     ethr =  6.23E-09,  avg # of iterations =  2.0

     total cpu time spent up to now is     1793.5 secs

     total energy              =  -21691.69480616 Ry
     estimated scf accuracy    <       0.00001897 Ry

     iteration # 36     ecut=    50.00 Ry     beta= 0.01
     Davidson diagonalization with overlap
     ethr =  6.16E-09,  avg # of iterations =  2.0

     total cpu time spent up to now is     1852.1 secs

     total energy              =  -21691.69482401 Ry
     estimated scf accuracy    <       0.00000674 Ry

     iteration # 37     ecut=    50.00 Ry     beta= 0.01
     Davidson diagonalization with overlap
     ethr =  2.19E-09,  avg # of iterations =  2.0

     total cpu time spent up to now is     1902.7 secs

     total energy              =  -21691.69483940 Ry
     estimated scf accuracy    <       0.00000380 Ry

     iteration # 38     ecut=    50.00 Ry     beta= 0.01
     Davidson diagonalization with overlap
     ethr =  1.23E-09,  avg # of iterations =  1.0

     total cpu time spent up to now is     1940.5 secs

     total energy              =  -21691.69485201 Ry
     estimated scf accuracy    <       0.00000269 Ry

     iteration # 39     ecut=    50.00 Ry     beta= 0.01
     Davidson diagonalization with overlap
     ethr =  8.73E-10,  avg # of iterations =  1.0

     total cpu time spent up to now is     1978.2 secs

     total energy              =  -21691.69486532 Ry
     estimated scf accuracy    <       0.00000213 Ry

     iteration # 40     ecut=    50.00 Ry     beta= 0.01
     Davidson diagonalization with overlap
     ethr =  6.93E-10,  avg # of iterations =  1.0

     total cpu time spent up to now is     2016.2 secs

     total energy              =  -21691.69487600 Ry
     estimated scf accuracy    <       0.00000181 Ry

     iteration # 41     ecut=    50.00 Ry     beta= 0.01
     Davidson diagonalization with overlap
     ethr =  5.86E-10,  avg # of iterations =  1.0

     total cpu time spent up to now is     2054.0 secs

     total energy              =  -21691.69488965 Ry
     estimated scf accuracy    <       0.00000168 Ry

     iteration # 42     ecut=    50.00 Ry     beta= 0.01
     Davidson diagonalization with overlap
     ethr =  5.44E-10,  avg # of iterations =  1.0

     total cpu time spent up to now is     2091.6 secs

     total energy              =  -21691.69490429 Ry
     estimated scf accuracy    <       0.00000132 Ry

     iteration # 43     ecut=    50.00 Ry     beta= 0.01
     Davidson diagonalization with overlap
     ethr =  4.30E-10,  avg # of iterations =  1.2

     total cpu time spent up to now is     2130.2 secs

     total energy              =  -21691.69491675 Ry
     estimated scf accuracy    <       0.00000117 Ry

     iteration # 44     ecut=    50.00 Ry     beta= 0.01
     Davidson diagonalization with overlap
     ethr =  3.79E-10,  avg # of iterations =  1.0

     total cpu time spent up to now is     2171.1 secs

     End of self-consistent calculation

          k = 0.0000 0.0000 0.0000 ( 17807 PWs)   bands (ev):

     1.5404   1.5862   1.7212   1.7222   2.8602   3.1026   3.3790   3.3819
     4.0080   4.2236   4.5666   4.6075   4.6096   5.7672   6.2701   6.3754
     6.3754   7.8880   7.8889   8.2666   8.3336   8.6985   9.5586   9.6071
    10.3978  10.4008  10.4711  10.7774  10.8058  10.8068  10.8545  11.0614
    11.0985  11.1156  11.1215  11.2455  11.2701  11.2724  11.3597  11.3700
    11.3826  11.4777  11.5250  11.5480  11.5929  11.6208  11.6777  11.7156
    11.7570  11.8737  11.9014  11.9030  11.9411  12.0384  12.0961  12.1241
    12.2887  12.2922  12.2988  12.3662  12.4818  12.4896  12.4996  12.5751
    12.6352  12.6478  12.6906  12.8641  12.9056  12.9420  13.0065  13.0986
    13.1293  13.1314  13.1535  13.1788  13.2503  13.2623  13.3476  13.3877
    13.4227  13.4904  13.5465  13.5620  13.6945  13.8395  13.8850  13.9028
    14.0041  14.0330  14.0758  14.1161  14.1716  14.2035  14.2736  14.3761
    14.4068  14.4155  14.4565  14.5055  14.6298  14.6426  14.6446  14.7130
    14.7284  14.7616  14.8610  14.8793  14.9547  14.9587  14.9987  15.0062
    15.0375  15.1888  15.1903  15.2015  15.2662  15.3720  15.4185  15.4447
    15.5193  15.5525  15.5875  15.5951  15.7110  15.7296  15.7507  15.7905
    15.7949  15.8932  15.9530  15.9638  15.9928  16.0410  16.0870  16.1687
    16.3178  16.3193  16.4234  16.4656  16.4687  16.5547  16.6139  16.7760
    16.8701  16.9749  17.4328  17.4364  17.5444  17.7285  17.7359  17.8869
    17.8892  18.0085  18.0264  18.3393  18.3399  18.3600  18.7826  18.7963
    19.0433  19.3370  20.3397  20.4857  21.1269  21.1277  21.6462  22.0578
    22.4960  22.8632  23.4061  23.7204  23.7553  23.7573  23.9985  24.6367
    24.6370  24.7006  24.9344  24.9385  25.2872  25.8125  25.9944  26.2185
    26.2865

          k = 0.0000 0.0589 0.0000 ( 17795 PWs)   bands (ev):

     1.5681   1.5925   1.6903   1.7731   2.8693   3.0744   3.2908   3.4256
     4.0292   4.2435   4.5648   4.5726   4.6584   5.7879   6.1178   6.2665
     6.6638   7.7085   7.9373   8.3071   8.3727   8.7145   9.5938   9.6414
    10.3894  10.4309  10.5043  10.7850  10.7874  10.8493  10.8639  11.0139
    11.0884  11.1220  11.1418  11.2215  11.2617  11.2982  11.3501  11.3812
    11.3882  11.4904  11.5542  11.5575  11.6016  11.6228  11.6579  11.7077
    11.7579  11.7735  11.8418  11.9012  11.9107  12.0865  12.1589  12.1861
    12.2159  12.2923  12.3617  12.4075  12.4873  12.4921  12.5650  12.5667
    12.5691  12.6470  12.6873  12.7809  12.8381  12.9836  12.9888  13.0644
    13.0789  13.1220  13.1500  13.1504  13.2270  13.2630  13.3270  13.3649
    13.5038  13.5608  13.5643  13.5860  13.7201  13.8538  13.8854  13.8877
    14.0059  14.0401  14.0707  14.0903  14.1282  14.2494  14.2977  14.3930
    14.3961  14.4400  14.4809  14.5187  14.6098  14.6204  14.6453  14.7147
    14.7422  14.7836  14.7888  14.8845  14.9129  14.9475  14.9750  14.9947
    15.0431  15.1690  15.1765  15.2299  15.2982  15.3213  15.4089  15.4365
    15.4549  15.5335  15.5587  15.6307  15.6474  15.6734  15.7186  15.7957
    15.8017  15.9028  15.9396  15.9808  16.0114  16.0670  16.1040  16.1639
    16.2541  16.2897  16.3733  16.4155  16.4854  16.5291  16.5955  16.7918
    16.8416  17.0259  17.0414  17.1366  17.2516  17.3398  17.4333  17.6822
    17.8118  18.1021  18.2916  18.5369  18.5795  18.6978  19.0952  19.2069
    19.2847  19.3842  20.4292  20.5762  21.2498  21.3102  21.6636  22.1064
    22.5302  22.8860  23.4234  23.4732  23.7161  23.7581  23.9903  24.2694
    24.5128  24.7143  25.2822  25.2883  25.4038  25.7684  25.7882  25.8188
    25.9253

          k = 0.0000 0.1179 0.0000 ( 17803 PWs)   bands (ev):

     1.6096   1.6488   1.6754   1.8459   2.8963   2.9953   3.1638   3.4243
     4.0919   4.2995   4.5348   4.5917   4.7027   5.8505   5.8867   6.2584
     6.9804   7.4364   7.8409   8.4271   8.4885   8.7552   9.6966   9.7420
    10.4105  10.4594  10.6009  10.6718  10.7865  10.8947  10.9399  11.0060
    11.0192  11.1162  11.1175  11.1867  11.2423  11.3121  11.3730  11.3745
    11.4100  11.4549  11.5053  11.5740  11.6180  11.6329  11.6946  11.7347
    11.7358  11.8073  11.8080  11.9158  11.9811  12.1291  12.1786  12.2231
    12.2538  12.3763  12.3820  12.4249  12.4439  12.4612  12.5308  12.5727
    12.6149  12.6578  12.6638  12.6866  12.7715  12.8464  12.9225  12.9947
    13.0475  13.0587  13.1202  13.1729  13.1959  13.2588  13.3239  13.4885
    13.5537  13.6055  13.6168  13.6473  13.7504  13.8541  13.8564  13.8675
    13.8768  14.0070  14.0519  14.1248  14.1740  14.2940  14.3300  14.3559
    14.4284  14.5079  14.5246  14.5373  14.5707  14.5927  14.6515  14.6719
    14.7158  14.7488  14.7693  14.8311  14.8644  14.9086  14.9387  14.9641
    14.9908  15.1581  15.1654  15.2186  15.2257  15.2614  15.2805  15.3743
    15.3964  15.4955  15.5585  15.5710  15.6074  15.6442  15.6911  15.7669
    15.8396  15.8469  15.8591  15.8711  15.9304  16.0278  16.1097  16.1585
    16.2206  16.2937  16.3841  16.3876  16.4270  16.4493  16.5667  16.5823
    16.6423  16.6658  16.7119  16.7753  16.8258  17.1137  17.2928  17.5890
    17.6736  17.8707  18.3065  19.0231  19.1933  19.2430  19.3686  19.5207
    20.0350  20.0923  20.6862  20.8334  21.4474  21.5978  21.7074  22.2429
    22.6271  22.9440  23.4152  23.4630  23.5020  23.7090  23.9692  24.0658
    24.1879  24.7520  25.2032  25.2714  25.2775  25.3121  25.5561  25.6865
    25.8537

          k = 0.0000 0.1768 0.0000 ( 17795 PWs)   bands (ev):

     1.6323   1.6723   1.7754   1.9395   2.8785   2.9402   3.0077   3.3830
     4.1904   4.3821   4.5185   4.6290   4.7308   5.6721   5.9572   6.2537
     7.1231   7.2967   7.6391   8.6206   8.6768   8.7984   9.8591   9.9010
    10.4392  10.4451  10.4579  10.7314  10.7505  10.7932  10.8237  11.0182
    11.0644  11.0804  11.1196  11.1304  11.2378  11.3081  11.3598  11.4260
    11.4353  11.5258  11.5366  11.6391  11.6661  11.6896  11.7072  11.7857
    11.8221  11.8307  11.9113  11.9888  12.1058  12.1559  12.2040  12.2375
    12.2926  12.3349  12.3702  12.4006  12.4251  12.4728  12.5053  12.5356
    12.5428  12.6167  12.6747  12.6888  12.7459  12.8367  12.8507  12.8703
    12.9377  13.0646  13.0897  13.1710  13.2216  13.2465  13.4000  13.5804
    13.6337  13.6345  13.6537  13.6793  13.7076  13.7379  13.7737  13.8371
    13.8989  13.9701  14.0257  14.1638  14.2337  14.2542  14.3016  14.3901
    14.4313  14.4616  14.4941  14.5443  14.5512  14.5771  14.5913  14.6231
    14.6417  14.7552  14.7823  14.7891  14.8293  14.8481  14.8744  14.9000
    14.9263  14.9739  15.1340  15.1561  15.1606  15.2067  15.2075  15.2288
    15.3661  15.3705  15.4788  15.5013  15.5051  15.5403  15.6350  15.6483
    15.7055  15.7175  15.7367  15.8373  15.9339  15.9593  15.9657  16.0199
    16.0732  16.0871  16.1600  16.1739  16.2936  16.3141  16.3788  16.4274
    16.4352  16.7038  16.7891  16.8551  16.9742  17.2059  17.2343  17.4005
    17.5772  17.6805  18.3326  19.3895  19.5717  19.7604  19.9539  20.0998
    20.7595  20.8575  21.0500  21.2178  21.5670  21.7138  21.7717  22.4362
    22.7692  22.9979  23.2300  23.4832  23.6632  23.7158  23.9605  24.0045
    24.1251  24.7638  24.8161  24.9247  24.9908  25.1317  25.2438  25.3325
    25.5237

          k = 0.0000 0.2357 0.0000 ( 17822 PWs)   bands (ev):

     1.6544   1.6756   1.9350   2.0497   2.7417   2.8329   2.9989   3.3147
     4.3065   4.4787   4.5083   4.6994   4.7348   5.4602   6.1130   6.2651
     6.8217   7.2389   7.7426   8.7660   8.9051   8.9368  10.0660  10.1028
    10.2393  10.3367  10.3450  10.4412  10.5993  10.8039  10.9089  10.9205
    11.0448  11.1570  11.1722  11.2530  11.3154  11.3320  11.3801  11.4373
    11.5256  11.6065  11.6219  11.6712  11.7301  11.7708  11.8281  11.8407
    11.8910  11.9076  12.0009  12.0221  12.1110  12.1115  12.1883  12.2268
    12.3146  12.3517  12.3907  12.4037  12.4234  12.4504  12.4655  12.4686
    12.5097  12.5774  12.6220  12.6758  12.7501  12.8024  12.8517  12.9057
    12.9739  13.0638  13.1449  13.1551  13.2146  13.2789  13.4262  13.5690
    13.5716  13.5943  13.6520  13.6826  13.7406  13.7530  13.8021  13.8164
    13.9180  13.9818  14.0065  14.1684  14.2038  14.2196  14.2318  14.2939
    14.3138  14.3545  14.4089  14.4432  14.4864  14.5081  14.5911  14.5979
    14.5989  14.6752  14.7043  14.7698  14.7715  14.8134  14.8809  14.9033
    14.9146  14.9559  14.9829  15.0148  15.0179  15.0783  15.0785  15.1985
    15.2371  15.2584  15.2696  15.2790  15.3532  15.4889  15.5071  15.5138
    15.5597  15.6229  15.6884  15.6921  15.7172  15.7618  15.8534  15.8630
    16.0234  16.0386  16.0840  16.1598  16.2323  16.2552  16.3780  16.4359
    16.4736  16.6400  16.9106  16.9125  17.2189  17.2380  17.3011  17.4309
    17.4458  17.5472  18.6167  19.6396  19.9070  20.2306  20.7056  20.8186
    20.8762  21.0812  21.2134  21.7172  21.9974  22.0442  22.1406  22.6114
    22.8267  22.9175  22.9773  23.4502  23.5333  23.7518  23.9689  24.3612
    24.3743  24.4653  24.6016  24.6527  24.7248  24.8151  24.9121  25.0874
    25.1967

          k = 0.0000 0.2946 0.0000 ( 17818 PWs)   bands (ev):

     1.6708   1.6795   2.1039   2.1616   2.6095   2.6582   3.0697   3.2332
     4.4049   4.4939   4.5746   4.7100   4.8287   5.2407   6.3093   6.3246
     6.5758   6.9125   8.0863   8.6540   9.2233   9.2509   9.9680  10.0239
    10.1219  10.2291  10.3064  10.3274  10.7056  10.7103  10.7482  10.9686
    11.0817  11.1933  11.2873  11.3018  11.3540  11.3771  11.5278  11.5315
    11.5903  11.6043  11.7162  11.7216  11.7950  11.8266  11.8643  11.8931
    11.9554  11.9779  12.0077  12.0366  12.0500  12.0649  12.1211  12.2392
    12.2469  12.2666  12.3240  12.3445  12.4137  12.4250  12.5002  12.5622
    12.5630  12.5764  12.6165  12.6885  12.7030  12.8965  12.9504  12.9776
    13.0114  13.0418  13.1020  13.1991  13.3315  13.3846  13.4514  13.4590
    13.4828  13.6226  13.6953  13.7092  13.7250  13.7421  13.8421  13.8831
    13.8963  13.9541  14.0336  14.0405  14.0896  14.1015  14.1691  14.2036
    14.2294  14.2797  14.2886  14.3087  14.3407  14.4362  14.4621  14.5128
    14.5508  14.5528  14.6233  14.7050  14.7564  14.8165  14.8323  14.8421
    14.8438  14.8868  14.9198  14.9773  14.9906  15.0240  15.1026  15.1036
    15.1080  15.1871  15.2163  15.2450  15.2931  15.3239  15.3782  15.4331
    15.4919  15.5023  15.5421  15.5812  15.6166  15.7646  15.8313  15.9452
    16.0290  16.0353  16.0428  16.1446  16.2049  16.2245  16.4059  16.4416
    16.5152  16.5843  16.9745  17.0450  17.1264  17.2795  17.3091  17.3968
    17.4372  17.5309  19.2788  19.8936  20.2003  20.5913  20.7928  20.8187
    20.8825  21.4161  21.5315  22.1655  22.3054  22.4514  22.6202  22.7967
    22.8151  22.9004  23.0828  23.3796  23.4069  23.7173  23.8558  23.8785
    23.9870  24.3017  24.3725  24.5676  24.7089  24.8776  24.9024  25.0457
    25.1627

          k = 0.0000-0.3536 0.0000 ( 17844 PWs)   bands (ev):

     1.6790   1.6790   2.2116   2.2117   2.5505   2.5505   3.1493   3.1493
     4.4640   4.4640   4.6551   4.6551   5.0202   5.0202   6.4066   6.4066
     6.5946   6.5947   8.4100   8.4101   9.5864   9.5864   9.6190   9.6190
    10.1354  10.1354  10.5381  10.5381  10.5410  10.5410  10.8472  10.8472
    11.1540  11.1540  11.3529  11.3529  11.4437  11.4437  11.5053  11.5053
    11.6258  11.6258  11.8025  11.8025  11.8127  11.8127  11.8617  11.8617
    11.9350  11.9350  12.0462  12.0462  12.0779  12.0779  12.1652  12.1652
    12.2038  12.2038  12.3213  12.3213  12.3754  12.3754  12.4870  12.4870
    12.6091  12.6091  12.7952  12.7952  12.8313  12.8313  12.8592  12.8592
    13.0110  13.0110  13.2925  13.2925  13.3649  13.3649  13.4992  13.4992
    13.5827  13.5827  13.6436  13.6436  13.7869  13.7869  13.8414  13.8414
    13.8875  13.8875  13.9675  13.9675  14.0661  14.0661  14.1523  14.1523
    14.1738  14.1739  14.2525  14.2525  14.2930  14.2931  14.4494  14.4494
    14.5381  14.5381  14.6006  14.6006  14.7653  14.7653  14.8155  14.8155
    14.8747  14.8747  14.9650  14.9650  15.0244  15.0244  15.0705  15.0705
    15.1575  15.1575  15.2365  15.2365  15.2729  15.2729  15.3478  15.3478
    15.4076  15.4076  15.5330  15.5330  15.6857  15.6857  15.9429  15.9429
    16.0192  16.0192  16.0569  16.0569  16.2281  16.2281  16.4289  16.4289
    16.5476  16.5476  17.0444  17.0445  17.1776  17.1776  17.3472  17.3472
    17.4842  17.4842  19.9492  19.9492  20.4307  20.4308  20.5093  20.5093
    21.3167  21.3167  22.2015  22.2015  22.2975  22.2975  22.9520  22.9520
    23.0565  23.0566  23.2996  23.2996  23.3805  23.3805  23.5242  23.5242
    24.0731  24.0731  24.5635  24.5635  24.7209  24.7210  24.8630  24.8630
    25.4179

          k = 0.1250 0.0000 0.0000 ( 17777 PWs)   bands (ev):

     1.5750   1.6855   1.7212   1.7222   2.9140   3.1043   3.2612   3.2640
     4.0488   4.2759   4.5268   4.6797   4.6819   5.8363   6.3036   6.3642
     6.3643   7.9980   7.9990   8.3378   8.4944   8.7321   9.6120   9.7506
    10.3516  10.4589  10.4618  10.7235  10.8651  10.8667  10.8668  10.8694
    11.1032  11.1637  11.1725  11.2157  11.2778  11.2961  11.3356  11.3612
    11.3933  11.4336  11.4966  11.5195  11.5718  11.5985  11.6215  11.6409
    11.7009  11.7362  11.7658  11.7972  11.8020  11.9892  12.1710  12.2327
    12.2810  12.2954  12.5126  12.6116  12.6147  12.6254  12.6263  12.8044
    12.8853  12.9010  12.9044  12.9861  13.0061  13.0083  13.0843  13.1492
    13.2364  13.2647  13.2788  13.2915  13.3298  13.3873  13.3908  13.4160
    13.4386  13.4769  13.5443  13.5578  13.6880  13.6978  13.7290  13.8333
    13.8456  13.8733  13.9046  13.9934  13.9953  14.2213  14.2257  14.2548
    14.3003  14.3035  14.4437  14.4458  14.4893  14.5524  14.5932  14.7264
    14.7392  14.7990  14.8054  14.8478  14.8830  14.9164  14.9452  15.0119
    15.0357  15.1151  15.1494  15.1802  15.2108  15.2656  15.3704  15.4195
    15.4779  15.5247  15.5251  15.5572  15.5712  15.6364  15.6521  15.7475
    15.8130  15.8251  15.9182  15.9434  15.9661  16.0232  16.0623  16.0829
    16.0980  16.2150  16.2168  16.5464  16.5502  16.6036  16.6063  16.8229
    16.8630  16.9264  17.3751  17.3783  17.4017  17.5136  17.7677  17.7707
    18.0381  18.0399  18.2463  18.2501  18.6862  18.7092  18.7348  19.1482
    19.3594  19.3802  19.4000  19.8204  21.0391  21.1037  21.1055  21.4797
    22.3693  22.9709  22.9722  23.1033  23.6258  23.9598  24.2004  24.3598
    24.3879  24.5387  24.5633  24.9359  24.9739  25.0204  25.1132  25.1734
    25.3875

          k = 0.1250 0.0589 0.0000 ( 17791 PWs)   bands (ev):

     1.5882   1.6898   1.7026   1.7736   2.9199   3.0787   3.1539   3.3411
     4.0686   4.2948   4.5363   4.6309   4.7297   5.8562   6.1355   6.3021
     6.6041   7.7874   8.1080   8.3725   8.5317   8.7565   9.6468   9.7858
    10.3772  10.4421  10.4923  10.7013  10.8197  10.8413  10.9056  10.9194
    11.1280  11.1282  11.1772  11.2186  11.2392  11.3212  11.3494  11.3650
    11.4080  11.4426  11.4786  11.4902  11.5530  11.6042  11.6435  11.6820
    11.7245  11.7597  11.7774  11.8101  11.9147  11.9615  12.1342  12.1369
    12.2783  12.3611  12.5007  12.5359  12.5732  12.6308  12.6331  12.7903
    12.8161  12.8722  12.8951  12.9767  12.9934  13.0511  13.0773  13.1271
    13.1483  13.2123  13.2593  13.2666  13.3320  13.3591  13.4317  13.4439
    13.4726  13.5489  13.5656  13.5744  13.7008  13.7225  13.7354  13.8160
    13.8558  13.8826  13.9386  13.9389  14.0304  14.1516  14.1977  14.2582
    14.3063  14.3193  14.4053  14.4589  14.5465  14.5689  14.5982  14.7148
    14.7302  14.7905  14.8185  14.8389  14.8701  14.9122  14.9393  14.9998
    15.0070  15.1238  15.1320  15.1828  15.1954  15.2803  15.3377  15.3828
    15.4526  15.4878  15.5028  15.5488  15.6076  15.6139  15.6712  15.7443
    15.8059  15.8142  15.8766  15.9044  15.9842  16.0302  16.0376  16.0840
    16.0843  16.1616  16.2340  16.3792  16.5000  16.6636  16.6820  16.7691
    16.8845  16.9636  17.0282  17.1348  17.3231  17.3955  17.5344  17.6060
    17.7364  18.0516  18.4900  18.5792  18.8260  18.9372  18.9719  19.2067
    19.4147  19.5503  19.6648  19.8746  21.0730  21.1928  21.3289  21.5073
    22.4108  22.5285  23.1504  23.4804  23.6378  23.7891  23.9259  23.9767
    24.1792  24.2150  24.4182  24.6932  24.8539  25.0019  25.2400  25.4457
    25.4801

          k = 0.1250 0.1179 0.0000 ( 17815 PWs)   bands (ev):

     1.6176   1.6749   1.7596   1.8472   2.9271   3.0179   3.0238   3.3819
     4.1257   4.3502   4.5651   4.5862   4.7701   5.9138   5.9219   6.3029
     6.8174   7.5554   8.0774   8.4702   8.6422   8.8275   9.7488   9.8888
    10.3975  10.4449  10.5021  10.5901  10.8257  10.8838  10.9071  10.9950
    11.0127  11.1240  11.1889  11.1913  11.2580  11.2936  11.3372  11.3691
    11.4457  11.4500  11.5095  11.5430  11.5885  11.6772  11.6872  11.7039
    11.7974  11.7974  11.8626  11.9021  11.9160  12.0320  12.0569  12.1293
    12.3189  12.3683  12.4152  12.4621  12.5393  12.5580  12.6074  12.7023
    12.7431  12.8229  12.8997  12.9356  12.9518  13.0399  13.0695  13.0737
    13.1318  13.1578  13.1787  13.2577  13.3002  13.3245  13.3971  13.4693
    13.5159  13.5854  13.6020  13.6064  13.7128  13.7344  13.7393  13.7747
    13.8364  13.9157  13.9297  13.9845  14.0545  14.1258  14.1270  14.2533
    14.2877  14.3321  14.3380  14.4734  14.5732  14.5747  14.6111  14.6903
    14.6903  14.7652  14.7783  14.8448  14.8605  14.8843  14.9159  14.9271
    15.0608  15.0618  15.1139  15.1489  15.2268  15.2426  15.2818  15.2896
    15.4076  15.4286  15.4905  15.4944  15.5732  15.5992  15.6729  15.7172
    15.7210  15.7785  15.8169  15.8445  15.9208  15.9809  16.0395  16.0845
    16.1220  16.1409  16.1964  16.2439  16.3903  16.5334  16.5937  16.6545
    16.7167  16.7396  16.9107  16.9211  17.0176  17.0815  17.3319  17.3772
    17.9089  18.0942  18.4902  18.6854  19.0714  19.3437  19.3705  19.5339
    19.5762  20.0355  20.3256  20.3946  21.1551  21.1689  21.5840  21.6389
    22.4186  22.5207  23.2630  23.2876  23.4269  23.5164  23.6682  23.7495
    24.0195  24.1287  24.2509  24.3935  24.5776  24.9240  25.4184  25.8843
    26.2834

          k = 0.1250 0.1768 0.0000 ( 17796 PWs)   bands (ev):

     1.6466   1.6724   1.8606   1.9420   2.8576   2.8802   3.0128   3.3822
     4.2099   4.4391   4.5492   4.6154   4.7953   5.7165   6.0003   6.3254
     6.8450   7.4951   7.9120   8.6024   8.8209   8.9451   9.9113  10.0502
    10.2146  10.3834  10.4887  10.6745  10.7152  10.7502  10.9056  11.0003
    11.0829  11.1517  11.1627  11.1912  11.2568  11.3222  11.3498  11.4148
    11.4973  11.5627  11.5813  11.5890  11.6559  11.7194  11.7682  11.7919
    11.8205  11.9035  11.9464  12.0051  12.0252  12.0728  12.1425  12.1577
    12.2865  12.3497  12.3550  12.3863  12.4978  12.5048  12.5660  12.6213
    12.6743  12.6946  12.8602  12.8791  12.9459  12.9704  12.9947  13.0260
    13.0694  13.1231  13.1487  13.2273  13.2901  13.3052  13.4199  13.4860
    13.5137  13.6016  13.6086  13.6233  13.6532  13.6635  13.7325  13.7458
    13.8570  13.8940  13.9677  13.9709  14.0827  14.1080  14.1697  14.1965
    14.2291  14.2529  14.3612  14.4827  14.4827  14.5188  14.6019  14.6289
    14.6307  14.6681  14.7507  14.7508  14.8258  14.8683  14.9229  14.9255
    14.9507  15.0117  15.0842  15.0860  15.1314  15.1655  15.2532  15.2642
    15.2854  15.3502  15.3998  15.4641  15.5195  15.5534  15.5933  15.6179
    15.6718  15.7256  15.7579  15.8325  15.8544  15.8922  15.9413  16.0295
    16.0515  16.0823  16.1284  16.1898  16.2180  16.2708  16.3378  16.3690
    16.5550  16.6238  16.7301  16.9547  17.1006  17.1157  17.4048  17.4734
    17.7902  18.2019  18.4805  18.5854  19.4126  19.6181  19.8312  20.1413
    20.2341  20.2951  20.8016  21.1394  21.3098  21.3130  21.6251  21.6922
    22.1789  22.6263  22.8286  23.1600  23.4107  23.4909  23.5878  23.7051
    23.9937  24.0649  24.1636  24.2646  24.7599  25.1444  25.2203  25.7311
    25.9376

          k = 0.1250 0.2357 0.0000 ( 17785 PWs)   bands (ev):

     1.6687   1.6771   1.9939   2.0539   2.7265   2.7305   3.0635   3.3462
     4.3014   4.5171   4.5544   4.6978   4.7996   5.5071   6.0928   6.4101
     6.6478   7.4982   7.8368   8.6867   9.0605   9.1312  10.0021  10.1252
    10.1983  10.2579  10.3739  10.4496  10.6532  10.8450  10.8955  10.9963
    11.0939  11.1149  11.2538  11.2709  11.3152  11.3562  11.4227  11.4741
    11.5552  11.6047  11.6643  11.6843  11.7067  11.8191  11.8477  11.8851
    11.9274  12.0075  12.0254  12.1026  12.1181  12.1209  12.1826  12.2002
    12.2508  12.3167  12.3295  12.4054  12.4311  12.4830  12.5171  12.5661
    12.5764  12.6137  12.7534  12.8210  12.8692  12.9603  12.9852  13.0072
    13.0101  13.0836  13.1539  13.1824  13.2729  13.2835  13.3938  13.4600
    13.5082  13.5168  13.5693  13.5860  13.6385  13.7143  13.7454  13.7874
    13.8166  13.8708  13.9365  13.9801  14.0048  14.1123  14.1205  14.1946
    14.2060  14.2475  14.3389  14.3585  14.3974  14.4441  14.5316  14.5378
    14.5806  14.6575  14.6799  14.6805  14.7302  14.7463  14.8142  14.8426
    14.9630  14.9650  15.0172  15.0350  15.0395  15.0743  15.1284  15.1871
    15.1903  15.2971  15.2991  15.3341  15.4215  15.4629  15.5304  15.5322
    15.5904  15.6266  15.6624  15.7128  15.7340  15.7672  15.8592  15.9612
    15.9655  16.0283  16.0594  16.1727  16.2038  16.2138  16.3233  16.3718
    16.5090  16.5113  16.7109  16.9325  17.0477  17.2295  17.5008  17.6555
    17.7749  17.9571  18.8586  18.8604  19.7905  19.9285  20.1711  20.2931
    20.6317  20.9852  21.0471  21.3611  21.4886  21.5204  21.7964  21.9222
    22.0332  22.3755  22.4861  22.8064  23.4716  23.6622  23.7686  23.8093
    24.0842  24.1641  24.2417  24.3914  24.5409  24.9039  25.3994  25.4973
    25.8921

          k = 0.1250 0.2946 0.0000 ( 17801 PWs)   bands (ev):

     1.6820   1.6834   2.1359   2.1692   2.5879   2.5905   3.1322   3.2842
     4.3801   4.4831   4.6604   4.7794   4.8439   5.2839   6.1763   6.4354
     6.5939   7.1938   8.1019   8.6191   9.3518   9.4026   9.9084   9.9733
    10.0869  10.1332  10.3643  10.4819  10.7322  10.8089  10.8705  10.9514
    11.1244  11.1312  11.2690  11.3480  11.3558  11.4149  11.5023  11.5703
    11.6105  11.6489  11.7451  11.7541  11.8023  11.8593  11.9231  12.0006
    12.0009  12.0255  12.0727  12.0754  12.1246  12.1623  12.1778  12.2482
    12.2520  12.3191  12.3202  12.3582  12.4323  12.4403  12.5069  12.5636
    12.5707  12.6417  12.7151  12.7862  12.8193  12.9134  12.9475  12.9718
    13.0068  13.0457  13.1256  13.2209  13.2555  13.3253  13.3832  13.4203
    13.4240  13.5286  13.5523  13.6003  13.6283  13.6814  13.7425  13.7797
    13.8192  13.8274  13.8897  13.9041  14.0161  14.0332  14.0453  14.0740
    14.1316  14.1983  14.2894  14.3107  14.3149  14.4002  14.4528  14.4829
    14.5331  14.5557  14.6444  14.6974  14.7409  14.7463  14.7843  14.8157
    14.8518  14.8935  14.9436  14.9535  14.9989  15.0170  15.0495  15.0742
    15.1120  15.1349  15.1852  15.2071  15.2596  15.3542  15.4367  15.4424
    15.4995  15.5862  15.6606  15.6718  15.7221  15.8278  15.8484  15.9888
    16.0207  16.0213  16.0770  16.1170  16.1744  16.1876  16.3323  16.3572
    16.5171  16.5211  16.6916  16.7921  17.1948  17.3468  17.5387  17.6094
    17.6352  17.8427  19.2141  19.5340  20.0903  20.1706  20.2770  20.5768
    20.9029  21.0032  21.0959  21.4094  21.5625  21.5907  21.7638  22.0010
    22.1341  22.1539  22.4711  22.8073  23.7862  23.8313  23.8531  23.9558
    24.0073  24.1103  24.3305  24.4905  24.6859  24.8594  25.1232  25.4503
    25.7470

          k = 0.1250-0.3536 0.0000 ( 17808 PWs)   bands (ev):

     1.6863   1.6863   2.2260   2.2260   2.5124   2.5124   3.2089   3.2089
     4.4396   4.4396   4.7333   4.7334   5.0532   5.0532   6.2795   6.2795
     6.8667   6.8667   8.3973   8.3973   9.6734   9.6734   9.7337   9.7337
     9.9583   9.9583  10.6041  10.6041  10.6930  10.6930  10.8646  10.8646
    11.1672  11.1672  11.3438  11.3438  11.3788  11.3788  11.5618  11.5618
    11.6688  11.6688  11.7865  11.7865  11.8896  11.8896  11.9631  11.9631
    12.0177  12.0177  12.0873  12.0873  12.1300  12.1300  12.2167  12.2167
    12.2535  12.2535  12.3392  12.3392  12.4188  12.4188  12.5479  12.5479
    12.6754  12.6754  12.7576  12.7576  12.8281  12.8281  12.9332  12.9332
    12.9845  12.9845  13.1964  13.1964  13.2995  13.2995  13.4227  13.4227
    13.5023  13.5023  13.5881  13.5882  13.6486  13.6486  13.7202  13.7202
    13.7808  13.7808  13.8780  13.8780  13.9514  13.9514  14.0291  14.0291
    14.0928  14.0928  14.2447  14.2447  14.3586  14.3586  14.4907  14.4907
    14.6145  14.6145  14.6453  14.6453  14.7278  14.7278  14.8298  14.8298
    14.8405  14.8405  14.8933  14.8933  14.9158  14.9158  14.9883  14.9883
    15.0852  15.0852  15.1616  15.1616  15.2879  15.2879  15.4150  15.4150
    15.5401  15.5401  15.6401  15.6401  15.7832  15.7832  15.9636  15.9636
    16.0251  16.0251  16.0976  16.0976  16.1549  16.1549  16.3471  16.3471
    16.5336  16.5336  16.7078  16.7078  17.3765  17.3765  17.4696  17.4696
    17.7274  17.7274  19.5322  19.5322  20.4834  20.4834  20.6497  20.6497
    20.7366  20.7366  21.1187  21.1187  21.4163  21.4163  21.9112  21.9112
    22.1559  22.1559  23.0980  23.0980  23.3817  23.3817  24.0225  24.0225
    24.0772  24.0772  24.5750  24.5750  25.0782  25.0786  25.2720  25.2803
    25.3890

          k = 0.1250-0.2946 0.0000 ( 17801 PWs)   bands (ev):

     1.6820   1.6834   2.1359   2.1692   2.5879   2.5905   3.1322   3.2842
     4.3801   4.4831   4.6604   4.7794   4.8439   5.2839   6.1763   6.4354
     6.5939   7.1938   8.1019   8.6191   9.3518   9.4026   9.9084   9.9733
    10.0869  10.1332  10.3643  10.4819  10.7322  10.8089  10.8705  10.9514
    11.1244  11.1312  11.2690  11.3480  11.3558  11.4149  11.5023  11.5703
    11.6105  11.6489  11.7451  11.7541  11.8023  11.8593  11.9231  12.0006
    12.0009  12.0255  12.0727  12.0754  12.1246  12.1623  12.1778  12.2482
    12.2520  12.3191  12.3202  12.3582  12.4323  12.4403  12.5069  12.5636
    12.5707  12.6417  12.7151  12.7862  12.8193  12.9134  12.9475  12.9718
    13.0068  13.0457  13.1256  13.2209  13.2555  13.3253  13.3832  13.4203
    13.4240  13.5286  13.5523  13.6003  13.6283  13.6814  13.7425  13.7797
    13.8192  13.8274  13.8897  13.9041  14.0161  14.0332  14.0453  14.0740
    14.1316  14.1983  14.2894  14.3107  14.3149  14.4002  14.4528  14.4829
    14.5331  14.5557  14.6444  14.6974  14.7409  14.7463  14.7843  14.8157
    14.8518  14.8935  14.9436  14.9535  14.9989  15.0170  15.0495  15.0742
    15.1120  15.1349  15.1852  15.2071  15.2596  15.3542  15.4367  15.4424
    15.4995  15.5862  15.6606  15.6717  15.7221  15.8278  15.8484  15.9888
    16.0207  16.0213  16.0770  16.1170  16.1744  16.1876  16.3323  16.3572
    16.5171  16.5211  16.6916  16.7921  17.1948  17.3468  17.5387  17.6094
    17.6352  17.8427  19.2141  19.5340  20.0903  20.1706  20.2770  20.5768
    20.9029  21.0032  21.0959  21.4094  21.5625  21.5907  21.7638  22.0010
    22.1341  22.1539  22.4711  22.8073  23.7862  23.8313  23.8531  23.9558
    24.0073  24.1103  24.3305  24.4905  24.6859  24.8594  25.1232  25.4503
    25.7470

          k = 0.1250-0.2357 0.0000 ( 17785 PWs)   bands (ev):

     1.6687   1.6771   1.9939   2.0539   2.7265   2.7305   3.0635   3.3462
     4.3014   4.5171   4.5544   4.6978   4.7996   5.5071   6.0928   6.4101
     6.6478   7.4982   7.8368   8.6867   9.0605   9.1312  10.0021  10.1252
    10.1983  10.2579  10.3739  10.4496  10.6532  10.8450  10.8955  10.9963
    11.0939  11.1149  11.2538  11.2709  11.3152  11.3562  11.4227  11.4741
    11.5552  11.6047  11.6643  11.6843  11.7067  11.8191  11.8477  11.8851
    11.9274  12.0075  12.0254  12.1026  12.1181  12.1209  12.1826  12.2002
    12.2508  12.3167  12.3295  12.4054  12.4311  12.4830  12.5171  12.5661
    12.5764  12.6137  12.7534  12.8210  12.8692  12.9603  12.9852  13.0072
    13.0101  13.0836  13.1539  13.1824  13.2729  13.2835  13.3938  13.4600
    13.5082  13.5168  13.5693  13.5860  13.6385  13.7143  13.7454  13.7874
    13.8166  13.8708  13.9365  13.9801  14.0048  14.1123  14.1205  14.1946
    14.2060  14.2475  14.3389  14.3585  14.3974  14.4441  14.5316  14.5378
    14.5806  14.6575  14.6799  14.6805  14.7302  14.7463  14.8142  14.8426
    14.9630  14.9650  15.0172  15.0350  15.0395  15.0743  15.1284  15.1871
    15.1903  15.2971  15.2991  15.3341  15.4215  15.4629  15.5304  15.5322
    15.5904  15.6266  15.6624  15.7128  15.7340  15.7672  15.8592  15.9612
    15.9655  16.0283  16.0594  16.1727  16.2038  16.2138  16.3233  16.3718
    16.5090  16.5113  16.7109  16.9325  17.0477  17.2295  17.5008  17.6555
    17.7749  17.9571  18.8586  18.8604  19.7905  19.9285  20.1711  20.2931
    20.6317  20.9852  21.0471  21.3611  21.4886  21.5204  21.7964  21.9222
    22.0332  22.3755  22.4861  22.8064  23.4716  23.6622  23.7686  23.8093
    24.0842  24.1641  24.2417  24.3914  24.5409  24.9039  25.3994  25.4973
    25.8921

          k = 0.1250-0.1768 0.0000 ( 17796 PWs)   bands (ev):

     1.6466   1.6724   1.8606   1.9420   2.8576   2.8802   3.0128   3.3822
     4.2099   4.4391   4.5492   4.6154   4.7953   5.7165   6.0003   6.3254
     6.8450   7.4951   7.9120   8.6024   8.8209   8.9451   9.9113  10.0502
    10.2146  10.3834  10.4887  10.6745  10.7152  10.7502  10.9056  11.0003
    11.0829  11.1517  11.1627  11.1912  11.2568  11.3222  11.3498  11.4148
    11.4973  11.5627  11.5813  11.5890  11.6559  11.7194  11.7682  11.7919
    11.8205  11.9035  11.9464  12.0051  12.0252  12.0728  12.1425  12.1577
    12.2865  12.3497  12.3550  12.3863  12.4978  12.5048  12.5660  12.6213
    12.6743  12.6946  12.8602  12.8791  12.9459  12.9704  12.9947  13.0260
    13.0694  13.1231  13.1487  13.2273  13.2901  13.3052  13.4199  13.4860
    13.5137  13.6016  13.6086  13.6233  13.6532  13.6635  13.7325  13.7458
    13.8570  13.8940  13.9677  13.9709  14.0827  14.1080  14.1697  14.1965
    14.2291  14.2529  14.3612  14.4827  14.4827  14.5188  14.6019  14.6289
    14.6307  14.6681  14.7507  14.7508  14.8258  14.8683  14.9229  14.9255
    14.9507  15.0117  15.0842  15.0860  15.1314  15.1655  15.2532  15.2642
    15.2854  15.3502  15.3998  15.4641  15.5195  15.5534  15.5933  15.6179
    15.6718  15.7256  15.7579  15.8325  15.8544  15.8922  15.9413  16.0295
    16.0515  16.0823  16.1284  16.1898  16.2180  16.2708  16.3378  16.3690
    16.5550  16.6238  16.7301  16.9547  17.1006  17.1157  17.4048  17.4734
    17.7902  18.2019  18.4805  18.5854  19.4126  19.6181  19.8312  20.1413
    20.2341  20.2951  20.8016  21.1394  21.3098  21.3130  21.6251  21.6922
    22.1789  22.6263  22.8286  23.1600  23.4107  23.4909  23.5878  23.7051
    23.9937  24.0649  24.1636  24.2646  24.7599  25.1444  25.2203  25.7311
    25.9378

          k = 0.1250-0.1179 0.0000 ( 17815 PWs)   bands (ev):

     1.6176   1.6749   1.7596   1.8472   2.9271   3.0179   3.0238   3.3819
     4.1257   4.3502   4.5651   4.5862   4.7701   5.9138   5.9219   6.3029
     6.8174   7.5554   8.0774   8.4702   8.6422   8.8275   9.7488   9.8888
    10.3975  10.4449  10.5021  10.5901  10.8257  10.8838  10.9071  10.9950
    11.0127  11.1240  11.1889  11.1913  11.2580  11.2936  11.3372  11.3691
    11.4457  11.4500  11.5095  11.5430  11.5885  11.6772  11.6872  11.7039
    11.7974  11.7974  11.8626  11.9021  11.9160  12.0320  12.0569  12.1293
    12.3189  12.3683  12.4152  12.4621  12.5393  12.5580  12.6074  12.7023
    12.7431  12.8229  12.8997  12.9356  12.9518  13.0399  13.0695  13.0737
    13.1318  13.1578  13.1787  13.2577  13.3002  13.3245  13.3971  13.4693
    13.5159  13.5854  13.6020  13.6064  13.7128  13.7344  13.7393  13.7747
    13.8364  13.9157  13.9297  13.9845  14.0545  14.1258  14.1270  14.2533
    14.2877  14.3321  14.3380  14.4734  14.5732  14.5747  14.6111  14.6903
    14.6903  14.7652  14.7783  14.8448  14.8605  14.8843  14.9159  14.9271
    15.0608  15.0618  15.1139  15.1489  15.2268  15.2426  15.2818  15.2896
    15.4076  15.4286  15.4905  15.4944  15.5732  15.5992  15.6729  15.7172
    15.7210  15.7785  15.8169  15.8445  15.9208  15.9809  16.0395  16.0845
    16.1220  16.1409  16.1964  16.2439  16.3903  16.5334  16.5937  16.6545
    16.7167  16.7396  16.9107  16.9211  17.0176  17.0815  17.3319  17.3772
    17.9089  18.0942  18.4902  18.6854  19.0714  19.3437  19.3705  19.5339
    19.5762  20.0355  20.3256  20.3946  21.1551  21.1689  21.5840  21.6389
    22.4186  22.5207  23.2630  23.2876  23.4269  23.5164  23.6682  23.7495
    24.0195  24.1287  24.2509  24.3935  24.5776  24.9240  25.4184  25.8843
    26.2828

          k = 0.1250-0.0589 0.0000 ( 17791 PWs)   bands (ev):

     1.5882   1.6898   1.7026   1.7736   2.9199   3.0787   3.1539   3.3411
     4.0686   4.2948   4.5363   4.6309   4.7297   5.8562   6.1355   6.3021
     6.6041   7.7874   8.1080   8.3725   8.5317   8.7565   9.6468   9.7858
    10.3772  10.4421  10.4923  10.7013  10.8197  10.8413  10.9056  10.9194
    11.1280  11.1282  11.1772  11.2186  11.2392  11.3212  11.3494  11.3650
    11.4080  11.4426  11.4786  11.4902  11.5530  11.6042  11.6435  11.6820
    11.7245  11.7597  11.7774  11.8101  11.9147  11.9615  12.1342  12.1369
    12.2783  12.3611  12.5007  12.5359  12.5732  12.6308  12.6331  12.7903
    12.8161  12.8722  12.8951  12.9767  12.9934  13.0511  13.0773  13.1271
    13.1483  13.2123  13.2593  13.2666  13.3320  13.3591  13.4317  13.4439
    13.4726  13.5489  13.5656  13.5744  13.7008  13.7225  13.7354  13.8160
    13.8558  13.8826  13.9386  13.9389  14.0304  14.1516  14.1977  14.2582
    14.3063  14.3193  14.4053  14.4589  14.5465  14.5689  14.5982  14.7148
    14.7302  14.7905  14.8185  14.8389  14.8701  14.9122  14.9393  14.9998
    15.0070  15.1238  15.1320  15.1828  15.1954  15.2803  15.3377  15.3828
    15.4526  15.4878  15.5028  15.5488  15.6076  15.6139  15.6712  15.7443
    15.8059  15.8142  15.8766  15.9044  15.9842  16.0302  16.0376  16.0840
    16.0843  16.1616  16.2340  16.3792  16.5000  16.6636  16.6820  16.7691
    16.8845  16.9636  17.0282  17.1348  17.3231  17.3955  17.5344  17.6060
    17.7364  18.0516  18.4900  18.5792  18.8260  18.9372  18.9719  19.2067
    19.4147  19.5503  19.6648  19.8746  21.0730  21.1928  21.3289  21.5073
    22.4108  22.5285  23.1504  23.4804  23.6378  23.7891  23.9259  23.9767
    24.1792  24.2150  24.4182  24.6932  24.8539  25.0019  25.2400  25.4457
    25.4800

          k = 0.2500 0.0000 0.0000 ( 17793 PWs)   bands (ev):

     1.6029   1.7192   1.7204   2.0228   3.0228   3.0296   3.0323   3.1336
     4.1057   4.3016   4.5420   4.8016   4.8042   6.0305   6.3403   6.3405
     6.4025   8.2805   8.2817   8.3023   8.9516   9.1550   9.7695  10.0267
    10.1756  10.3644  10.5443  10.5837  10.5852  10.8198  10.8797  10.8825
    10.9148  11.0970  11.2320  11.2492  11.2650  11.2752  11.3003  11.3819
    11.4117  11.4318  11.4478  11.5130  11.5228  11.5893  11.6213  11.6289
    11.8132  11.8671  11.8746  12.0003  12.0047  12.0755  12.0797  12.2918
    12.5860  12.5964  12.6241  12.6436  12.7564  12.7581  12.7811  12.9115
    13.0137  13.0564  13.0611  13.0775  13.1710  13.1880  13.2093  13.2354
    13.3210  13.3360  13.3692  13.4337  13.4582  13.4670  13.5139  13.5207
    13.5237  13.5374  13.6056  13.6081  13.6352  13.7103  13.7183  13.7422
    13.8299  13.8646  13.9380  13.9646  13.9793  14.0215  14.0291  14.0487
    14.1114  14.1763  14.2236  14.3395  14.3476  14.4005  14.4530  14.5019
    14.5512  14.5694  14.5933  14.6368  14.6855  14.8391  14.8580  14.8810
    14.9683  14.9709  15.0064  15.0693  15.0878  15.1747  15.1918  15.2138
    15.3293  15.3349  15.3886  15.4101  15.5313  15.5983  15.6189  15.6603
    15.8285  15.8392  15.8547  15.9018  15.9251  15.9875  16.0058  16.0905
    16.1170  16.1252  16.1715  16.2041  16.4009  16.6018  16.6158  16.7232
    16.7247  16.8464  16.8743  17.3136  17.3139  17.4063  17.4519  17.8528
    17.8621  18.1506  18.2580  18.2591  18.9105  18.9494  18.9816  19.3075
    19.3150  19.3618  19.6357  19.9402  20.4923  20.5268  20.8950  20.9146
    21.8503  22.0085  22.0163  22.3780  23.0255  23.0295  23.1327  23.1603
    23.3376  23.3980  23.4203  23.8674  23.8775  24.0920  24.4254  24.4255
    25.0999

          k = 0.2500 0.0589 0.0000 ( 17783 PWs)   bands (ev):

     1.6141   1.6878   1.7729   2.0318   2.9220   3.0068   3.1238   3.1276
     4.1200   4.3297   4.5566   4.7605   4.8407   6.0486   6.1804   6.4047
     6.5043   7.9430   8.3307   8.5509   8.9882   9.1881   9.8001  10.0554
    10.1712  10.3103  10.5406  10.5945  10.6296  10.8256  10.8595  10.9219
    10.9471  11.0912  11.1387  11.2539  11.2887  11.3308  11.3457  11.4142
    11.4200  11.4394  11.4837  11.5040  11.5633  11.5846  11.6099  11.6870
    11.8023  11.8173  11.9527  11.9628  12.0228  12.0672  12.1024  12.3066
    12.4271  12.5346  12.6035  12.6443  12.6909  12.7573  12.8754  12.9083
    12.9894  13.0053  13.0550  13.0635  13.1007  13.1632  13.2106  13.2905
    13.2910  13.3429  13.4077  13.4135  13.4423  13.4723  13.4803  13.5170
    13.5247  13.5741  13.5974  13.6099  13.6834  13.7046  13.7250  13.7518
    13.8153  13.8342  13.8982  13.9225  13.9779  13.9991  14.0002  14.0511
    14.0769  14.1950  14.2692  14.3092  14.3381  14.3701  14.4379  14.4980
    14.5280  14.5449  14.5612  14.6178  14.6690  14.8220  14.8552  14.8713
    14.9445  14.9956  15.0113  15.0382  15.0925  15.1894  15.1997  15.2758
    15.3197  15.3457  15.3959  15.4180  15.5619  15.5979  15.6310  15.6693
    15.7784  15.8125  15.8483  15.8797  15.8908  15.9489  15.9606  16.0507
    16.1193  16.1551  16.1743  16.1869  16.4458  16.4775  16.5005  16.7350
    16.7879  16.9338  16.9944  17.0660  17.1503  17.2845  17.4298  17.5021
    17.8506  18.1970  18.2818  18.4611  18.7348  18.9307  19.0363  19.3594
    19.6913  19.7599  19.9178  19.9975  20.1002  20.3651  20.7838  21.3322
    21.8636  22.0350  22.2604  22.3382  22.3825  22.5684  22.7165  23.2313
    23.3839  23.8011  23.9687  24.0640  24.1327  24.2242  24.3826  24.7192
    25.2161

          k = 0.2500 0.1179 0.0000 ( 17763 PWs)   bands (ev):

     1.6436   1.6741   1.8484   2.0587   2.8084   2.9472   3.1131   3.2037
     4.1615   4.4120   4.5974   4.7156   4.8708   6.0255   6.0926   6.4257
     6.6483   7.6003   8.4116   8.7097   9.0961   9.2833   9.8484  10.0205
    10.1894  10.3616  10.4989  10.5778  10.7011  10.7532  10.8528  10.9591
    10.9904  11.0402  11.2241  11.2445  11.3017  11.3900  11.4104  11.4498
    11.4809  11.5198  11.5269  11.5822  11.5836  11.6370  11.6734  11.7532
    11.7977  11.8271  11.9296  11.9994  12.0667  12.1031  12.1405  12.2583
    12.3312  12.4274  12.5394  12.6532  12.6614  12.7438  12.8839  12.8853
    12.9542  12.9586  12.9979  13.0410  13.0719  13.1204  13.1802  13.2334
    13.2448  13.3084  13.3380  13.3721  13.4197  13.4657  13.4803  13.5166
    13.5317  13.5884  13.6176  13.6181  13.6390  13.6653  13.7076  13.7376
    13.7651  13.7886  13.8590  13.8697  13.9087  13.9580  13.9906  14.0075
    14.0202  14.0818  14.2162  14.2920  14.3401  14.3704  14.4057  14.4302
    14.4800  14.5182  14.5296  14.5581  14.6855  14.7824  14.8318  14.8562
    14.9321  14.9712  15.0046  15.0151  15.1007  15.1707  15.2282  15.2906
    15.3066  15.3879  15.4345  15.5348  15.5586  15.5852  15.6271  15.6740
    15.7329  15.7844  15.7915  15.8277  15.8523  15.8579  15.9206  15.9489
    16.0036  16.0981  16.1450  16.1850  16.2373  16.4301  16.4466  16.6189
    16.6453  16.7441  16.9178  16.9769  17.1788  17.4446  17.4653  17.4874
    17.6669  17.7419  18.2425  18.3269  19.1637  19.1870  19.4459  19.4727
    19.7435  19.8608  19.9516  20.1679  20.2223  20.6223  21.0265  21.4674
    21.5795  21.9036  21.9253  22.1609  22.3956  22.6586  22.8813  23.2467
    23.5156  23.5672  23.7921  24.2541  24.9342  24.9925  25.2503  25.4219
    25.4381

          k = 0.2500 0.1768 0.0000 ( 17751 PWs)   bands (ev):

     1.6750   1.6794   1.9460   2.1034   2.6959   2.8404   3.1225   3.2530
     4.2268   4.5445   4.6567   4.6680   4.8891   5.8661   6.1321   6.5059
     6.6819   7.3788   8.5304   8.7237   9.2683   9.4177   9.6761  10.1141
    10.1839  10.3493  10.4971  10.5137  10.6554  10.7982  10.8402  11.0195
    11.0853  11.1820  11.2029  11.3147  11.3816  11.4368  11.4886  11.5044
    11.5280  11.5505  11.6276  11.6535  11.7195  11.7354  11.7637  11.8342
    11.8389  11.9199  11.9792  12.0227  12.1203  12.1589  12.2005  12.2455
    12.3007  12.3742  12.4518  12.6309  12.6382  12.7089  12.7826  12.8093
    12.8723  12.9282  12.9552  12.9903  13.0417  13.0460  13.1305  13.1362
    13.2035  13.2780  13.2820  13.3132  13.3622  13.3849  13.4413  13.4652
    13.4811  13.5083  13.5637  13.5760  13.6209  13.6268  13.6709  13.7153
    13.7307  13.7733  13.7767  13.8612  13.8694  13.9040  13.9084  13.9624
    14.0148  14.0466  14.1649  14.1651  14.1967  14.2316  14.3707  14.3744
    14.4639  14.4973  14.5276  14.5401  14.7062  14.7151  14.7893  14.8209
    14.8734  14.9092  14.9932  14.9989  15.1006  15.1611  15.2357  15.2638
    15.3093  15.3743  15.4213  15.4983  15.5211  15.5335  15.5554  15.6472
    15.6797  15.7315  15.7368  15.7660  15.8125  15.8176  15.8521  15.8976
    15.9029  15.9527  16.0068  16.0833  16.1392  16.1753  16.3753  16.4057
    16.6256  16.6923  16.9147  17.0774  17.1349  17.3035  17.3875  17.5797
    17.8766  17.9406  18.3033  18.5230  18.9664  19.1897  19.4009  19.5405
    19.6245  20.1397  20.3859  20.4427  20.5407  20.7993  21.1131  21.2767
    21.4432  21.9721  21.9895  22.2685  22.4165  22.9311  22.9808  23.3254
    23.4997  23.6901  24.2610  24.4496  25.3812  25.3927  25.5822  25.6777
    26.0468

          k = 0.2500 0.2357 0.0000 ( 17768 PWs)   bands (ev):

     1.6858   1.7072   2.0627   2.1655   2.5888   2.7039   3.1515   3.2725
     4.3085   4.6154   4.7234   4.7243   4.8921   5.6822   6.1509   6.5278
     6.6752   7.3705   8.5979   8.6470   9.3586   9.4978   9.6761   9.8150
    10.3267  10.4245  10.5070  10.5584  10.7147  10.7975  10.9675  11.0569
    11.1956  11.1960  11.2899  11.3219  11.4644  11.4870  11.5230  11.5605
    11.5759  11.6160  11.6835  11.7417  11.8498  11.8584  11.9222  11.9427
    11.9921  12.0031  12.0882  12.1066  12.1715  12.1910  12.2270  12.2633
    12.3205  12.3896  12.4269  12.5877  12.5914  12.6488  12.6717  12.7030
    12.7642  12.8357  12.8611  12.9469  12.9561  13.0186  13.0734  13.0920
    13.0971  13.1701  13.2221  13.2236  13.2453  13.3378  13.3546  13.3987
    13.4057  13.4529  13.4787  13.4954  13.5248  13.6004  13.6160  13.6222
    13.6703  13.7301  13.7962  13.8048  13.8441  13.8800  13.8992  13.9464
    13.9819  14.0320  14.0579  14.1144  14.1706  14.2374  14.3039  14.3572
    14.3793  14.4511  14.4926  14.5393  14.6091  14.7017  14.7845  14.8249
    14.8445  14.9114  14.9301  14.9748  14.9917  15.0930  15.0955  15.1581
    15.2334  15.2596  15.3177  15.3424  15.3674  15.4435  15.4705  15.5452
    15.5550  15.6079  15.6873  15.7422  15.7759  15.8232  15.8447  15.8704
    15.9361  15.9720  16.0011  16.0213  16.1064  16.1335  16.3301  16.3648
    16.3826  16.7027  16.7725  17.0398  17.2216  17.3764  17.6026  17.7157
    17.8627  18.2974  18.4082  18.7208  18.7714  19.0655  19.4264  19.6322
    19.8193  20.1112  20.2371  20.5025  20.7356  20.8019  21.0867  21.7293
    21.8821  22.0742  22.2208  22.4058  22.4438  22.8375  22.9541  23.6346
    23.7836  23.9426  24.6437  24.8731  25.0913  25.6530  25.8389  25.8642
    26.0792

          k = 0.2500 0.2946 0.0000 ( 17790 PWs)   bands (ev):

     1.7010   1.7184   2.1893   2.2377   2.4943   2.5594   3.1923   3.2639
     4.3965   4.5538   4.7886   4.8765   4.9453   5.4556   6.1724   6.3444
     6.9186   7.3637   8.4740   8.6541   9.2593   9.5507   9.7569   9.8840
    10.2661  10.3157  10.5801  10.7842  10.8414  10.9267  11.0107  11.0471
    11.1134  11.2264  11.2510  11.3816  11.4135  11.4970  11.6124  11.6516
    11.6828  11.6952  11.7702  11.8125  11.9263  11.9394  12.0225  12.0389
    12.0740  12.0886  12.1960  12.2053  12.2342  12.2752  12.2870  12.3554
    12.3634  12.4453  12.4455  12.4926  12.5458  12.5732  12.6166  12.6542
    12.6937  12.7459  12.7650  12.8488  12.8602  12.9416  12.9886  13.0307
    13.0554  13.0746  13.0867  13.1452  13.2003  13.2591  13.2882  13.3273
    13.3765  13.3901  13.4328  13.4375  13.4846  13.4867  13.5073  13.5373
    13.6006  13.6929  13.6997  13.7359  13.8137  13.8616  13.8815  13.9440
    14.0049  14.0540  14.0862  14.1761  14.2044  14.2413  14.3039  14.3516
    14.3989  14.4621  14.4934  14.5715  14.6256  14.6720  14.6861  14.7630
    14.7848  14.8205  14.8540  14.8587  14.9200  14.9369  15.0167  15.0201
    15.0582  15.0863  15.2019  15.2303  15.2646  15.3399  15.3601  15.4663
    15.5487  15.6163  15.6868  15.7938  15.8252  15.8617  15.8634  15.9170
    15.9248  15.9813  15.9887  16.0495  16.0540  16.1721  16.1745  16.3959
    16.4031  16.5333  16.7155  16.8598  17.5072  17.6288  17.7689  17.8278
    17.9374  18.2259  18.3543  18.6549  18.7006  19.0646  19.5334  19.7719
    19.8457  20.0782  20.2253  20.7140  20.7447  20.9134  21.2166  21.7372
    22.0934  22.2117  22.4459  22.6656  22.7219  22.7932  22.8973  23.1079
    24.6899  24.7996  24.8363  24.8986  24.9807  25.3711  25.6648  25.8476
    25.9095

          k = 0.2500-0.3536 0.0000 ( 17788 PWs)   bands (ev):

     1.7143   1.7143   2.2768   2.2768   2.4569   2.4569   3.2338   3.2338
     4.4805   4.4805   4.8414   4.8414   5.1981   5.1981   6.2277   6.2277
     7.1857   7.1857   8.5253   8.5253   9.3577   9.3577  10.0260  10.0260
    10.1065  10.1065  10.8339  10.8339  10.9223  10.9223  11.0007  11.0007
    11.1383  11.1383  11.2816  11.2816  11.4799  11.4799  11.6672  11.6672
    11.7494  11.7494  11.8157  11.8157  11.9529  11.9529  12.0695  12.0695
    12.1078  12.1078  12.2554  12.2554  12.3031  12.3031  12.3688  12.3688
    12.3896  12.3896  12.4770  12.4770  12.5300  12.5300  12.6518  12.6518
    12.6992  12.6992  12.7752  12.7752  12.8206  12.8206  12.9684  12.9684
    13.0019  13.0019  13.1240  13.1240  13.1749  13.1749  13.2818  13.2818
    13.3382  13.3382  13.4143  13.4143  13.4837  13.4837  13.5119  13.5119
    13.6071  13.6071  13.6234  13.6234  13.8547  13.8547  13.9379  13.9379
    14.0012  14.0012  14.1410  14.1410  14.2514  14.2514  14.4268  14.4268
    14.5009  14.5009  14.5268  14.5268  14.6089  14.6089  14.6643  14.6643
    14.7075  14.7075  14.7810  14.7810  14.8510  14.8510  14.9757  14.9757
    15.0874  15.0874  15.1445  15.1445  15.2561  15.2561  15.4197  15.4197
    15.5673  15.5673  15.7511  15.7511  15.8716  15.8716  15.9160  15.9160
    15.9480  15.9480  15.9911  15.9911  16.0996  16.0996  16.3176  16.3176
    16.4282  16.4282  16.7550  16.7550  17.6609  17.6609  17.9514  17.9514
    18.0579  18.0579  18.2663  18.2663  19.1240  19.1240  19.3994  19.3994
    20.0577  20.0577  20.3843  20.3843  21.3235  21.3235  21.5704  21.5704
    21.7961  21.7961  22.4443  22.4443  22.6371  22.6371  23.8359  23.8359
    24.0927  24.0927  25.2427  25.2427  25.5332  25.5332  25.7770  25.7771
    25.9199

          k = 0.2500-0.2946 0.0000 ( 17790 PWs)   bands (ev):

     1.7010   1.7184   2.1893   2.2377   2.4943   2.5594   3.1923   3.2639
     4.3965   4.5538   4.7886   4.8765   4.9453   5.4556   6.1724   6.3444
     6.9186   7.3637   8.4740   8.6541   9.2593   9.5507   9.7569   9.8840
    10.2661  10.3157  10.5801  10.7842  10.8414  10.9267  11.0107  11.0471
    11.1134  11.2264  11.2510  11.3816  11.4135  11.4970  11.6124  11.6516
    11.6828  11.6952  11.7702  11.8125  11.9263  11.9394  12.0225  12.0389
    12.0740  12.0886  12.1960  12.2053  12.2342  12.2752  12.2870  12.3554
    12.3634  12.4453  12.4455  12.4926  12.5458  12.5732  12.6166  12.6542
    12.6937  12.7459  12.7650  12.8488  12.8602  12.9416  12.9886  13.0307
    13.0554  13.0746  13.0867  13.1453  13.2003  13.2591  13.2882  13.3273
    13.3765  13.3901  13.4328  13.4375  13.4846  13.4867  13.5073  13.5373
    13.6006  13.6929  13.6997  13.7359  13.8137  13.8616  13.8815  13.9440
    14.0049  14.0540  14.0862  14.1761  14.2044  14.2413  14.3039  14.3516
    14.3989  14.4621  14.4934  14.5715  14.6256  14.6720  14.6861  14.7630
    14.7848  14.8205  14.8540  14.8587  14.9200  14.9369  15.0167  15.0201
    15.0582  15.0863  15.2019  15.2303  15.2646  15.3399  15.3601  15.4663
    15.5487  15.6163  15.6868  15.7938  15.8252  15.8617  15.8634  15.9170
    15.9248  15.9813  15.9887  16.0495  16.0540  16.1721  16.1745  16.3959
    16.4031  16.5333  16.7155  16.8598  17.5072  17.6288  17.7689  17.8278
    17.9374  18.2259  18.3543  18.6549  18.7006  19.0646  19.5334  19.7719
    19.8457  20.0782  20.2253  20.7140  20.7447  20.9134  21.2166  21.7372
    22.0934  22.2117  22.4459  22.6656  22.7219  22.7932  22.8973  23.1079
    24.6899  24.7996  24.8363  24.8986  24.9807  25.3711  25.6648  25.8477
    25.9094

          k = 0.2500-0.2357 0.0000 ( 17768 PWs)   bands (ev):

     1.6858   1.7072   2.0627   2.1655   2.5888   2.7039   3.1515   3.2725
     4.3085   4.6154   4.7234   4.7243   4.8921   5.6822   6.1509   6.5278
     6.6752   7.3705   8.5979   8.6470   9.3586   9.4978   9.6761   9.8150
    10.3267  10.4245  10.5070  10.5584  10.7147  10.7975  10.9675  11.0569
    11.1956  11.1960  11.2899  11.3219  11.4644  11.4870  11.5230  11.5605
    11.5759  11.6160  11.6835  11.7417  11.8498  11.8584  11.9222  11.9427
    11.9921  12.0031  12.0882  12.1066  12.1715  12.1910  12.2270  12.2633
    12.3205  12.3896  12.4269  12.5877  12.5914  12.6488  12.6717  12.7030
    12.7642  12.8357  12.8611  12.9469  12.9561  13.0186  13.0734  13.0920
    13.0971  13.1701  13.2221  13.2236  13.2453  13.3378  13.3546  13.3987
    13.4057  13.4529  13.4787  13.4954  13.5248  13.6004  13.6160  13.6222
    13.6703  13.7301  13.7962  13.8048  13.8441  13.8800  13.8992  13.9464
    13.9819  14.0320  14.0579  14.1144  14.1706  14.2374  14.3039  14.3572
    14.3793  14.4511  14.4926  14.5393  14.6091  14.7017  14.7845  14.8249
    14.8445  14.9114  14.9301  14.9748  14.9917  15.0930  15.0955  15.1581
    15.2334  15.2596  15.3177  15.3424  15.3674  15.4435  15.4705  15.5452
    15.5550  15.6079  15.6873  15.7422  15.7759  15.8232  15.8447  15.8704
    15.9360  15.9720  16.0011  16.0213  16.1064  16.1335  16.3301  16.3648
    16.3826  16.7027  16.7725  17.0398  17.2216  17.3764  17.6026  17.7157
    17.8627  18.2974  18.4082  18.7208  18.7714  19.0655  19.4264  19.6322
    19.8193  20.1112  20.2371  20.5025  20.7356  20.8019  21.0867  21.7293
    21.8821  22.0742  22.2208  22.4058  22.4438  22.8375  22.9541  23.6346
    23.7836  23.9426  24.6437  24.8731  25.0913  25.6530  25.8389  25.8642
    26.0788

          k = 0.2500-0.1768 0.0000 ( 17751 PWs)   bands (ev):

     1.6750   1.6794   1.9460   2.1034   2.6959   2.8404   3.1225   3.2530
     4.2268   4.5445   4.6567   4.6680   4.8891   5.8661   6.1321   6.5059
     6.6819   7.3788   8.5304   8.7237   9.2683   9.4177   9.6761  10.1141
    10.1839  10.3493  10.4971  10.5137  10.6554  10.7982  10.8402  11.0195
    11.0853  11.1820  11.2029  11.3147  11.3816  11.4368  11.4886  11.5044
    11.5280  11.5505  11.6276  11.6535  11.7195  11.7354  11.7637  11.8342
    11.8389  11.9199  11.9792  12.0227  12.1203  12.1589  12.2005  12.2455
    12.3007  12.3742  12.4518  12.6309  12.6382  12.7089  12.7826  12.8093
    12.8723  12.9282  12.9552  12.9903  13.0417  13.0460  13.1305  13.1362
    13.2035  13.2780  13.2820  13.3132  13.3622  13.3849  13.4413  13.4652
    13.4811  13.5083  13.5637  13.5760  13.6209  13.6268  13.6709  13.7153
    13.7307  13.7733  13.7767  13.8612  13.8694  13.9040  13.9084  13.9624
    14.0148  14.0466  14.1649  14.1651  14.1967  14.2316  14.3707  14.3744
    14.4639  14.4973  14.5276  14.5401  14.7062  14.7151  14.7893  14.8209
    14.8734  14.9092  14.9932  14.9989  15.1006  15.1611  15.2357  15.2638
    15.3093  15.3743  15.4213  15.4983  15.5211  15.5335  15.5554  15.6472
    15.6797  15.7315  15.7368  15.7660  15.8125  15.8176  15.8521  15.8976
    15.9029  15.9527  16.0068  16.0833  16.1392  16.1753  16.3753  16.4057
    16.6256  16.6923  16.9147  17.0774  17.1349  17.3035  17.3875  17.5797
    17.8766  17.9406  18.3033  18.5230  18.9664  19.1897  19.4009  19.5405
    19.6245  20.1397  20.3859  20.4427  20.5407  20.7993  21.1131  21.2767
    21.4432  21.9721  21.9895  22.2685  22.4165  22.9311  22.9808  23.3254
    23.4997  23.6901  24.2610  24.4496  25.3812  25.3927  25.5822  25.6775
    26.0180

          k = 0.2500-0.1179 0.0000 ( 17763 PWs)   bands (ev):

     1.6436   1.6741   1.8484   2.0587   2.8084   2.9472   3.1131   3.2037
     4.1615   4.4120   4.5974   4.7156   4.8708   6.0255   6.0926   6.4257
     6.6483   7.6003   8.4116   8.7097   9.0961   9.2833   9.8484  10.0205
    10.1894  10.3616  10.4989  10.5778  10.7011  10.7532  10.8528  10.9591
    10.9904  11.0402  11.2241  11.2445  11.3017  11.3900  11.4104  11.4498
    11.4809  11.5198  11.5269  11.5822  11.5836  11.6370  11.6734  11.7532
    11.7977  11.8271  11.9296  11.9994  12.0667  12.1031  12.1405  12.2583
    12.3312  12.4274  12.5394  12.6532  12.6614  12.7438  12.8839  12.8853
    12.9542  12.9586  12.9979  13.0410  13.0719  13.1204  13.1802  13.2334
    13.2448  13.3084  13.3380  13.3721  13.4197  13.4657  13.4803  13.5166
    13.5317  13.5884  13.6176  13.6181  13.6390  13.6653  13.7076  13.7376
    13.7651  13.7886  13.8590  13.8697  13.9087  13.9580  13.9906  14.0075
    14.0202  14.0818  14.2162  14.2920  14.3401  14.3704  14.4057  14.4302
    14.4800  14.5182  14.5296  14.5581  14.6855  14.7824  14.8318  14.8562
    14.9321  14.9712  15.0046  15.0151  15.1007  15.1707  15.2282  15.2906
    15.3066  15.3879  15.4345  15.5348  15.5586  15.5852  15.6271  15.6740
    15.7329  15.7844  15.7915  15.8277  15.8523  15.8579  15.9206  15.9489
    16.0036  16.0981  16.1450  16.1850  16.2373  16.4301  16.4466  16.6189
[...]
    13.0654  13.0660  13.1171  13.1173  13.2651  13.2656  13.4019  13.4031
    13.4872  13.4881  13.5485  13.5502  13.6114  13.6115  13.7266  13.7269
    13.8181  13.8182  13.9579  13.9583  14.0514  14.0516  14.2790  14.2803
    14.2838  14.2842  14.3531  14.3533  14.8202  14.8207  14.9008  14.9016
    15.1008  15.1025  15.1970  15.1974  15.2331  15.2347  15.2541  15.2545
    15.2728  15.2728  15.3068  15.3070  15.3560  15.3565  15.3990  15.3999
    15.4341  15.4353  15.4717  15.4723  15.4913  15.4915  15.4994  15.5003
    15.5374  15.5388  15.7020  15.7021  15.8104  15.8116  15.8696  15.8707
    15.9470  15.9477  15.9685  15.9699  16.0492  16.0498  16.3249  16.3250
    16.6742  16.6762  16.8892  16.8907  18.1572  18.1576  18.4741  18.4747
    20.2227  20.2228  20.6858  20.6861  20.7192  20.7194  20.8132  20.8139
    20.8679  20.8686  21.3241  21.3249  21.3329  21.3330  21.7968  21.7986
    22.3274  22.3280  22.5083  22.5085  23.1166  23.1182  23.8709  23.8727
    23.9668

          k =-0.5000 0.0589 0.0000 ( 17814 PWs)   bands (ev):

     9.2202   9.2211   9.5094   9.5097   9.6369   9.6371   9.8037   9.8046
     9.8537   9.8545   9.9173   9.9184   9.9436   9.9443  10.0262  10.0269
    10.0523  10.0537  10.2776  10.2779  10.8028  10.8031  10.9321  10.9322
    11.0062  11.0070  11.0549  11.0551  11.1899  11.1908  11.3154  11.3163
    11.5596  11.5605  11.6354  11.6367  11.6793  11.6793  11.7686  11.7700
    11.9159  11.9162  12.0030  12.0048  12.0203  12.0207  12.0601  12.0604
    12.1598  12.1600  12.1672  12.1677  12.3381  12.3393  12.3579  12.3586
    12.4469  12.4475  12.5161  12.5167  12.5776  12.5780  12.5782  12.5783
    12.6480  12.6487  12.6674  12.6680  12.7364  12.7368  12.7612  12.7623
    12.8416  12.8418  12.8474  12.8478  12.9050  12.9051  12.9218  12.9223
    13.0331  13.0338  13.1335  13.1338  13.2342  13.2349  13.4210  13.4221
    13.4908  13.4919  13.6141  13.6144  13.6177  13.6187  13.7091  13.7095
    13.8836  13.8839  13.9470  13.9473  14.0028  14.0031  14.2747  14.2753
    14.3009  14.3021  14.3598  14.3602  14.6729  14.6737  14.8474  14.8479
    14.9139  14.9146  15.0139  15.0149  15.1201  15.1208  15.1425  15.1430
    15.2479  15.2482  15.3095  15.3100  15.3271  15.3273  15.3488  15.3494
    15.4053  15.4061  15.4213  15.4220  15.4649  15.4654  15.5181  15.5186
    15.6178  15.6183  15.6866  15.6868  15.8602  15.8606  15.8733  15.8743
    16.0050  16.0058  16.0106  16.0112  16.0851  16.0856  16.2792  16.2793
    16.8453  16.8474  17.1079  17.1092  17.9930  17.9934  18.2641  18.2646
    19.9288  19.9293  20.2209  20.2214  20.8597  20.8599  21.0494  21.0498
    21.0891  21.0896  21.6623  21.6628  21.8235  21.8253  21.8823  21.8826
    22.1738  22.1749  22.4880  22.4887  23.1248  23.1263  24.0844  24.0863
    24.4113

          k =-0.5000 0.1179 0.0000 ( 17794 PWs)   bands (ev):

     9.3018   9.3026   9.5382   9.5386   9.7139   9.7142   9.8937   9.8946
     9.9491   9.9499   9.9502   9.9514  10.0361  10.0369  10.0918  10.0932
    10.1296  10.1303  10.4012  10.4015  10.8351  10.8355  10.9619  10.9621
    11.0620  11.0628  11.1079  11.1081  11.2291  11.2301  11.3470  11.3477
    11.5730  11.5739  11.6559  11.6571  11.6602  11.6602  11.8049  11.8060
    11.9184  11.9201  11.9235  11.9238  12.0005  12.0012  12.0332  12.0340
    12.1169  12.1172  12.1521  12.1524  12.2693  12.2699  12.3089  12.3102
    12.4047  12.4052  12.4319  12.4326  12.5312  12.5316  12.5693  12.5695
    12.5723  12.5728  12.6707  12.6710  12.7166  12.7169  12.7364  12.7374
    12.8010  12.8016  12.8549  12.8555  12.9155  12.9158  12.9652  12.9661
    12.9999  13.0005  13.1772  13.1777  13.2058  13.2061  13.4071  13.4079
    13.5715  13.5722  13.5757  13.5762  13.6417  13.6424  13.7531  13.7539
    13.8571  13.8576  13.9398  13.9401  13.9826  13.9829  14.2442  14.2450
    14.3485  14.3491  14.3639  14.3644  14.4709  14.4716  14.5332  14.5335
    14.6453  14.6458  14.6999  14.7001  14.8017  14.8031  14.9138  14.9146
    15.0479  15.0487  15.1201  15.1205  15.2058  15.2063  15.2758  15.2761
    15.2829  15.2833  15.3417  15.3421  15.5721  15.5728  15.6420  15.6423
    15.6668  15.6670  15.7682  15.7684  15.8172  15.8181  15.8384  15.8391
    15.9094  15.9098  16.1773  16.1775  16.2647  16.2650  16.3723  16.3727
    17.2545  17.2562  17.5725  17.5735  17.6569  17.6573  17.8663  17.8668
    19.3445  19.3450  19.5784  19.5789  21.2511  21.2516  21.4197  21.4200
    21.6390  21.6393  21.8671  21.8675  21.9050  21.9068  21.9256  21.9258
    22.9358  22.9361  23.1120  23.1128  23.1511  23.1526  24.6469  24.6476
    24.8328

          k =-0.5000 0.1768 0.0000 ( 17756 PWs)   bands (ev):

     9.4185   9.4193   9.5806   9.5810   9.8253   9.8257   9.9988   9.9999
    10.0328  10.0335  10.0967  10.0974  10.1524  10.1537  10.1709  10.1718
    10.2923  10.2932  10.5960  10.5962  10.8725  10.8730  11.0005  11.0008
    11.1640  11.1648  11.1832  11.1835  11.2816  11.2824  11.4112  11.4116
    11.5649  11.5656  11.5824  11.5829  11.7009  11.7019  11.8182  11.8194
    11.8198  11.8202  11.9036  11.9040  11.9965  11.9976  12.0489  12.0501
    12.1004  12.1007  12.1070  12.1076  12.1469  12.1477  12.2913  12.2922
    12.3048  12.3056  12.3767  12.3770  12.4097  12.4103  12.4532  12.4539
    12.5073  12.5073  12.6496  12.6505  12.6773  12.6777  12.7225  12.7234
    12.7776  12.7784  12.9165  12.9170  12.9929  12.9936  13.0396  13.0397
    13.0513  13.0522  13.1770  13.1771  13.2273  13.2278  13.3983  13.3989
    13.4421  13.4428  13.4534  13.4539  13.6308  13.6313  13.7588  13.7588
    13.8854  13.8858  13.9347  13.9349  14.0006  14.0011  14.0726  14.0728
    14.0944  14.0947  14.2226  14.2230  14.2586  14.2594  14.3482  14.3486
    14.3825  14.3829  14.4308  14.4317  14.6272  14.6278  14.7699  14.7704
    14.8657  14.8660  14.9155  14.9161  14.9765  14.9770  15.0939  15.0941
    15.1707  15.1712  15.3117  15.3119  15.5824  15.5825  15.6922  15.6927
    15.7135  15.7143  15.7476  15.7479  15.7792  15.7797  15.8635  15.8640
    15.9712  15.9716  16.0538  16.0539  16.5879  16.5882  16.7131  16.7135
    17.3195  17.3198  17.4928  17.4932  17.7754  17.7768  18.1034  18.1043
    18.8229  18.8234  19.0156  19.0161  20.8201  20.8208  21.1362  21.1368
    22.0461  22.0478  22.3576  22.3578  22.7391  22.7395  22.8453  22.8456
    23.2010  23.2025  23.8657  23.8663  24.0593  24.0605  24.5908  24.5916
    24.7094

          k =-0.5000 0.2357 0.0000 ( 17778 PWs)   bands (ev):

     9.5402   9.5409   9.6270   9.6273   9.9468   9.9474  10.0522  10.0532
    10.1971  10.1975  10.2250  10.2263  10.2750  10.2752  10.3277  10.3284
    10.4989  10.4999  10.8384  10.8386  10.8826  10.8831  11.0133  11.0140
    11.2084  11.2090  11.3207  11.3216  11.3376  11.3381  11.5087  11.5095
    11.5192  11.5193  11.5232  11.5248  11.7300  11.7313  11.7872  11.7882
    11.8062  11.8064  11.8940  11.8941  11.9885  11.9892  12.0062  12.0068
    12.0471  12.0485  12.0521  12.0529  12.1203  12.1213  12.1649  12.1658
    12.2562  12.2569  12.2827  12.2835  12.3460  12.3467  12.4491  12.4493
    12.5018  12.5021  12.5426  12.5432  12.5757  12.5762  12.7289  12.7294
    12.8608  12.8613  12.9795  12.9802  12.9866  12.9873  13.0123  13.0131
    13.0869  13.0871  13.1812  13.1813  13.2342  13.2343  13.2491  13.2494
    13.3819  13.3825  13.4953  13.4957  13.5126  13.5132  13.6162  13.6165
    13.6835  13.6839  13.7450  13.7455  13.9157  13.9160  13.9195  13.9198
    13.9703  13.9708  14.0697  14.0704  14.0794  14.0794  14.1884  14.1887
    14.2421  14.2425  14.2744  14.2747  14.6090  14.6095  14.7156  14.7159
    14.7373  14.7378  14.7528  14.7530  14.8919  14.8922  14.9086  14.9089
    14.9923  14.9930  15.3541  15.3543  15.5096  15.5100  15.6329  15.6335
    15.6836  15.6843  15.7040  15.7044  15.7310  15.7315  15.9037  15.9037
    16.0538  16.0542  16.1936  16.1940  16.9389  16.9393  17.0232  17.0235
    17.0588  17.0591  17.1809  17.1813  18.3417  18.3429  18.3857  18.3863
    18.5390  18.5393  18.6363  18.6372  20.4021  20.4029  20.6140  20.6147
    22.2561  22.2576  23.2836  23.2851  23.3675  23.3677  23.7520  23.7527
    23.8991  23.8995  23.9293  23.9301  24.1701  24.1708  25.1077  25.1085
    25.3165

          k =-0.5000 0.2946 0.0000 ( 17762 PWs)   bands (ev):

     9.6312   9.6317   9.6631   9.6635  10.0472  10.0480  10.0929  10.0939
    10.2945  10.2957  10.3155  10.3165  10.4593  10.4602  10.5212  10.5218
    10.7256  10.7266  10.8162  10.8168  10.9223  10.9234  11.0870  11.0874
    11.1036  11.1046  11.3922  11.3929  11.4676  11.4685  11.4992  11.4994
    11.5736  11.5750  11.6140  11.6148  11.7593  11.7596  11.7627  11.7627
    11.8361  11.8365  11.8432  11.8434  11.9556  11.9560  11.9688  11.9693
    12.0079  12.0090  12.0752  12.0766  12.0798  12.0809  12.1682  12.1694
    12.1865  12.1872  12.2490  12.2501  12.2775  12.2780  12.4165  12.4169
    12.4968  12.4970  12.5212  12.5216  12.5560  12.5561  12.6123  12.6124
    12.7403  12.7410  12.8438  12.8440  12.9106  12.9109  12.9477  12.9480
    12.9495  12.9497  13.1949  13.1954  13.3414  13.3423  13.3533  13.3539
    13.3845  13.3849  13.4044  13.4047  13.4425  13.4431  13.4872  13.4876
    13.6222  13.6234  13.7119  13.7124  13.7301  13.7303  13.8370  13.8374
    13.8564  13.8569  13.8813  13.8820  13.9192  13.9200  14.0872  14.0876
    14.2335  14.2339  14.3692  14.3695  14.4979  14.4979  14.5229  14.5236
    14.5810  14.5817  14.7091  14.7094  14.7286  14.7291  14.8448  14.8458
    15.1585  15.1588  15.3985  15.3989  15.4487  15.4493  15.5881  15.5886
    15.6313  15.6321  15.6661  15.6665  15.7119  15.7124  15.7482  15.7484
    16.2771  16.2774  16.4283  16.4287  16.7592  16.7594  16.9127  16.9130
    17.2948  17.2952  17.4035  17.4037  18.0050  18.0056  18.1262  18.1264
    18.9208  18.9219  19.1406  19.1414  19.9909  19.9916  20.0822  20.0829
    22.5472  22.5486  23.3919  23.3928  23.4110  23.4123  23.8405  23.8413
    24.4845  24.4847  24.9166  24.9170  25.0387  25.0390  26.0847  26.0851
    26.3220

          k =-0.5000-0.3536 0.0000 ( 17712 PWs)   bands (ev):

     9.6706   9.6706   9.6711   9.6711  10.0976  10.0976  10.0985  10.0985
    10.3365  10.3365  10.3377  10.3377  10.6571  10.6571  10.6582  10.6582
    10.7335  10.7335  10.7344  10.7344  10.9391  10.9391  10.9401  10.9401
    11.2932  11.2932  11.2939  11.2939  11.5056  11.5056  11.5070  11.5070
    11.6851  11.6851  11.6859  11.6859  11.7400  11.7400  11.7406  11.7406
    11.8110  11.8110  11.8115  11.8115  11.9570  11.9570  11.9573  11.9573
    12.0721  12.0721  12.0724  12.0724  12.1748  12.1748  12.1755  12.1755
    12.2427  12.2427  12.2433  12.2433  12.3114  12.3114  12.3117  12.3117
    12.4007  12.4007  12.4010  12.4010  12.4871  12.4871  12.4873  12.4873
    12.7354  12.7354  12.7358  12.7358  12.8425  12.8425  12.8429  12.8429
    13.1654  13.1654  13.1661  13.1661  13.2695  13.2695  13.2708  13.2708
    13.4096  13.4096  13.4109  13.4109  13.6074  13.6074  13.6080  13.6080
    13.6376  13.6376  13.6380  13.6380  13.6810  13.6810  13.6815  13.6815
    13.7811  13.7811  13.7818  13.7818  13.9402  13.9402  13.9407  13.9407
    14.3332  14.3332  14.3334  14.3334  14.5071  14.5071  14.5078  14.5078
    14.5374  14.5374  14.5376  14.5376  14.7559  14.7559  14.7568  14.7568
    15.3724  15.3724  15.3729  15.3729  15.4658  15.4658  15.4663  15.4663
    15.6300  15.6300  15.6305  15.6305  15.6987  15.6987  15.6990  15.6990
    16.5129  16.5129  16.5131  16.5131  16.6664  16.6664  16.6667  16.6667
    17.6485  17.6485  17.6490  17.6490  17.7542  17.7542  17.7543  17.7543
    19.4903  19.4903  19.4910  19.4910  19.6052  19.6052  19.6057  19.6057
    22.9281  22.9281  22.9292  22.9292  23.5956  23.5956  23.5968  23.5968
    25.6522  25.6522  25.6524  25.6524  26.0607  26.0607  26.0611  26.0611
    26.2015

     the Fermi energy is    17.6700 ev

!    total energy              =  -21703.28323551 Ry

     total all-electron energy =  -1064670.973785 Ry
     estimated scf accuracy    <          4.4E-09 Ry
     smearing contrib. (-TS)   =      -0.00352799 Ry
     internal energy E=F+TS    =  -21703.27970751 Ry

     The total energy is F=E-TS. E is the sum of the following terms:
     one-electron contribution =     442.65507861 Ry
     hartree contribution      =     203.45546500 Ry
     xc contribution           =    -901.80312295 Ry
     ewald contribution        =   -2056.34089733 Ry
     one-center paw contrib.   =  -19391.24623085 Ry

     convergence has been achieved in  15 iterations

     Forces acting on atoms (cartesian axes, Ry/au):

     atom    1 type  1   force =     0.08515446    0.00000003   -0.00029473
     atom    2 type  1   force =     0.08515445    0.00000003   -0.00029471
     atom    3 type  1   force =    -0.01490172   -0.00000001    0.00061618
     atom    4 type  1   force =    -0.01490175   -0.00000002    0.00061621
     atom    5 type  1   force =     0.00104513   -0.00000001   -0.00046239
     atom    6 type  1   force =     0.00104514   -0.00000002   -0.00046249
     atom    7 type  1   force =    -0.00065512    0.00000002   -0.00034486
     atom    8 type  1   force =    -0.00065514   -0.00000002   -0.00034482
     atom    9 type  1   force =    -0.00065950    0.00000003   -0.00033347
     atom   10 type  1   force =    -0.00065949    0.00000001   -0.00033331
     atom   11 type  1   force =     0.00103937   -0.00000007    0.00042694
     atom   12 type  1   force =     0.00103930   -0.00000003    0.00042698
     atom   13 type  1   force =    -0.01491703    0.00000005   -0.00009788
     atom   14 type  1   force =    -0.01491700   -0.00000003   -0.00009778
     atom   15 type  1   force =     0.08548696   -0.00000002    0.00032055
     atom   16 type  1   force =     0.08548699   -0.00000001    0.00032037
     atom   17 type  1   force =    -0.08578873   -0.00000004    0.00041786
     atom   18 type  1   force =    -0.08578877    0.00000001    0.00041780
     atom   19 type  1   force =     0.01537873    0.00000002   -0.00050404
     atom   20 type  1   force =     0.01537875   -0.00000001   -0.00050400
     atom   21 type  1   force =    -0.00054251    0.00000001    0.00028765
     atom   22 type  1   force =    -0.00054255    0.00000003    0.00028763
     atom   23 type  1   force =    -0.00054844    0.00000001    0.00019362
     atom   24 type  1   force =    -0.00054848   -0.00000000    0.00019360
     atom   25 type  1   force =     0.01540971    0.00000001   -0.00029550
     atom   26 type  1   force =     0.01540974    0.00000006   -0.00029558
     atom   27 type  1   force =    -0.08550127    0.00000002    0.00007008
     atom   28 type  1   force =    -0.08550123   -0.00000004    0.00007009

     Total force =     0.001922     Total SCF correction =     0.000238
     SCF correction compared to forces is large: reduce conv_thr to get better values
     Energy error            =      1.4E-05 Ry
     Gradient error          =      6.2E-04 Ry/Bohr

     bfgs converged in  15 scf cycles and  14 bfgs steps
     (criteria: energy <  1.0E-04 Ry, force <  1.0E-03 Ry/Bohr)

     End of BFGS Geometry Optimization

     Final energy             =  -21703.2832355063 Ry

     File ./pwscf.bfgs deleted, as requested
Begin final coordinates

ATOMIC_POSITIONS (angstrom)
Au            2.0400000000        1.4424978336        0.7992386515    0   0   1
Au            2.0400000000        4.3274935009        0.7992387466    0   0   1
Au            0.0000000000        0.0000000000        1.9566783320    0   0   1
Au            0.0000000000        2.8849956672        1.9566782001    0   0   1
Au            2.0400000000        1.4424978336        3.4097624911    0   0   1
Au            2.0400000000        4.3274935009        3.4097626430    0   0   1
Au            0.0000000000        0.0000000000        4.6558689563    0   0   1
Au            0.0000000000        2.8849956672        4.6558688649    0   0   1
Au            2.0400000000        1.4424978336        6.0609618829    0   0   1
Au            2.0400000000        4.3274935009        6.0609617083    0   0   1
Au            0.0000000000        0.0000000000        7.3064872203    0   0   1
Au            0.0000000000        2.8849956672        7.3064872029    0   0   1
Au            2.0400000000        1.4424978336        8.7583362339    0   0   1
Au            2.0400000000        4.3274935009        8.7583361926    0   0   1
Au            0.0000000000        0.0000000000        9.9164922220    0   0   1
Au            0.0000000000        2.8849956672        9.9164922385    0   0   1
Au            2.6520000000        1.4424978336       11.5110341041    0   0   1
Au            2.6520000000        4.3274935009       11.5110342189    0   0   1
Au            0.6120000000        0.0000000000       12.6581226527    0   0   1
Au            0.6120000000        2.8849956672       12.6581225492    0   0   1
Au            2.6520000000        1.4424978336       14.1297655206    0   0   1
Au            2.6520000000        4.3274935009       14.1297656477    0   0   1
Au            0.6120000000        0.0000000000       15.3376752491    0   0   1
Au            0.6120000000        2.8849956672       15.3376752267    0   0   1
Au            2.6520000000        1.4424978336       16.8108105636    0   0   1
Au            2.6520000000        4.3274935009       16.8108106973    0   0   1
Au            0.6120000000        0.0000000000       17.9560687601    0   0   1
Au            0.6120000000        2.8849956672       17.9560687418    0   0   1
End final coordinates



     Writing all to output data dir ./pwscf.save/
 
     init_run     :     21.53s CPU     22.24s WALL (       1 calls)
     electrons    :  32553.07s CPU  33160.82s WALL (      16 calls)
     update_pot   :      7.48s CPU      7.66s WALL (      15 calls)
     forces       :    142.87s CPU    143.93s WALL (      16 calls)

     Called by init_run:
     wfcinit      :     20.80s CPU     21.14s WALL (       1 calls)
     potinit      :      0.44s CPU      0.56s WALL (       1 calls)
     hinit0       :      0.17s CPU      0.32s WALL (       1 calls)

     Called by electrons:
     c_bands      :  29307.65s CPU  29853.84s WALL (     629 calls)
     sum_band     :   3007.00s CPU   3041.24s WALL (     629 calls)
     v_of_rho     :     18.78s CPU     32.85s WALL (     640 calls)
     newd         :     40.94s CPU     51.16s WALL (     640 calls)
     PAW_pot      :    182.50s CPU    183.04s WALL (     655 calls)
     mix_rho      :      3.89s CPU      3.91s WALL (     629 calls)

     Called by c_bands:
     init_us_2    :    268.69s CPU    270.68s WALL (   64500 calls)
     init_us_2:cp :    268.23s CPU    270.50s WALL (   64500 calls)
     cegterg      :  27856.83s CPU  28390.20s WALL (   31585 calls)

     Called by *egterg:
     cdiaghg      :   2625.89s CPU   2743.91s WALL (  106613 calls)
     h_psi        :  13559.60s CPU  13771.64s WALL (  107798 calls)
     s_psi        :   2603.68s CPU   2616.21s WALL (  107798 calls)
     g_psi        :     48.76s CPU     49.26s WALL (   76163 calls)

     Called by h_psi:
     h_psi:calbec :   2761.54s CPU   2771.03s WALL (  107798 calls)
     vloc_psi     :   7956.60s CPU   8065.66s WALL (  107798 calls)
     add_vuspsi   :   2772.13s CPU   2797.76s WALL (  107798 calls)

     General routines
     calbec       :   3964.76s CPU   3977.88s WALL (  143198 calls)
     fft          :     14.90s CPU     34.73s WALL (    8484 calls)
     ffts         :      0.78s CPU      0.84s WALL (    1269 calls)
     fftw         :   8908.39s CPU   9012.32s WALL (34624304 calls)
     interpolate  :      1.63s CPU      2.55s WALL (     640 calls)
 
     Parallel routines
 
     PWSCF        :      9h 6m CPU      9h16m WALL

 
   This run was terminated on:  18:39:17   9Mar2024            

=------------------------------------------------------------------------------=
   JOB DONE.
=------------------------------------------------------------------------------=
