MPI startup(): Warning: I_MPI_PMI_LIBRARY will be ignored since the hydra process manager was found
MPI startup(): Warning: I_MPI_PMI_LIBRARY will be ignored since the hydra process manager was found
MPI startup(): Warning: I_MPI_PMI_LIBRARY will be ignored since the hydra process manager was found
MPI startup(): Warning: I_MPI_PMI_LIBRARY will be ignored since the hydra process manager was found
MPI startup(): Warning: I_MPI_PMI_LIBRARY will be ignored since the hydra process manager was found
MPI startup(): Warning: I_MPI_PMI_LIBRARY will be ignored since the hydra process manager was found
MPI startup(): Warning: I_MPI_PMI_LIBRARY will be ignored since the hydra process manager was found
MPI startup(): Warning: I_MPI_PMI_LIBRARY will be ignored since the hydra process manager was found
MPI startup(): Warning: I_MPI_PMI_LIBRARY will be ignored since the hydra process manager was found
MPI startup(): Warning: I_MPI_PMI_LIBRARY will be ignored since the hydra process manager was found

     Program PWSCF v.7.0 starts on 17Mar2024 at 11: 6:10 

     This program is part of the open-source Quantum ESPRESSO suite
     for quantum simulation of materials; please cite
         "P. Giannozzi et al., J. Phys.:Condens. Matter 21 395502 (2009);
         "P. Giannozzi et al., J. Phys.:Condens. Matter 29 465901 (2017);
         "P. Giannozzi et al., J. Chem. Phys. 152 154105 (2020);
          URL http://www.quantum-espresso.org", 
     in publications or presentations arising from this work. More details at
     http://www.quantum-espresso.org/quote

     Parallel version (MPI), running on    10 processors

     MPI processes distributed on     1 nodes
     R & G space division:  proc/nbgrp/npool/nimage =      10
     132181 MiB available memory on the printing compute node when the environment starts
 
     Reading input from GSF110R_0.25.in
Warning: card &CELL ignored
Warning: card / ignored

     Current dimensions of program PWSCF are:
     Max number of different atomic species (ntypx) = 10
     Max number of k-points (npk) =  40000
     Max angular momentum in pseudopotentials (lmaxx) =  4
     file Au.pbe-n-kjpaw_psl.1.0.0.UPF: wavefunction(s)  6S 5D renormalized
     Found identity + (  0.0000 -0.5000  0.0000) symmetry
     This is a supercell, fractional translations are disabled

     Subspace diagonalization in iterative solution of the eigenvalue problem:
     one sub-group per band group will be used
     scalapack distributed-memory algorithm (size of sub-group:  3*  3 procs)

 
     Parallelization info
     --------------------
     sticks:   dense  smooth     PW     G-vecs:    dense   smooth      PW
     Min         133     133     38                14227    14227    2178
     Max         134     134     39                14242    14242    2183
     Sum        1339    1339    389               142317   142317   21821
 
     Using Slab Decomposition
 


     bravais-lattice index     =            0
     lattice parameter (alat)  =       7.7101  a.u.
     unit-cell volume          =    2979.1368 (a.u.)^3
     number of atoms/cell      =           28
     number of atomic types    =            1
     number of electrons       =       308.00
     number of Kohn-Sham states=          185
     kinetic-energy cutoff     =      50.0000  Ry
     charge density cutoff     =     200.0000  Ry
     scf convergence threshold =      1.0E-06
     mixing beta               =       0.1000
     number of iterations used =            8  plain     mixing
     energy convergence thresh.=      1.0E-04
     force convergence thresh. =      1.0E-03
     Exchange-correlation= SLA  PW   PBX  PBC
                           (   1   4   3   4   0   0   0)
     nstep                     =           50


     celldm(1)=   7.710083  celldm(2)=   0.000000  celldm(3)=   0.000000
     celldm(4)=   0.000000  celldm(5)=   0.000000  celldm(6)=   0.000000

     crystal axes: (cart. coord. in units of alat)
               a(1) = (   1.000000   0.000000   0.000000 )  
               a(2) = (   0.000000   1.414214   0.000000 )  
               a(3) = (   0.000000   0.000000   4.596194 )  

     reciprocal axes: (cart. coord. in units 2 pi/alat)
               b(1) = (  1.000000  0.000000  0.000000 )  
               b(2) = (  0.000000  0.707107  0.000000 )  
               b(3) = (  0.000000  0.000000  0.217571 )  


     PseudoPot. # 1 for Au read from file:
     ./Au.pbe-n-kjpaw_psl.1.0.0.UPF
     MD5 check sum: 4db85c736373c707a97ce4c36c2a9d23
     Pseudo is Projector augmented-wave + core cor, Zval = 11.0
     Generated using &quot;atomic&quot; code by A. Dal Corso  v.6.3
     Shape of augmentation charge: PSQ
     Using radial grid of 1279 points,  6 beta functions with: 
                l(1) =   0
                l(2) =   0
                l(3) =   1
                l(4) =   1
                l(5) =   2
                l(6) =   2
     Q(r) pseudized with 0 coefficients 


     atomic species   valence    mass     pseudopotential
        Au            11.00   196.96657     Au( 1.00)

     No symmetry found



   Cartesian axes

     site n.     atom                  positions (alat units)
         1           Au  tau(   1) = (   0.5000000   0.3535534   0.0000000  )
         2           Au  tau(   2) = (   0.5000000   1.0606602   0.0000000  )
         3           Au  tau(   3) = (   0.0000000   0.0000000   0.3535534  )
         4           Au  tau(   4) = (   0.0000000   0.7071068   0.3535534  )
         5           Au  tau(   5) = (   0.5000000   0.3535534   0.7071068  )
         6           Au  tau(   6) = (   0.5000000   1.0606602   0.7071068  )
         7           Au  tau(   7) = (   0.0000000   0.0000000   1.0606602  )
         8           Au  tau(   8) = (   0.0000000   0.7071068   1.0606602  )
         9           Au  tau(   9) = (   0.5000000   0.3535534   1.4142136  )
        10           Au  tau(  10) = (   0.5000000   1.0606602   1.4142136  )
        11           Au  tau(  11) = (   0.0000000   0.0000000   1.7677670  )
        12           Au  tau(  12) = (   0.0000000   0.7071068   1.7677670  )
        13           Au  tau(  13) = (   0.5000000   0.3535534   2.1213203  )
        14           Au  tau(  14) = (   0.5000000   1.0606602   2.1213203  )
        15           Au  tau(  15) = (   0.0000000   0.0000000   2.4748737  )
        16           Au  tau(  16) = (   0.0000000   0.7071068   2.4748737  )
        17           Au  tau(  17) = (   0.7500000   0.3535534   2.8284271  )
        18           Au  tau(  18) = (   0.7500000   1.0606602   2.8284271  )
        19           Au  tau(  19) = (   0.2500000   0.0000000   3.1819805  )
        20           Au  tau(  20) = (   0.2500000   0.7071068   3.1819805  )
        21           Au  tau(  21) = (   0.7500000   0.3535534   3.5355339  )
        22           Au  tau(  22) = (   0.7500000   1.0606602   3.5355339  )
        23           Au  tau(  23) = (   0.2500000   0.0000000   3.8890873  )
        24           Au  tau(  24) = (   0.2500000   0.7071068   3.8890873  )
        25           Au  tau(  25) = (   0.7500000   0.3535534   4.2426407  )
        26           Au  tau(  26) = (   0.7500000   1.0606602   4.2426407  )
        27           Au  tau(  27) = (   0.2500000   0.0000000   4.5961941  )
        28           Au  tau(  28) = (   0.2500000   0.7071068   4.5961941  )

     number of k points=    50  Gaussian smearing, width (Ry)=  0.2000
                       cart. coord. in units 2pi/alat
        k(    1) = (   0.0000000   0.0000000   0.0000000), wk =   0.0208333
        k(    2) = (   0.0000000   0.0589256   0.0000000), wk =   0.0416667
        k(    3) = (   0.0000000   0.1178511   0.0000000), wk =   0.0416667
        k(    4) = (   0.0000000   0.1767767   0.0000000), wk =   0.0416667
        k(    5) = (   0.0000000   0.2357023   0.0000000), wk =   0.0416667
        k(    6) = (   0.0000000   0.2946278   0.0000000), wk =   0.0416667
        k(    7) = (   0.0000000  -0.3535534   0.0000000), wk =   0.0208333
        k(    8) = (   0.1250000   0.0000000   0.0000000), wk =   0.0416667
        k(    9) = (   0.1250000   0.0589256   0.0000000), wk =   0.0416667
        k(   10) = (   0.1250000   0.1178511   0.0000000), wk =   0.0416667
        k(   11) = (   0.1250000   0.1767767   0.0000000), wk =   0.0416667
        k(   12) = (   0.1250000   0.2357023   0.0000000), wk =   0.0416667
        k(   13) = (   0.1250000   0.2946278   0.0000000), wk =   0.0416667
        k(   14) = (   0.1250000  -0.3535534   0.0000000), wk =   0.0416667
        k(   15) = (   0.1250000  -0.2946278   0.0000000), wk =   0.0416667
        k(   16) = (   0.1250000  -0.2357023   0.0000000), wk =   0.0416667
        k(   17) = (   0.1250000  -0.1767767   0.0000000), wk =   0.0416667
        k(   18) = (   0.1250000  -0.1178511   0.0000000), wk =   0.0416667
        k(   19) = (   0.1250000  -0.0589256   0.0000000), wk =   0.0416667
        k(   20) = (   0.2500000   0.0000000   0.0000000), wk =   0.0416667
        k(   21) = (   0.2500000   0.0589256   0.0000000), wk =   0.0416667
        k(   22) = (   0.2500000   0.1178511   0.0000000), wk =   0.0416667
        k(   23) = (   0.2500000   0.1767767   0.0000000), wk =   0.0416667
        k(   24) = (   0.2500000   0.2357023   0.0000000), wk =   0.0416667
        k(   25) = (   0.2500000   0.2946278   0.0000000), wk =   0.0416667
        k(   26) = (   0.2500000  -0.3535534   0.0000000), wk =   0.0416667
        k(   27) = (   0.2500000  -0.2946278   0.0000000), wk =   0.0416667
        k(   28) = (   0.2500000  -0.2357023   0.0000000), wk =   0.0416667
        k(   29) = (   0.2500000  -0.1767767   0.0000000), wk =   0.0416667
        k(   30) = (   0.2500000  -0.1178511   0.0000000), wk =   0.0416667
        k(   31) = (   0.2500000  -0.0589256   0.0000000), wk =   0.0416667
        k(   32) = (   0.3750000   0.0000000   0.0000000), wk =   0.0416667
        k(   33) = (   0.3750000   0.0589256   0.0000000), wk =   0.0416667
        k(   34) = (   0.3750000   0.1178511   0.0000000), wk =   0.0416667
        k(   35) = (   0.3750000   0.1767767   0.0000000), wk =   0.0416667
        k(   36) = (   0.3750000   0.2357023   0.0000000), wk =   0.0416667
        k(   37) = (   0.3750000   0.2946278   0.0000000), wk =   0.0416667
        k(   38) = (   0.3750000  -0.3535534   0.0000000), wk =   0.0416667
        k(   39) = (   0.3750000  -0.2946278   0.0000000), wk =   0.0416667
        k(   40) = (   0.3750000  -0.2357023   0.0000000), wk =   0.0416667
        k(   41) = (   0.3750000  -0.1767767   0.0000000), wk =   0.0416667
        k(   42) = (   0.3750000  -0.1178511   0.0000000), wk =   0.0416667
        k(   43) = (   0.3750000  -0.0589256   0.0000000), wk =   0.0416667
        k(   44) = (  -0.5000000   0.0000000   0.0000000), wk =   0.0208333
        k(   45) = (  -0.5000000   0.0589256   0.0000000), wk =   0.0416667
        k(   46) = (  -0.5000000   0.1178511   0.0000000), wk =   0.0416667
        k(   47) = (  -0.5000000   0.1767767   0.0000000), wk =   0.0416667
        k(   48) = (  -0.5000000   0.2357023   0.0000000), wk =   0.0416667
        k(   49) = (  -0.5000000   0.2946278   0.0000000), wk =   0.0416667
        k(   50) = (  -0.5000000  -0.3535534   0.0000000), wk =   0.0208333

     Dense  grid:   142317 G-vectors     FFT dimensions: (  36,  50, 160)

     Estimated max dynamical RAM per process >     337.14 MB

     Estimated total dynamical RAM >       3.29 GB

     Initial potential from superposition of free atoms

     starting charge     307.9969, renormalised to     308.0000
     Starting wfcs are  252 randomized atomic wfcs
     Checking if some PAW data can be deallocated... 

     total cpu time spent up to now is       20.2 secs

     Self-consistent Calculation

     iteration #  1     ecut=    50.00 Ry     beta= 0.10
     Davidson diagonalization with overlap
     ethr =  1.00E-02,  avg # of iterations =  4.0

     total cpu time spent up to now is       75.2 secs

     total energy              =  -21693.42465197 Ry
     estimated scf accuracy    <      11.91743345 Ry

     iteration #  2     ecut=    50.00 Ry     beta= 0.10
     Davidson diagonalization with overlap
     ethr =  3.87E-03,  avg # of iterations =  7.8

     total cpu time spent up to now is      131.3 secs

     total energy              =  -21692.66324268 Ry
     estimated scf accuracy    <     144.17379879 Ry

     iteration #  3     ecut=    50.00 Ry     beta= 0.10
     Davidson diagonalization with overlap
     ethr =  3.87E-03,  avg # of iterations =  3.8

     total cpu time spent up to now is      177.7 secs

     total energy              =  -21695.44426600 Ry
     estimated scf accuracy    <       1.81026046 Ry

     iteration #  4     ecut=    50.00 Ry     beta= 0.10
     Davidson diagonalization with overlap
     ethr =  5.88E-04,  avg # of iterations =  7.3

     total cpu time spent up to now is      233.0 secs

     total energy              =  -21695.33414456 Ry
     estimated scf accuracy    <       0.95608549 Ry

     iteration #  5     ecut=    50.00 Ry     beta= 0.10
     Davidson diagonalization with overlap
     ethr =  3.10E-04,  avg # of iterations =  4.9

     total cpu time spent up to now is      284.2 secs

     total energy              =  -21695.32834882 Ry
     estimated scf accuracy    <       1.76026348 Ry

     iteration #  6     ecut=    50.00 Ry     beta= 0.10
     Davidson diagonalization with overlap
     ethr =  3.10E-04,  avg # of iterations =  1.4

     total cpu time spent up to now is      324.3 secs

     total energy              =  -21695.34782706 Ry
     estimated scf accuracy    <       0.35340518 Ry

     iteration #  7     ecut=    50.00 Ry     beta= 0.10
     Davidson diagonalization with overlap
     ethr =  1.15E-04,  avg # of iterations =  6.5

     total cpu time spent up to now is      385.3 secs

     total energy              =  -21695.41328472 Ry
     estimated scf accuracy    <       0.05964468 Ry

     iteration #  8     ecut=    50.00 Ry     beta= 0.10
     Davidson diagonalization with overlap
     c_bands:  1 eigenvalues not converged
     c_bands:  1 eigenvalues not converged
     c_bands:  1 eigenvalues not converged
     c_bands:  1 eigenvalues not converged
     c_bands:  1 eigenvalues not converged
     c_bands:  1 eigenvalues not converged
     c_bands:  1 eigenvalues not converged
     c_bands:  1 eigenvalues not converged
     c_bands:  2 eigenvalues not converged
     c_bands:  1 eigenvalues not converged
     c_bands:  1 eigenvalues not converged
     c_bands:  2 eigenvalues not converged
     ethr =  1.94E-05,  avg # of iterations = 12.9

     total cpu time spent up to now is      477.4 secs

     total energy              =  -21695.43209737 Ry
     estimated scf accuracy    <       0.03958752 Ry

     iteration #  9     ecut=    50.00 Ry     beta= 0.10
     Davidson diagonalization with overlap
     ethr =  1.29E-05,  avg # of iterations =  3.2

     total cpu time spent up to now is      522.7 secs

     total energy              =  -21695.43868467 Ry
     estimated scf accuracy    <       0.02332525 Ry

     iteration # 10     ecut=    50.00 Ry     beta= 0.10
     Davidson diagonalization with overlap
     ethr =  7.57E-06,  avg # of iterations =  2.3

     total cpu time spent up to now is      568.7 secs

     total energy              =  -21695.44046442 Ry
     estimated scf accuracy    <       0.00483407 Ry

     iteration # 11     ecut=    50.00 Ry     beta= 0.10
     Davidson diagonalization with overlap
     c_bands:  1 eigenvalues not converged
     c_bands:  1 eigenvalues not converged
     c_bands:  1 eigenvalues not converged
     c_bands:  1 eigenvalues not converged
     c_bands:  1 eigenvalues not converged
     c_bands:  1 eigenvalues not converged
     c_bands:  1 eigenvalues not converged
     ethr =  1.57E-06,  avg # of iterations = 11.5

     total cpu time spent up to now is      635.1 secs

     total energy              =  -21695.44033697 Ry
     estimated scf accuracy    <       0.00198906 Ry

     iteration # 12     ecut=    50.00 Ry     beta= 0.10
     Davidson diagonalization with overlap
     c_bands:  1 eigenvalues not converged
     c_bands:  1 eigenvalues not converged
     ethr =  6.46E-07,  avg # of iterations =  5.2

     total cpu time spent up to now is      700.5 secs

     total energy              =  -21695.44084666 Ry
     estimated scf accuracy    <       0.00036416 Ry

     iteration # 13     ecut=    50.00 Ry     beta= 0.10
     Davidson diagonalization with overlap
     ethr =  1.18E-07,  avg # of iterations =  4.9

     total cpu time spent up to now is      765.4 secs

     total energy              =  -21695.44088770 Ry
     estimated scf accuracy    <       0.00041482 Ry

     iteration # 14     ecut=    50.00 Ry     beta= 0.10
     Davidson diagonalization with overlap
     ethr =  1.18E-07,  avg # of iterations =  2.0

     total cpu time spent up to now is      809.2 secs

     total energy              =  -21695.44086545 Ry
     estimated scf accuracy    <       0.00043997 Ry

     iteration # 15     ecut=    50.00 Ry     beta= 0.10
     Davidson diagonalization with overlap
     ethr =  1.18E-07,  avg # of iterations =  1.0

     total cpu time spent up to now is      847.2 secs

     total energy              =  -21695.44087460 Ry
     estimated scf accuracy    <       0.00008707 Ry

     iteration # 16     ecut=    50.00 Ry     beta= 0.10
     Davidson diagonalization with overlap
     ethr =  2.83E-08,  avg # of iterations =  2.1

     total cpu time spent up to now is      891.9 secs

     total energy              =  -21695.44087420 Ry
     estimated scf accuracy    <       0.00003599 Ry

     iteration # 17     ecut=    50.00 Ry     beta= 0.10
     Davidson diagonalization with overlap
     ethr =  1.17E-08,  avg # of iterations =  4.2

     total cpu time spent up to now is      956.1 secs

     total energy              =  -21695.44087873 Ry
     estimated scf accuracy    <       0.00001960 Ry

     iteration # 18     ecut=    50.00 Ry     beta= 0.10
     Davidson diagonalization with overlap
     ethr =  6.36E-09,  avg # of iterations =  2.0

     total cpu time spent up to now is     1001.2 secs

     total energy              =  -21695.44087611 Ry
     estimated scf accuracy    <       0.00000566 Ry

     iteration # 19     ecut=    50.00 Ry     beta= 0.10
     Davidson diagonalization with overlap
     ethr =  1.84E-09,  avg # of iterations =  5.2

     total cpu time spent up to now is     1073.2 secs

     total energy              =  -21695.44087809 Ry
     estimated scf accuracy    <       0.00000234 Ry

     iteration # 20     ecut=    50.00 Ry     beta= 0.10
     Davidson diagonalization with overlap
     ethr =  7.59E-10,  avg # of iterations =  3.7

     total cpu time spent up to now is     1127.2 secs

     total energy              =  -21695.44087817 Ry
     estimated scf accuracy    <       0.00000103 Ry

     iteration # 21     ecut=    50.00 Ry     beta= 0.10
     Davidson diagonalization with overlap
     ethr =  3.34E-10,  avg # of iterations =  3.3

     total cpu time spent up to now is     1192.6 secs

     End of self-consistent calculation

          k = 0.0000 0.0000 0.0000 ( 17807 PWs)   bands (ev):

     0.9540   1.1154   1.1154   2.5036   2.8213   2.9373   3.0578   3.0578
     4.8069   4.8401   5.5594   5.5594   6.2199   7.4108   7.4109   7.7415
     8.0289   8.2974   9.2021   9.3719   9.4727   9.5855   9.6731   9.6733
     9.9945  10.1383  10.1408  10.3409  10.5538  10.5629  10.5768  10.7114
    10.7507  10.8071  10.9209  10.9845  11.0965  11.1334  11.2268  11.2306
    11.2344  11.2355  11.2668  11.2826  11.3212  11.3591  11.4588  11.5116
    11.5342  11.6259  11.6518  11.6596  11.7362  11.8190  11.8967  12.0070
    12.0150  12.0597  12.1788  12.2076  12.2181  12.3184  12.4646  12.4941
    12.5661  12.6143  12.6809  12.7079  12.7587  12.8169  12.8593  12.8776
    12.9170  12.9180  12.9994  13.0431  13.0934  13.1434  13.2279  13.2638
    13.3058  13.3144  13.3277  13.3763  13.4113  13.4268  13.5137  13.6716
    13.6909  13.7232  13.7398  13.9093  13.9281  14.0884  14.1383  14.1846
    14.1980  14.2875  14.3211  14.3275  14.4283  14.4557  14.4955  14.5383
    14.5395  14.6385  14.7285  14.7444  14.7576  14.7627  14.7728  14.8015
    14.8049  14.8465  14.8858  14.9794  15.0526  15.1635  15.1857  15.1911
    15.2475  15.2660  15.3013  15.3810  15.4716  15.5010  15.5161  15.5409
    15.5781  15.6040  15.6347  15.6539  15.7874  15.8348  15.8725  15.9389
    15.9682  15.9941  15.9977  16.0640  16.0737  16.0769  16.2470  16.3779
    16.5970  16.8911  17.0347  17.4031  17.4073  17.4871  17.5033  17.6901
    17.6968  17.9056  17.9347  18.2635  18.2673  18.4477  18.7031  18.7212
    18.7456  19.5284  19.9772  20.8265  20.8287  20.8873  21.3052  22.1118
    22.2630  22.7601  23.6514  23.9879  24.0629  24.0751  24.1729  24.4359
    24.4868  24.6831  25.0309  25.0810  25.2072  25.8167  25.8248  25.8737
    26.0038

          k = 0.0000 0.0589 0.0000 ( 17795 PWs)   bands (ev):

     0.8283   0.8610   1.3632   2.5344   2.8983   2.9588   3.0229   3.2302
     4.7861   4.8826   5.3525   5.7618   6.2634   7.3508   7.4371   7.7302
     8.0703   8.3352   9.2148   9.2279   9.3889   9.4864   9.6132   9.9297
     9.9919  10.0340  10.2637  10.3638  10.5401  10.5782  10.6066  10.7196
    10.7656  10.8053  10.9067  10.9890  11.0740  11.1466  11.1630  11.2173
    11.2707  11.2728  11.2781  11.3088  11.3678  11.4047  11.5002  11.5151
    11.5287  11.5673  11.6573  11.6848  11.6964  11.8364  11.9001  12.0013
    12.0235  12.1125  12.1276  12.2135  12.2966  12.3024  12.4221  12.4300
    12.5030  12.6063  12.6366  12.6819  12.7437  12.7882  12.7980  12.8901
    12.9344  12.9752  12.9754  13.0820  13.0833  13.1686  13.2100  13.2369
    13.2696  13.3176  13.3432  13.3478  13.4183  13.4302  13.5604  13.6529
    13.7173  13.7378  13.7918  13.8872  13.9262  14.0936  14.1177  14.1882
    14.2264  14.2453  14.2860  14.3322  14.4142  14.4555  14.4685  14.5091
    14.5128  14.6644  14.6839  14.6926  14.7540  14.7551  14.7646  14.7883
    14.7928  14.8620  14.8668  14.9517  15.0542  15.1496  15.1544  15.2011
    15.2144  15.2168  15.2735  15.3758  15.3989  15.4944  15.5338  15.5383
    15.5875  15.5897  15.6401  15.6681  15.7719  15.7984  15.8799  15.9025
    15.9309  15.9663  16.0215  16.0246  16.0998  16.2274  16.2489  16.3263
    16.6003  16.8301  16.8624  16.8972  17.0681  17.1508  17.1656  17.6828
    17.8616  18.0177  18.1880  18.4242  18.5111  18.6147  18.7549  19.0808
    19.1673  19.6485  20.0514  20.9218  20.9428  21.0266  21.3477  22.1401
    22.3078  22.7847  23.6508  23.6524  23.6809  23.9781  24.1709  24.3412
    24.6871  24.7699  25.0162  25.2085  25.3923  25.6519  25.7249  25.8777
    25.8890

          k = 0.0000 0.1179 0.0000 ( 17803 PWs)   bands (ev):

     0.5479   0.6499   1.5470   2.6091   2.8086   3.0927   3.2958   3.5242
     4.7293   5.0068   5.1875   5.9275   6.3844   7.2698   7.4196   7.6944
     8.1931   8.4477   8.6926   9.1767   9.4067   9.5648   9.6621   9.8090
     9.9550  10.1889  10.3747  10.4582  10.4949  10.6087  10.6956  10.7366
    10.7778  10.8004  10.8763  11.0403  11.0447  11.1628  11.2004  11.2209
    11.2328  11.3247  11.3256  11.3577  11.3822  11.3866  11.4945  11.5238
    11.5394  11.5989  11.6835  11.7004  11.8076  11.8506  11.9339  11.9834
    12.0728  12.0969  12.1746  12.1821  12.2323  12.3361  12.3484  12.4155
    12.4205  12.5330  12.5643  12.6150  12.6668  12.6791  12.7627  12.8596
    12.9322  12.9859  12.9880  13.0352  13.1006  13.1538  13.1643  13.2656
    13.2933  13.3112  13.3307  13.3975  13.4240  13.4854  13.5661  13.6136
    13.7800  13.7815  13.8367  13.8392  13.8776  14.0377  14.1476  14.1534
    14.1911  14.2085  14.3034  14.3298  14.3505  14.3901  14.4436  14.4733
    14.5245  14.5359  14.5846  14.6774  14.6790  14.7121  14.7546  14.7690
    14.7979  14.8515  14.9050  14.9264  14.9682  15.0171  15.0821  15.1474
    15.1755  15.2672  15.2897  15.3109  15.3661  15.4143  15.4604  15.5038
    15.5176  15.5830  15.6081  15.6655  15.7128  15.7275  15.7894  15.8539
    15.8928  15.9176  15.9823  16.0778  16.1255  16.2048  16.2464  16.2940
    16.3515  16.3898  16.4781  16.5485  16.6106  16.8256  17.3901  17.5744
    17.5874  18.2243  18.2698  18.6776  18.8987  19.0089  19.2282  19.9332
    19.9767  19.9795  20.2541  21.1050  21.1353  21.2652  21.4724  22.2201
    22.4325  22.8549  23.2039  23.4758  23.6544  23.9415  23.9655  24.1624
    24.4507  24.6955  25.1094  25.2075  25.2517  25.3137  25.4741  25.8620
    25.9018

          k = 0.0000 0.1768 0.0000 ( 17795 PWs)   bands (ev):

     0.3109   0.4191   1.6829   2.5712   2.8446   3.2325   3.6999   3.8080
     4.6661   5.1777   5.2074   6.0137   6.5596   7.1954   7.3383   7.6314
     8.1345   8.3912   8.6306   8.8371   9.4356   9.6788   9.7606   9.8856
     9.9036  10.2714  10.3520  10.4025  10.6191  10.6332  10.7196  10.7648
    10.8334  10.8465  10.9092  10.9747  11.0591  11.1594  11.2014  11.2635
    11.2729  11.2813  11.3654  11.3739  11.4005  11.4903  11.5005  11.5669
    11.5951  11.7194  11.7412  11.8196  11.8506  11.9141  11.9398  11.9835
    12.0613  12.0673  12.1315  12.1490  12.2237  12.2731  12.3248  12.4088
    12.4238  12.4839  12.5335  12.5565  12.5717  12.5819  12.7105  12.7774
    12.8876  12.9258  12.9319  13.0024  13.0037  13.1591  13.1968  13.2196
    13.3423  13.3674  13.3951  13.4068  13.4960  13.5366  13.5657  13.6327
    13.7075  13.7555  13.7976  13.8385  13.9058  13.9732  13.9836  14.0939
    14.2073  14.2162  14.2333  14.3084  14.3357  14.3537  14.3711  14.3896
    14.4286  14.5253  14.5732  14.5893  14.6076  14.6523  14.6693  14.7529
    14.7740  14.8067  14.8279  14.8809  14.9017  14.9878  15.0028  15.0971
    15.1446  15.1801  15.2241  15.2411  15.3000  15.3288  15.3494  15.3687
    15.4557  15.4826  15.5815  15.6036  15.6294  15.7080  15.7425  15.7666
    15.7902  15.8529  15.8725  15.8892  15.8974  15.9685  16.0376  16.0780
    16.1545  16.1715  16.3385  16.5483  16.5855  16.8723  17.2656  17.6428
    17.6926  18.2807  18.4357  18.9110  19.1123  19.8111  19.9757  20.4466
    20.5457  20.6552  20.6704  21.3372  21.3538  21.4109  21.6797  22.3363
    22.5922  22.7826  22.9609  23.6615  23.7097  23.8605  23.9533  24.1247
    24.1247  24.6842  24.6908  24.7559  25.0540  25.1651  25.1800  25.3147
    25.4479

          k = 0.0000 0.2357 0.0000 ( 17822 PWs)   bands (ev):

     0.1386   0.2230   1.8026   2.4089   3.0328   3.4155   3.8730   3.9893
     4.7158   5.4827   5.4902   5.9642   6.7611   7.1253   7.1725   7.5427
     7.6672   8.2285   8.6762   8.8793   9.5016   9.8425   9.8700   9.9205
    10.0667  10.1215  10.1611  10.2491  10.5972  10.6822  10.8097  10.8347
    10.8756  10.9031  10.9579  11.0238  11.1179  11.1660  11.2840  11.2898
    11.3108  11.3246  11.3799  11.4219  11.4701  11.5394  11.5489  11.6703
    11.7062  11.7579  11.7913  11.8211  11.8267  11.8551  11.9000  11.9821
    12.0391  12.0408  12.1600  12.2077  12.2472  12.2835  12.3030  12.3288
    12.3724  12.4361  12.4623  12.4904  12.5570  12.6470  12.7030  12.7645
    12.8178  12.8208  12.8956  12.9673  12.9956  13.0820  13.1974  13.1977
    13.3716  13.4158  13.4677  13.4794  13.5321  13.5428  13.5915  13.6454
    13.6584  13.7011  13.7824  13.7996  13.8505  13.8519  13.9558  14.0131
    14.0997  14.1551  14.2082  14.2277  14.2543  14.2748  14.3356  14.3565
    14.3870  14.3890  14.4700  14.5343  14.5371  14.5830  14.6340  14.6862
    14.7063  14.7424  14.7626  14.8071  14.8127  14.8946  14.9475  14.9588
    15.0242  15.0449  15.1072  15.1304  15.2331  15.2629  15.3056  15.3173
    15.3819  15.4240  15.4668  15.4710  15.4842  15.5332  15.5524  15.5881
    15.6691  15.7723  15.8386  15.8722  15.8863  15.9038  15.9855  15.9996
    16.1953  16.2313  16.4010  16.4482  16.5453  16.9888  17.0052  17.6415
    17.8663  18.2715  19.0694  19.1892  19.3740  20.5477  20.6647  20.7156
    20.7563  20.8067  21.0490  21.6040  21.9483  21.9933  22.0722  22.4483
    22.4784  22.6574  23.1178  23.4599  23.6817  23.7259  23.9487  24.1562
    24.2056  24.3311  24.5548  24.5677  24.6374  24.7615  24.9096  24.9853
    25.1080

          k = 0.0000 0.2946 0.0000 ( 17818 PWs)   bands (ev):

     0.0421   0.0876   1.9291   2.2353   3.2642   3.6198   3.7313   3.9828
     5.0223   5.7529   5.8321   6.0718   6.7202   6.9589   7.2229   7.3913
     7.4351   7.5444   9.0047   9.1742   9.6178   9.7589   9.7884   9.9439
     9.9531  10.0642  10.0954  10.3110  10.4810  10.7123  10.7649  10.8658
    10.9989  11.0362  11.1101  11.1480  11.1962  11.2062  11.2571  11.3266
    11.3324  11.4485  11.4588  11.4798  11.5084  11.5190  11.5895  11.5913
    11.6876  11.6987  11.7458  11.7916  11.8214  11.9035  11.9098  11.9768
    11.9921  12.0951  12.1407  12.1424  12.2192  12.2316  12.2907  12.3720
    12.4011  12.4192  12.4483  12.5469  12.6003  12.6082  12.6369  12.7788
    12.8079  12.8663  12.8987  12.9338  13.0558  13.1418  13.2204  13.2422
    13.3000  13.3899  13.4500  13.4662  13.4975  13.5831  13.6131  13.6466
    13.6887  13.6890  13.7483  13.7934  13.7963  13.9108  13.9143  13.9659
    13.9824  14.0079  14.0626  14.0797  14.1386  14.2035  14.2213  14.2333
    14.3055  14.3226  14.3918  14.3950  14.4389  14.5546  14.5884  14.6223
    14.6699  14.6784  14.7218  14.7403  14.8070  14.8792  14.8802  14.8847
    14.9456  14.9762  15.0066  15.0266  15.0739  15.2035  15.2312  15.2537
    15.3032  15.3173  15.3806  15.4566  15.4637  15.5288  15.5595  15.5889
    15.6535  15.7865  15.8151  15.8643  15.8654  15.8828  15.9737  15.9783
    16.2377  16.3013  16.3748  16.4306  16.5534  16.8045  17.1406  17.4872
    18.0411  18.2326  19.4962  19.6667  19.7712  20.3024  20.4913  21.0959
    21.3968  21.4539  21.4827  21.7646  21.9622  22.3567  22.5460  22.5874
    22.7547  22.9719  23.0735  23.2705  23.3814  23.6317  23.7628  23.8130
    23.8238  24.0997  24.4236  24.4265  24.5912  24.7288  24.8103  24.8721
    25.0169

          k = 0.0000-0.3536 0.0000 ( 17844 PWs)   bands (ev):

     0.0253   0.0253   2.0729   2.0729   3.5076   3.5076   3.8219   3.8219
     5.4154   5.4154   6.2472   6.2472   6.7699   6.7699   7.2067   7.2067
     7.3214   7.3214   9.3794   9.3794   9.4935   9.4935   9.7831   9.7831
     9.9774   9.9774  10.3044  10.3044  10.5454  10.5454  10.8578  10.8578
    11.0950  11.0950  11.1542  11.1542  11.1932  11.1932  11.3792  11.3792
    11.3946  11.3946  11.4767  11.4767  11.5317  11.5317  11.5728  11.5728
    11.6329  11.6329  11.7395  11.7395  11.9034  11.9034  11.9359  11.9359
    11.9928  11.9928  12.1355  12.1355  12.2574  12.2574  12.2914  12.2914
    12.4439  12.4439  12.4744  12.4744  12.6470  12.6470  12.7299  12.7300
    12.7802  12.7802  12.9955  12.9955  13.0623  13.0623  13.2855  13.2855
    13.4271  13.4271  13.4326  13.4326  13.5202  13.5202  13.5685  13.5685
    13.7260  13.7260  13.7962  13.7962  13.8160  13.8160  13.8514  13.8514
    13.9293  13.9293  14.0403  14.0403  14.1441  14.1441  14.1938  14.1938
    14.1987  14.1987  14.3308  14.3308  14.4681  14.4681  14.6318  14.6318
    14.6976  14.6976  14.7415  14.7415  14.7757  14.7757  14.8475  14.8475
    14.9148  14.9148  15.0701  15.0701  15.1165  15.1165  15.1715  15.1715
    15.2431  15.2431  15.3905  15.3905  15.5438  15.5438  15.6050  15.6050
    15.7107  15.7107  15.8381  15.8381  15.8550  15.8550  15.9784  15.9784
    16.2896  16.2896  16.3911  16.3912  16.6529  16.6529  17.3119  17.3119
    18.1608  18.1608  19.7944  19.7944  19.9796  19.9796  20.9479  20.9479
    21.3714  21.3714  22.1527  22.1527  22.2770  22.2770  22.3598  22.3598
    23.0277  23.0277  23.1240  23.1240  23.4639  23.4639  23.7030  23.7030
    23.9107  23.9107  24.3254  24.3254  24.5476  24.5477  24.7481  24.7481
    25.2446

          k = 0.1250 0.0000 0.0000 ( 17777 PWs)   bands (ev):

     0.9572   1.1187   1.1187   2.5995   2.8542   2.9276   3.0850   3.0850
     4.7667   4.9729   5.5899   5.5899   6.2707   7.3746   7.3746   7.6994
     8.1656   8.4298   9.1158   9.4707   9.5040   9.5960   9.5961   9.6411
    10.0378  10.1542  10.1570  10.3014  10.5537  10.5857  10.5900  10.7518
    10.7786  10.8409  10.9129  10.9898  11.1148  11.1228  11.1258  11.1362
    11.1772  11.2509  11.2613  11.3380  11.3592  11.3718  11.4311  11.4686
    11.5216  11.5274  11.5756  11.5761  11.6430  11.8125  11.8431  12.0369
    12.1602  12.2778  12.2827  12.3122  12.4550  12.5789  12.6455  12.6825
    12.7259  12.7339  12.7576  12.7735  12.8607  12.8966  12.9471  12.9485
    13.0252  13.0469  13.0796  13.0834  13.1181  13.1925  13.2023  13.2266
    13.2744  13.2909  13.3439  13.3765  13.4067  13.4732  13.5227  13.5696
    13.6228  13.6274  13.7272  13.7429  13.8738  13.9895  14.0005  14.0992
    14.1218  14.1332  14.2382  14.3588  14.3636  14.3959  14.4243  14.4906
    14.5155  14.5961  14.6453  14.6679  14.6920  14.7101  14.7661  14.8297
    14.8379  14.8629  14.8643  14.9040  15.0494  15.0899  15.1044  15.1437
    15.2422  15.2464  15.2787  15.3515  15.4033  15.4260  15.4544  15.4969
    15.5381  15.6161  15.6608  15.6761  15.7369  15.7458  15.7483  15.8569
    15.8760  15.8771  15.8874  15.9878  16.1215  16.1284  16.2122  16.4173
    16.5430  16.9142  17.0248  17.2488  17.2511  17.5502  17.5514  17.8575
    17.8592  18.0454  18.1812  18.1917  18.4995  18.6008  18.6493  18.9318
    19.0766  19.2708  19.3069  19.6681  20.8975  20.9000  20.9579  21.4118
    22.3554  22.8136  23.3019  23.3086  23.4717  23.9935  24.1254  24.2023
    24.2449  24.2695  24.2947  24.6514  24.7233  24.8939  24.9006  25.1192
    25.4817

          k = 0.1250 0.0589 0.0000 ( 17791 PWs)   bands (ev):

     0.8373   0.8690   1.3628   2.6169   2.8904   2.9950   3.0499   3.2521
     4.7524   5.0123   5.3907   5.7833   6.3115   7.3079   7.4139   7.6898
     8.2059   8.4635   9.1256   9.1939   9.4786   9.5289   9.6730   9.9067
    10.0024  10.0524  10.2708  10.3347  10.5423  10.5426  10.6227  10.7467
    10.7975  10.8397  10.8969  10.9896  11.0785  11.0941  11.1386  11.1935
    11.2068  11.2478  11.2982  11.3295  11.3812  11.3927  11.4504  11.4798
    11.5487  11.5513  11.5764  11.6607  11.6617  11.7703  11.8801  12.0402
    12.1623  12.2339  12.2918  12.2946  12.3844  12.5463  12.5739  12.6432
    12.6755  12.7229  12.7308  12.7966  12.8529  12.8921  12.8973  12.9206
    13.0338  13.0488  13.0535  13.1097  13.1180  13.1815  13.2048  13.2471
    13.2888  13.2968  13.3126  13.3518  13.4144  13.4304  13.5468  13.5659
    13.6175  13.6565  13.7524  13.7615  13.8362  13.9375  14.0296  14.0744
    14.0962  14.1542  14.2641  14.2881  14.3372  14.3966  14.4227  14.4706
    14.5144  14.6023  14.6255  14.6539  14.6899  14.7255  14.7483  14.8054
    14.8064  14.8603  14.8624  14.9126  15.0343  15.0444  15.0940  15.1307
    15.2213  15.2694  15.2770  15.2957  15.3448  15.3996  15.4568  15.5055
    15.5656  15.6234  15.6398  15.6736  15.7017  15.7304  15.7781  15.8213
    15.8462  15.8845  15.8866  15.9657  15.9915  16.2255  16.3495  16.3655
    16.5624  16.7833  16.8704  16.8985  17.1126  17.2232  17.4154  17.5645
    18.0951  18.1271  18.3062  18.4635  18.5940  18.8637  18.9361  18.9794
    19.1419  19.3811  19.5245  19.7252  20.9970  21.0332  21.1212  21.4479
    22.4034  22.5915  22.8697  23.4822  23.4842  23.6012  23.8181  24.0031
    24.0797  24.2443  24.3774  24.7140  24.9486  25.0895  25.1018  25.4371
    25.6874

          k = 0.1250 0.1179 0.0000 ( 17815 PWs)   bands (ev):

     0.5623   0.6660   1.5454   2.6595   2.8209   3.1180   3.3255   3.5337
     4.7051   5.1356   5.2293   5.9405   6.4257   7.2283   7.4165   7.6592
     8.3239   8.5561   8.7138   9.1166   9.4738   9.6428   9.7452   9.8917
     9.9730  10.1344  10.3623  10.4350  10.4697  10.5468  10.6442  10.7582
    10.8181  10.8303  10.8944  11.0441  11.0453  11.1222  11.1408  11.1988
    11.2605  11.2815  11.3362  11.3851  11.3889  11.4338  11.4630  11.6022
    11.6113  11.6266  11.6667  11.7034  11.7198  11.7914  11.8909  12.0416
    12.1626  12.1627  12.2415  12.2468  12.2921  12.4027  12.4845  12.5577
    12.6182  12.6522  12.6965  12.7388  12.8051  12.8081  12.8364  12.9181
    12.9988  13.0043  13.0320  13.0664  13.1225  13.1579  13.1934  13.2566
    13.2757  13.3344  13.3363  13.3599  13.3834  13.4722  13.5400  13.5495
    13.6412  13.7002  13.7488  13.7544  13.8059  13.8968  13.9935  14.0295
    14.0535  14.1517  14.1815  14.2529  14.2914  14.3727  14.4212  14.4465
    14.4889  14.5150  14.5861  14.6245  14.6372  14.6784  14.7180  14.7736
    14.8098  14.8172  14.8419  14.9344  14.9809  15.0473  15.0754  15.0989
    15.1354  15.1876  15.2485  15.2818  15.3381  15.3732  15.4394  15.4403
    15.5259  15.5814  15.6045  15.6469  15.6603  15.7116  15.7701  15.7704
    15.8066  15.8342  15.8616  15.9243  15.9952  16.2376  16.2619  16.2804
    16.3318  16.5245  16.6069  16.6230  16.7580  16.8062  17.3177  17.7769
    17.9653  18.3132  18.4505  18.6349  18.8365  19.1189  19.1702  19.3333
    19.3866  19.8937  20.1879  20.2997  21.1085  21.1420  21.2857  21.5493
    22.2065  22.5393  23.0339  23.0729  23.1494  23.3767  23.4697  23.5206
    24.0314  24.2432  24.3117  24.6211  25.0168  25.2575  25.6751  25.8572
    25.9364

          k = 0.1250 0.1768 0.0000 ( 17796 PWs)   bands (ev):

     0.3296   0.4409   1.6815   2.5704   2.9008   3.2557   3.7150   3.8070
     4.6456   5.2006   5.3416   6.0298   6.5923   7.1613   7.3711   7.6034
     8.1965   8.4920   8.6430   8.9985   9.4783   9.7615   9.8447   9.9191
     9.9253  10.2523  10.3341  10.3877  10.5724  10.5997  10.6312  10.8079
    10.8434  10.8693  10.9554  10.9589  11.0819  11.1535  11.2113  11.2374
    11.3099  11.3442  11.3487  11.4081  11.4609  11.4886  11.5661  11.6653
    11.6879  11.6904  11.7689  11.7863  11.8262  11.8366  11.9050  12.0213
    12.1088  12.1323  12.1715  12.1753  12.2481  12.3083  12.3897  12.4585
    12.5233  12.5812  12.6271  12.6409  12.7015  12.7527  12.7905  12.8402
    12.8888  12.9587  12.9710  13.0261  13.0624  13.1518  13.1864  13.2231
    13.2759  13.3658  13.3811  13.4079  13.4219  13.4736  13.5585  13.6087
    13.6321  13.6550  13.6930  13.7422  13.8647  13.8665  13.8997  13.9310
    14.0336  14.0604  14.1448  14.1583  14.2168  14.3399  14.3667  14.4024
    14.4156  14.4673  14.5044  14.5165  14.5747  14.5842  14.6831  14.7069
    14.7806  14.7970  14.8361  14.8923  14.9087  14.9702  15.0334  15.0562
    15.1098  15.1166  15.1803  15.2856  15.3044  15.3486  15.3903  15.4062
    15.4169  15.4838  15.5503  15.5708  15.6315  15.6975  15.7022  15.7312
    15.7420  15.7771  15.7962  15.8618  15.8866  15.9835  16.0031  16.1194
    16.2138  16.2239  16.2897  16.5890  16.6110  16.8544  17.5590  17.7175
    18.0087  18.3586  18.5137  18.6598  19.1444  19.3580  19.6344  20.0160
    20.1635  20.1675  20.5511  20.9936  21.2710  21.2804  21.3545  21.6957
    21.9550  22.6300  22.7251  22.8417  23.2423  23.2868  23.2968  23.5795
    24.0735  24.1796  24.2410  24.3780  24.7557  25.3832  25.6626  25.8695
    25.8702

          k = 0.1250 0.2357 0.0000 ( 17785 PWs)   bands (ev):

     0.1607   0.2479   1.8012   2.4037   3.0872   3.4365   3.8823   3.9952
     4.6808   5.4009   5.6263   6.0580   6.7853   7.1112   7.2685   7.5188
     7.7198   8.2396   8.8096   9.0707   9.5335   9.8782   9.8783  10.0391
    10.0933  10.0951  10.1779  10.3441  10.5978  10.6172  10.7895  10.8434
    10.8717  10.9495  10.9513  11.0605  11.0801  11.2297  11.2550  11.3202
    11.3407  11.3781  11.3941  11.4292  11.5239  11.5503  11.6710  11.6741
    11.7289  11.7642  11.8261  11.8292  11.8780  11.9275  11.9428  11.9918
    12.0723  12.0927  12.1335  12.1922  12.2286  12.3023  12.3221  12.3500
    12.4449  12.4984  12.5114  12.5577  12.6119  12.7284  12.7316  12.8089
    12.8128  12.8831  12.9355  12.9738  13.0358  13.0853  13.1418  13.2038
    13.3108  13.3256  13.4311  13.4523  13.4649  13.5066  13.5497  13.5821
    13.6076  13.6546  13.7016  13.7060  13.7307  13.8358  13.8754  13.8999
    13.9401  14.0456  14.0458  14.1060  14.1494  14.2289  14.2716  14.2971
    14.3416  14.3621  14.4577  14.4602  14.4999  14.5419  14.5632  14.6083
    14.7003  14.7528  14.8323  14.8412  14.8468  14.8733  14.9114  14.9874
    15.0425  15.0733  15.1297  15.1816  15.2417  15.2680  15.2774  15.3387
    15.4116  15.4139  15.4529  15.4537  15.5033  15.5191  15.5987  15.6941
    15.6987  15.7330  15.7675  15.7985  15.8449  15.9124  15.9506  16.0243
    16.1197  16.2406  16.3124  16.4743  16.6298  16.9968  17.4494  17.7885
    17.8389  18.2260  18.6960  19.4283  19.4588  19.6987  20.0199  20.0309
    20.5123  20.7574  20.9191  21.0991  21.3725  21.4989  21.8589  21.9289
    22.0247  22.2142  22.6127  22.7998  23.2393  23.3990  23.5524  23.6786
    24.0658  24.2163  24.3106  24.3801  24.4318  24.8562  25.3903  25.5079
    25.9377

          k = 0.1250 0.2946 0.0000 ( 17801 PWs)   bands (ev):

     0.0665   0.1136   1.9271   2.2309   3.3112   3.6379   3.7570   3.9927
     4.9458   5.5071   5.9853   6.2943   6.8520   6.9768   7.2598   7.3861
     7.4067   7.6673   9.1202   9.3069   9.6596   9.7609   9.8504   9.9676
     9.9938  10.1797  10.1807  10.3700  10.5363  10.7292  10.7702  10.8950
    10.9501  10.9899  11.0528  11.1519  11.2003  11.2479  11.2880  11.3249
    11.3731  11.3738  11.4523  11.4710  11.5609  11.5885  11.6568  11.6771
    11.7259  11.7293  11.8419  11.8527  11.8746  11.9425  11.9597  12.0498
    12.0668  12.1192  12.1545  12.1639  12.2559  12.2703  12.3067  12.3438
    12.4213  12.4370  12.4758  12.5448  12.5828  12.6476  12.6911  12.7417
    12.7888  12.8877  12.8992  12.9461  13.0136  13.1369  13.1828  13.1938
    13.2587  13.3250  13.3266  13.4468  13.4985  13.5214  13.5511  13.5600
    13.5995  13.6051  13.6494  13.6802  13.7478  13.7878  13.7962  13.8356
    13.9198  13.9391  13.9487  14.0273  14.0297  14.1184  14.1658  14.2182
    14.3209  14.3490  14.3893  14.4484  14.5189  14.5325  14.5453  14.5959
    14.6076  14.6809  14.6977  14.7327  14.7917  14.8112  14.8764  14.8822
    14.9437  14.9624  15.0172  15.0506  15.0711  15.1359  15.2242  15.2694
    15.2852  15.3980  15.4426  15.4859  15.5068  15.5574  15.5983  15.6775
    15.7005  15.7675  15.7825  15.8190  15.8349  15.8659  15.9172  15.9458
    16.1743  16.2468  16.3414  16.4011  16.7375  17.1765  17.1829  17.6213
    17.9672  18.1430  18.8967  19.5515  19.7877  20.0921  20.3514  20.4590
    20.4952  20.8999  20.9717  21.3304  21.5881  21.7372  21.9749  21.9965
    22.0611  22.4039  22.5088  22.6582  23.5893  23.6079  23.7309  23.7759
    23.8772  24.0350  24.4481  24.4628  24.4748  24.6013  25.0073  25.1656
    25.5579

          k = 0.1250-0.3536 0.0000 ( 17808 PWs)   bands (ev):

     0.0511   0.0511   2.0699   2.0699   3.5453   3.5453   3.8364   3.8364
     5.2797   5.2797   6.3983   6.3983   6.8736   6.8736   7.2151   7.2151
     7.3673   7.3673   9.4642   9.4642   9.5699   9.5699   9.8373   9.8373
    10.0423  10.0423  10.3737  10.3737  10.6189  10.6189  10.8586  10.8586
    11.0129  11.0129  11.1442  11.1442  11.2179  11.2179  11.3459  11.3459
    11.3980  11.3980  11.4746  11.4746  11.5152  11.5152  11.6991  11.6991
    11.7329  11.7329  11.8044  11.8044  11.9223  11.9223  12.0038  12.0038
    12.0954  12.0955  12.1707  12.1707  12.2555  12.2555  12.3572  12.3572
    12.4339  12.4339  12.4735  12.4735  12.6184  12.6185  12.7254  12.7254
    12.8108  12.8108  12.9039  12.9039  13.0474  13.0474  13.2442  13.2442
    13.3314  13.3314  13.4085  13.4085  13.4397  13.4397  13.5385  13.5385
    13.5914  13.5914  13.6730  13.6730  13.7165  13.7165  13.7941  13.7941
    13.8294  13.8294  13.9392  13.9392  14.0205  14.0205  14.2474  14.2474
    14.3326  14.3326  14.4480  14.4480  14.5054  14.5054  14.5648  14.5648
    14.6233  14.6233  14.6568  14.6568  14.7487  14.7487  14.8095  14.8095
    14.8888  14.8888  14.9820  14.9820  15.1383  15.1383  15.1814  15.1814
    15.3400  15.3400  15.4636  15.4636  15.5434  15.5434  15.6786  15.6786
    15.7259  15.7259  15.7972  15.7972  15.8719  15.8719  15.8938  15.8938
    16.2194  16.2194  16.3667  16.3667  16.9311  16.9311  17.3962  17.3962
    18.0754  18.0754  19.1755  19.1755  20.1351  20.1351  20.5000  20.5000
    20.8959  20.8959  21.1856  21.1856  21.5792  21.5792  21.9928  21.9928
    22.1890  22.1890  23.0705  23.0705  23.1485  23.1485  23.8355  23.8355
    24.0638  24.0638  24.5214  24.5214  24.7729  24.7729  24.9341  24.9341
    25.3449

          k = 0.1250-0.2946 0.0000 ( 17801 PWs)   bands (ev):

     0.0665   0.1136   1.9271   2.2309   3.3112   3.6379   3.7570   3.9927
     4.9458   5.5071   5.9853   6.2943   6.8520   6.9768   7.2598   7.3861
     7.4067   7.6673   9.1202   9.3069   9.6596   9.7609   9.8504   9.9676
     9.9938  10.1797  10.1807  10.3700  10.5363  10.7292  10.7702  10.8950
    10.9501  10.9899  11.0528  11.1519  11.2003  11.2479  11.2880  11.3249
    11.3731  11.3738  11.4523  11.4710  11.5609  11.5885  11.6568  11.6771
    11.7259  11.7293  11.8419  11.8527  11.8746  11.9425  11.9597  12.0498
    12.0668  12.1192  12.1545  12.1639  12.2559  12.2703  12.3067  12.3438
    12.4213  12.4370  12.4758  12.5448  12.5828  12.6476  12.6911  12.7417
    12.7888  12.8877  12.8992  12.9461  13.0136  13.1369  13.1828  13.1938
    13.2587  13.3250  13.3266  13.4468  13.4985  13.5214  13.5511  13.5600
    13.5995  13.6051  13.6494  13.6802  13.7478  13.7878  13.7962  13.8356
    13.9198  13.9391  13.9487  14.0273  14.0297  14.1184  14.1658  14.2182
    14.3209  14.3490  14.3893  14.4484  14.5189  14.5325  14.5453  14.5959
    14.6076  14.6809  14.6977  14.7327  14.7917  14.8112  14.8764  14.8822
    14.9437  14.9624  15.0172  15.0506  15.0711  15.1359  15.2242  15.2694
    15.2852  15.3980  15.4426  15.4859  15.5068  15.5574  15.5983  15.6775
    15.7005  15.7675  15.7825  15.8190  15.8349  15.8659  15.9172  15.9458
    16.1743  16.2468  16.3414  16.4011  16.7375  17.1765  17.1829  17.6213
    17.9672  18.1430  18.8967  19.5515  19.7877  20.0921  20.3514  20.4590
    20.4952  20.8999  20.9717  21.3304  21.5881  21.7372  21.9749  21.9965
    22.0611  22.4039  22.5088  22.6582  23.5893  23.6079  23.7309  23.7759
    23.8772  24.0350  24.4481  24.4629  24.4748  24.6013  25.0073  25.1656
    25.5592

          k = 0.1250-0.2357 0.0000 ( 17785 PWs)   bands (ev):

     0.1607   0.2479   1.8012   2.4037   3.0872   3.4365   3.8823   3.9952
     4.6808   5.4009   5.6263   6.0580   6.7853   7.1112   7.2685   7.5188
     7.7198   8.2396   8.8096   9.0707   9.5335   9.8782   9.8783  10.0391
    10.0933  10.0951  10.1779  10.3441  10.5978  10.6172  10.7895  10.8434
    10.8717  10.9495  10.9513  11.0605  11.0801  11.2297  11.2550  11.3202
    11.3407  11.3781  11.3941  11.4292  11.5239  11.5503  11.6710  11.6741
    11.7289  11.7642  11.8261  11.8292  11.8780  11.9275  11.9428  11.9918
    12.0723  12.0927  12.1335  12.1922  12.2286  12.3023  12.3221  12.3500
    12.4449  12.4984  12.5114  12.5577  12.6119  12.7284  12.7316  12.8089
    12.8128  12.8831  12.9355  12.9738  13.0358  13.0853  13.1418  13.2038
    13.3108  13.3256  13.4311  13.4523  13.4649  13.5066  13.5497  13.5821
    13.6076  13.6546  13.7016  13.7060  13.7307  13.8358  13.8754  13.8999
    13.9401  14.0456  14.0458  14.1060  14.1494  14.2289  14.2716  14.2971
    14.3416  14.3621  14.4577  14.4602  14.4999  14.5419  14.5632  14.6083
    14.7003  14.7528  14.8323  14.8412  14.8468  14.8733  14.9114  14.9874
    15.0425  15.0733  15.1297  15.1816  15.2417  15.2680  15.2774  15.3387
    15.4116  15.4139  15.4529  15.4537  15.5033  15.5191  15.5987  15.6941
    15.6987  15.7330  15.7675  15.7985  15.8449  15.9124  15.9506  16.0243
    16.1197  16.2406  16.3124  16.4743  16.6298  16.9968  17.4494  17.7885
    17.8389  18.2260  18.6960  19.4283  19.4588  19.6987  20.0199  20.0309
    20.5123  20.7574  20.9191  21.0991  21.3725  21.4989  21.8589  21.9289
    22.0247  22.2142  22.6127  22.7998  23.2393  23.3990  23.5524  23.6786
    24.0658  24.2163  24.3106  24.3801  24.4318  24.8562  25.3903  25.5079
    25.9381

          k = 0.1250-0.1768 0.0000 ( 17796 PWs)   bands (ev):

     0.3296   0.4409   1.6815   2.5704   2.9008   3.2557   3.7150   3.8070
     4.6456   5.2006   5.3416   6.0298   6.5923   7.1613   7.3711   7.6034
     8.1965   8.4920   8.6430   8.9985   9.4783   9.7615   9.8447   9.9191
     9.9253  10.2523  10.3341  10.3877  10.5724  10.5997  10.6312  10.8079
    10.8434  10.8693  10.9554  10.9589  11.0819  11.1535  11.2113  11.2374
    11.3099  11.3442  11.3487  11.4081  11.4609  11.4886  11.5661  11.6653
    11.6879  11.6904  11.7689  11.7863  11.8262  11.8366  11.9050  12.0213
    12.1088  12.1323  12.1715  12.1753  12.2481  12.3083  12.3897  12.4585
    12.5233  12.5812  12.6271  12.6409  12.7015  12.7527  12.7905  12.8402
    12.8888  12.9587  12.9710  13.0261  13.0624  13.1518  13.1864  13.2231
    13.2759  13.3658  13.3811  13.4079  13.4219  13.4736  13.5585  13.6087
    13.6321  13.6550  13.6930  13.7422  13.8647  13.8665  13.8997  13.9310
    14.0336  14.0604  14.1448  14.1583  14.2168  14.3399  14.3667  14.4024
    14.4156  14.4673  14.5044  14.5165  14.5747  14.5842  14.6831  14.7069
    14.7806  14.7970  14.8361  14.8923  14.9087  14.9702  15.0334  15.0562
    15.1098  15.1166  15.1803  15.2856  15.3044  15.3486  15.3903  15.4062
    15.4169  15.4838  15.5503  15.5708  15.6315  15.6975  15.7022  15.7312
    15.7420  15.7771  15.7962  15.8618  15.8866  15.9835  16.0031  16.1194
    16.2138  16.2239  16.2897  16.5890  16.6110  16.8544  17.5590  17.7175
    18.0087  18.3586  18.5137  18.6598  19.1444  19.3580  19.6344  20.0160
    20.1635  20.1675  20.5511  20.9936  21.2710  21.2804  21.3545  21.6957
    21.9550  22.6300  22.7251  22.8417  23.2423  23.2868  23.2968  23.5795
    24.0735  24.1796  24.2410  24.3780  24.7557  25.3832  25.6625  25.8695
    25.8699

          k = 0.1250-0.1179 0.0000 ( 17815 PWs)   bands (ev):

     0.5623   0.6660   1.5454   2.6595   2.8209   3.1180   3.3255   3.5337
     4.7051   5.1356   5.2293   5.9405   6.4257   7.2283   7.4165   7.6592
     8.3239   8.5561   8.7138   9.1166   9.4738   9.6428   9.7452   9.8917
     9.9730  10.1344  10.3623  10.4350  10.4697  10.5468  10.6442  10.7582
    10.8181  10.8303  10.8944  11.0441  11.0453  11.1222  11.1408  11.1988
    11.2605  11.2815  11.3362  11.3851  11.3889  11.4338  11.4630  11.6022
    11.6113  11.6266  11.6667  11.7034  11.7198  11.7914  11.8909  12.0416
    12.1626  12.1627  12.2415  12.2468  12.2921  12.4027  12.4845  12.5577
    12.6182  12.6522  12.6965  12.7388  12.8051  12.8081  12.8364  12.9181
    12.9988  13.0043  13.0320  13.0664  13.1225  13.1579  13.1934  13.2566
    13.2757  13.3344  13.3363  13.3599  13.3834  13.4722  13.5400  13.5495
    13.6412  13.7002  13.7488  13.7544  13.8059  13.8968  13.9935  14.0295
    14.0535  14.1517  14.1815  14.2529  14.2914  14.3727  14.4212  14.4465
    14.4889  14.5150  14.5861  14.6245  14.6372  14.6784  14.7180  14.7736
    14.8098  14.8172  14.8419  14.9344  14.9809  15.0473  15.0754  15.0989
    15.1354  15.1876  15.2485  15.2818  15.3381  15.3732  15.4394  15.4403
    15.5259  15.5814  15.6045  15.6469  15.6603  15.7116  15.7701  15.7704
    15.8066  15.8342  15.8616  15.9243  15.9952  16.2376  16.2619  16.2804
    16.3318  16.5245  16.6069  16.6230  16.7580  16.8062  17.3177  17.7769
    17.9653  18.3132  18.4505  18.6349  18.8365  19.1189  19.1702  19.3333
    19.3866  19.8937  20.1879  20.2997  21.1085  21.1420  21.2857  21.5493
    22.2065  22.5393  23.0339  23.0729  23.1494  23.3767  23.4697  23.5206
    24.0314  24.2432  24.3117  24.6211  25.0168  25.2575  25.6751  25.8572
    25.9364

          k = 0.1250-0.0589 0.0000 ( 17791 PWs)   bands (ev):

     0.8373   0.8690   1.3628   2.6169   2.8904   2.9950   3.0499   3.2521
     4.7524   5.0123   5.3907   5.7833   6.3115   7.3079   7.4139   7.6898
     8.2059   8.4635   9.1256   9.1939   9.4786   9.5289   9.6730   9.9067
    10.0024  10.0524  10.2708  10.3347  10.5423  10.5426  10.6227  10.7467
    10.7975  10.8397  10.8969  10.9896  11.0785  11.0941  11.1386  11.1935
    11.2068  11.2478  11.2982  11.3295  11.3812  11.3927  11.4504  11.4798
    11.5487  11.5513  11.5764  11.6607  11.6617  11.7703  11.8801  12.0402
    12.1623  12.2339  12.2918  12.2946  12.3844  12.5463  12.5739  12.6432
    12.6755  12.7229  12.7308  12.7966  12.8529  12.8921  12.8973  12.9206
    13.0338  13.0488  13.0535  13.1097  13.1180  13.1815  13.2048  13.2471
    13.2888  13.2968  13.3126  13.3518  13.4144  13.4304  13.5468  13.5659
    13.6175  13.6565  13.7524  13.7615  13.8362  13.9375  14.0296  14.0744
    14.0962  14.1542  14.2641  14.2881  14.3372  14.3966  14.4227  14.4706
    14.5144  14.6023  14.6255  14.6539  14.6899  14.7255  14.7483  14.8054
    14.8064  14.8603  14.8624  14.9126  15.0343  15.0444  15.0940  15.1307
    15.2213  15.2694  15.2770  15.2957  15.3448  15.3996  15.4568  15.5055
    15.5656  15.6234  15.6398  15.6736  15.7017  15.7304  15.7781  15.8213
    15.8462  15.8845  15.8866  15.9657  15.9915  16.2255  16.3495  16.3655
    16.5624  16.7833  16.8704  16.8985  17.1126  17.2232  17.4154  17.5645
    18.0951  18.1271  18.3062  18.4635  18.5940  18.8637  18.9361  18.9794
    19.1419  19.3811  19.5245  19.7252  20.9970  21.0332  21.1212  21.4479
    22.4034  22.5915  22.8697  23.4822  23.4842  23.6012  23.8181  24.0031
    24.0797  24.2443  24.3774  24.7140  24.9486  25.0895  25.1018  25.4371
    25.6876

          k = 0.2500 0.0000 0.0000 ( 17793 PWs)   bands (ev):

     0.9686   1.1271   1.1271   2.8456   2.8969   2.9432   3.1508   3.1508
     4.7181   5.2401   5.6673   5.6673   6.4580   7.2893   7.2894   7.4826
     8.5371   8.7954   9.2019   9.3617   9.3620   9.5151   9.5817   9.7789
    10.0257  10.1653  10.1670  10.2603  10.5866  10.6649  10.6653  10.8147
    10.8150  10.8350  10.8375  10.8939  10.9223  11.0648  11.1840  11.1846
    11.2278  11.2917  11.3045  11.3191  11.3818  11.3904  11.4121  11.5346
    11.5359  11.5473  11.7563  11.7732  11.7832  12.0668  12.0903  12.0937
    12.3188  12.3317  12.3976  12.4067  12.5770  12.6795  12.7014  12.7050
    12.7664  12.8691  12.8732  12.9073  12.9181  12.9979  13.0284  13.0508
    13.1258  13.1628  13.1779  13.2057  13.2292  13.2507  13.3073  13.3223
    13.3337  13.3866  13.4054  13.4695  13.4752  13.4883  13.5630  13.6185
    13.6904  13.7200  13.7596  13.8188  13.8444  13.8466  13.8792  13.8817
    13.9876  14.0673  14.0681  14.1014  14.2282  14.2494  14.2595  14.3027
    14.3931  14.4019  14.4183  14.4400  14.4605  14.5472  14.5898  14.6955
    14.7031  14.7731  14.8402  14.9266  14.9362  14.9441  14.9999  15.1063
    15.1263  15.1336  15.1529  15.3176  15.3676  15.3813  15.4355  15.4627
    15.5171  15.5846  15.6127  15.6187  15.6285  15.6875  15.7404  15.7687
    15.7809  15.7825  15.9187  15.9422  16.0362  16.2885  16.2893  16.3519
    16.4592  16.9509  16.9968  17.0358  17.0643  17.0725  17.3436  17.6732
    17.7004  17.7019  18.1004  18.1181  18.7633  18.8063  18.8807  19.0780
    19.2082  19.3178  19.4276  19.6204  20.3657  20.4198  21.0539  21.0712
    21.5621  22.1106  22.1241  22.4009  22.7552  22.7616  22.9082  22.9114
    23.2402  23.2575  23.3212  23.5240  23.5457  23.7468  24.4697  24.5039
    25.1712

          k = 0.2500 0.0589 0.0000 ( 17783 PWs)   bands (ev):

     0.8595   0.8905   1.3612   2.8020   2.8972   3.0879   3.1184   3.3027
     4.7023   5.2889   5.4931   5.8296   6.4914   7.2251   7.3443   7.4882
     8.5705   8.8084   9.0931   9.2290   9.5521   9.5732   9.5893   9.8151
    10.0462  10.0726  10.2630  10.2990  10.5266  10.5523  10.7472  10.7734
    10.8161  10.8454  10.8550  10.8913  10.9883  11.1163  11.1308  11.2474
    11.2622  11.2770  11.3277  11.3526  11.3967  11.4198  11.4487  11.5182
    11.5527  11.5892  11.7356  11.7643  11.8304  12.0676  12.0733  12.0972
    12.3058  12.3185  12.3833  12.4227  12.5492  12.6284  12.6808  12.6893
    12.7665  12.8333  12.8402  12.9007  12.9008  12.9751  13.0191  13.0712
    13.0870  13.1373  13.1522  13.1954  13.2511  13.2725  13.2861  13.2989
    13.3252  13.4118  13.4135  13.4503  13.4891  13.4931  13.5086  13.5854
    13.6253  13.7130  13.7214  13.7683  13.7948  13.8257  13.8595  13.8897
    13.9766  14.0373  14.0575  14.0919  14.1506  14.2115  14.2511  14.2664
    14.3463  14.3744  14.3922  14.4607  14.4808  14.5317  14.6551  14.6700
    14.7155  14.7667  14.8747  14.8779  14.9140  14.9648  15.0395  15.0931
    15.1160  15.1302  15.2302  15.3052  15.3373  15.3476  15.4022  15.5171
    15.5216  15.5636  15.5942  15.6147  15.6341  15.6569  15.7057  15.7502
    15.7804  15.7905  15.8789  15.9082  16.0350  16.0908  16.3310  16.4693
    16.5078  16.7505  16.8318  16.9461  16.9461  17.1585  17.3190  17.4575
    17.6312  17.7799  18.0949  18.4574  18.6226  18.8236  18.8268  19.1245
    19.4983  19.6800  19.7243  19.8325  20.1015  20.1584  20.9801  21.2870
    21.5798  21.8333  22.0822  22.1865  22.4098  22.4880  22.7880  23.0639
    23.3698  23.6198  23.7718  23.7947  24.0203  24.1632  24.2153  24.7133
    25.1893

          k = 0.2500 0.1179 0.0000 ( 17763 PWs)   bands (ev):

     0.5981   0.7055   1.5402   2.7108   2.9421   3.1839   3.3917   3.5533
     4.6556   5.3405   5.4309   5.9584   6.5863   7.1704   7.3773   7.4993
     8.6533   8.7710   8.8439   9.3017   9.5518   9.6722   9.7820   9.9169
     9.9976  10.0644  10.3316  10.3442  10.4298  10.4308  10.7786  10.7850
    10.8512  10.8684  10.9007  10.9593  11.0769  11.0991  11.2215  11.2471
    11.3226  11.3478  11.3769  11.4419  11.4494  11.4803  11.5350  11.5400
    11.5850  11.6632  11.7020  11.7882  11.8949  12.0283  12.0796  12.0856
    12.2472  12.3019  12.3546  12.4194  12.4911  12.5268  12.6022  12.6583
    12.7096  12.7540  12.7899  12.8528  12.8658  12.9277  12.9337  13.0029
    13.0947  13.0966  13.1539  13.1633  13.2085  13.2490  13.2780  13.2820
    13.3451  13.3479  13.4013  13.4421  13.4465  13.4784  13.4937  13.5156
    13.5589  13.6159  13.6474  13.6969  13.7415  13.7653  13.8045  13.8597
    13.8994  13.9587  14.0267  14.0486  14.1014  14.1056  14.1530  14.2195
    14.2774  14.3196  14.3892  14.4408  14.4448  14.5468  14.6144  14.6300
    14.6996  14.8079  14.8296  14.8714  14.9597  14.9689  15.0627  15.0719
    15.1015  15.1212  15.2389  15.2878  15.3657  15.3744  15.3890  15.4730
    15.5044  15.5182  15.5263  15.5849  15.6204  15.6205  15.6554  15.7146
    15.7390  15.7843  15.8097  15.8522  15.8980  16.1038  16.1239  16.3051
    16.3228  16.5533  16.6158  16.7697  16.9778  17.1760  17.3833  17.4094
    17.6570  17.8297  17.9501  18.2672  18.9942  19.1810  19.2512  19.3728
    19.5991  19.7073  19.7560  19.8525  20.3254  20.6489  20.8530  21.2052
    21.3880  21.6322  21.7213  22.0632  22.4355  22.4673  22.6195  23.4237
    23.5116  23.8347  23.9382  24.2391  24.5904  24.8206  24.9880  25.2407
    25.3260

          k = 0.2500 0.1768 0.0000 ( 17751 PWs)   bands (ev):

     0.3765   0.4940   1.6761   2.5614   3.0678   3.3170   3.7406   3.8019
     4.5920   5.2601   5.6558   6.0551   6.7279   7.1460   7.3813   7.5013
     8.3932   8.6552   8.9465   9.3677   9.5791   9.8423   9.9106   9.9489
     9.9628  10.1086  10.3144  10.3490  10.3525  10.5714  10.7491  10.8097
    10.9023  10.9704  10.9709  11.0646  11.0891  11.1846  11.2411  11.3432
    11.3651  11.4125  11.4486  11.5077  11.5312  11.5822  11.6012  11.6342
    11.6555  11.6903  11.7603  11.8357  11.9360  12.0054  12.0371  12.0922
    12.2061  12.2482  12.3417  12.3499  12.4322  12.4408  12.5002  12.5538
    12.6284  12.6527  12.7377  12.7974  12.8088  12.8217  12.8646  12.9403
    12.9687  13.0566  13.0579  13.1097  13.1578  13.2001  13.2375  13.2641
    13.3052  13.3290  13.3478  13.3959  13.4138  13.4468  13.4495  13.5006
    13.5102  13.5718  13.6036  13.6456  13.6706  13.6746  13.7594  13.7933
    13.8399  13.8438  13.9536  13.9541  14.0089  14.0289  14.1506  14.1866
    14.2366  14.2393  14.3466  14.3549  14.3971  14.5082  14.5462  14.5969
    14.6448  14.7299  14.8314  14.8612  14.8919  14.9491  14.9712  15.0828
    15.1142  15.1707  15.1793  15.2763  15.2988  15.3580  15.3644  15.4091
    15.4470  15.4581  15.5026  15.5243  15.5621  15.5823  15.6106  15.6397
    15.6413  15.7095  15.7168  15.7534  15.8259  15.8828  15.9944  16.0025
    16.3660  16.4421  16.5975  16.7685  16.8865  17.0033  17.1571  17.6809
    17.8444  17.9893  18.1651  18.2752  18.9293  19.0561  19.2051  19.4607
    19.8510  20.0289  20.1204  20.3192  20.3564  20.6254  20.9233  21.1274
    21.3750  21.7186  21.9311  22.0736  22.4753  22.4818  22.9164  23.3817
    23.5460  23.7235  24.1753  25.0048  25.3112  25.3216  25.4153  25.7203
    25.8116

          k = 0.2500 0.2357 0.0000 ( 17768 PWs)   bands (ev):

     0.2159   0.3089   1.7957   2.3902   3.2433   3.4917   3.9028   4.0044
     4.5851   5.2626   5.9498   6.1928   6.8973   7.1524   7.3608   7.4775
     7.9811   8.3832   9.1601   9.3899   9.7210   9.8757   9.9324   9.9554
    10.0666  10.2526  10.3149  10.3430  10.4587  10.6461  10.7192  10.9122
    10.9457  10.9967  11.0832  11.1088  11.1928  11.2274  11.3017  11.3774
    11.3934  11.4686  11.5103  11.5189  11.5336  11.6537  11.6996  11.7056
    11.7257  11.8092  11.8579  11.9464  11.9475  11.9844  12.0909  12.1010
    12.1729  12.2153  12.2747  12.2956  12.3342  12.3897  12.4056  12.4606
    12.5363  12.5807  12.6576  12.7014  12.7504  12.7567  12.7699  12.8710
    12.8880  12.9458  12.9831  13.0117  13.0715  13.1292  13.1852  13.1895
    13.2376  13.2717  13.3082  13.3420  13.3706  13.3849  13.4130  13.4645
    13.4935  13.5131  13.5639  13.5809  13.6383  13.6652  13.6824  13.7157
    13.7686  13.8214  13.8332  13.9670  13.9901  14.0331  14.0546  14.1438
    14.1512  14.2593  14.2604  14.3338  14.3769  14.3926  14.5284  14.5573
    14.6380  14.6462  14.7077  14.7537  14.8336  14.8429  14.9141  14.9554
    15.0430  15.0691  15.1268  15.1560  15.2262  15.2426  15.2778  15.2828
    15.3583  15.3873  15.4338  15.4822  15.4973  15.5700  15.5700  15.6048
    15.6132  15.6692  15.7210  15.7513  15.8338  15.8342  15.9379  15.9776
    16.1684  16.4620  16.5430  16.7730  16.7778  17.0772  17.4277  17.8465
    17.8905  18.0619  18.1035  18.4486  18.4934  18.9129  19.4152  19.7529
    19.7815  19.9955  20.3194  20.4106  20.4766  20.7210  21.0796  21.5790
    21.7697  21.8409  22.1046  22.2050  22.5285  22.6867  22.8976  23.6190
    23.8411  23.8808  24.4953  25.1253  25.4878  25.4945  25.7535  25.8014
    26.0094

          k = 0.2500 0.2946 0.0000 ( 17790 PWs)   bands (ev):

     0.1273   0.1778   1.9204   2.2191   3.4461   3.6850   3.8262   4.0184
     4.7652   5.2058   6.2849   6.4646   7.0797   7.1455   7.3623   7.4150
     7.5947   7.9086   9.4149   9.4797   9.7463   9.8740   9.9132  10.0670
    10.1147  10.2273  10.3919  10.4943  10.5698  10.6421  10.8434  10.8831
    10.9714  11.0565  11.0696  11.1671  11.2548  11.2915  11.3440  11.3818
    11.4149  11.4249  11.4395  11.5451  11.6412  11.6842  11.7335  11.7493
    11.7750  11.8510  11.9008  11.9681  12.0247  12.0948  12.1456  12.1556
    12.1886  12.2009  12.2152  12.2377  12.3181  12.3767  12.4083  12.4404
    12.5018  12.5164  12.5765  12.5934  12.6614  12.7115  12.7252  12.7997
    12.8396  12.8498  12.8938  12.9737  12.9835  13.0566  13.1052  13.1278
    13.1321  13.2407  13.2596  13.2822  13.3077  13.3167  13.3669  13.4260
    13.4275  13.4526  13.4878  13.5694  13.5918  13.6084  13.6496  13.6974
    13.7413  13.7889  13.8443  13.9479  13.9872  14.0467  14.0676  14.1327
    14.1941  14.2681  14.3072  14.3592  14.3741  14.4158  14.4188  14.5221
    14.5362  14.5545  14.5970  14.6022  14.7068  14.7256  14.7928  14.8197
    14.8465  14.9274  14.9911  15.0451  15.0462  15.1748  15.2399  15.3009
    15.3294  15.4099  15.4474  15.4537  15.5060  15.5522  15.5799  15.5824
    15.6558  15.7179  15.7263  15.8165  15.8387  15.8599  15.9054  15.9998
    16.0333  16.2415  16.6174  16.6837  17.0150  17.3253  17.5785  17.7237
    17.8431  17.9846  18.1485  18.4915  18.5538  18.7915  19.3510  19.5905
    19.6357  20.0814  20.1614  20.7444  20.8089  20.9145  21.3110  21.7232
    21.8668  22.0014  22.5001  22.5965  22.6492  22.7523  23.0012  23.4544
    24.4857  24.6687  24.7060  24.8775  25.0528  25.1316  25.6519  25.6603
    25.9606

          k = 0.2500-0.3536 0.0000 ( 17788 PWs)   bands (ev):

     0.1150   0.1150   2.0608   2.0608   3.6517   3.6518   3.8747   3.8748
     5.0181   5.0181   6.5610   6.5610   7.2424   7.2424   7.2999   7.2999
     7.5025   7.5025   9.5899   9.5899   9.7020   9.7020  10.0245  10.0245
    10.2373  10.2373  10.3899  10.3899  10.7769  10.7769  10.8453  10.8453
    10.9534  10.9534  11.1934  11.1934  11.2658  11.2658  11.3021  11.3021
    11.4319  11.4319  11.5100  11.5100  11.6767  11.6767  11.7570  11.7570
    11.8304  11.8304  11.9467  11.9467  12.0438  12.0438  12.1763  12.1763
    12.2071  12.2071  12.3115  12.3115  12.3394  12.3394  12.4303  12.4303
    12.4899  12.4899  12.5519  12.5519  12.6393  12.6393  12.7278  12.7278
    12.8109  12.8109  12.9070  12.9070  12.9982  12.9982  13.0717  13.0717
    13.1609  13.1609  13.2451  13.2451  13.2964  13.2964  13.3560  13.3560
    13.4198  13.4198  13.4683  13.4683  13.6039  13.6039  13.7128  13.7128
    13.7389  13.7389  13.8234  13.8234  14.0660  14.0660  14.1950  14.1951
    14.2839  14.2840  14.3554  14.3554  14.3710  14.3710  14.4256  14.4257
    14.4795  14.4795  14.5327  14.5327  14.6054  14.6054  14.7199  14.7199
    14.8726  14.8726  14.9487  14.9487  15.1025  15.1025  15.2604  15.2604
    15.3757  15.3757  15.4504  15.4504  15.5430  15.5430  15.5653  15.5654
    15.7031  15.7031  15.8064  15.8064  15.8666  15.8666  15.9317  15.9317
    16.0826  16.0826  16.6558  16.6558  17.2814  17.2814  17.6038  17.6038
    17.9335  17.9335  18.2063  18.2063  18.9111  18.9111  19.1754  19.1754
    19.8828  19.8828  20.4138  20.4138  21.2227  21.2227  21.3755  21.3755
    22.1432  22.1432  22.5710  22.5710  22.6996  22.6996  23.7488  23.7488
    23.9365  23.9366  25.2761  25.2761  25.4366  25.4367  25.5467  25.5473
    25.7139

          k = 0.2500-0.2946 0.0000 ( 17790 PWs)   bands (ev):

     0.1273   0.1778   1.9204   2.2191   3.4461   3.6850   3.8262   4.0184
     4.7652   5.2058   6.2849   6.4646   7.0797   7.1455   7.3623   7.4150
     7.5947   7.9086   9.4149   9.4797   9.7463   9.8740   9.9132  10.0670
    10.1147  10.2273  10.3919  10.4943  10.5698  10.6421  10.8434  10.8831
    10.9714  11.0565  11.0696  11.1671  11.2548  11.2915  11.3440  11.3818
    11.4149  11.4249  11.4395  11.5451  11.6412  11.6842  11.7335  11.7493
    11.7750  11.8510  11.9008  11.9681  12.0247  12.0948  12.1456  12.1556
    12.1886  12.2009  12.2152  12.2377  12.3181  12.3767  12.4083  12.4404
    12.5018  12.5164  12.5765  12.5934  12.6614  12.7115  12.7252  12.7997
    12.8396  12.8498  12.8938  12.9737  12.9835  13.0566  13.1052  13.1278
    13.1321  13.2407  13.2596  13.2822  13.3077  13.3167  13.3669  13.4260
    13.4275  13.4526  13.4878  13.5694  13.5918  13.6084  13.6496  13.6974
    13.7413  13.7889  13.8443  13.9479  13.9872  14.0467  14.0676  14.1327
    14.1941  14.2681  14.3072  14.3592  14.3741  14.4158  14.4188  14.5221
    14.5362  14.5545  14.5970  14.6022  14.7068  14.7256  14.7928  14.8197
    14.8465  14.9274  14.9911  15.0451  15.0462  15.1748  15.2399  15.3009
    15.3294  15.4099  15.4474  15.4537  15.5060  15.5522  15.5799  15.5824
    15.6558  15.7179  15.7263  15.8165  15.8387  15.8599  15.9054  15.9998
    16.0333  16.2415  16.6174  16.6837  17.0150  17.3253  17.5785  17.7237
    17.8431  17.9846  18.1485  18.4915  18.5538  18.7915  19.3510  19.5905
    19.6357  20.0814  20.1614  20.7444  20.8089  20.9145  21.3110  21.7232
    21.8668  22.0014  22.5001  22.5965  22.6492  22.7523  23.0012  23.4544
    24.4857  24.6687  24.7060  24.8775  25.0528  25.1316  25.6520  25.6603
    25.9606

          k = 0.2500-0.2357 0.0000 ( 17768 PWs)   bands (ev):

     0.2159   0.3089   1.7957   2.3902   3.2433   3.4917   3.9028   4.0044
     4.5851   5.2626   5.9498   6.1928   6.8973   7.1524   7.3608   7.4775
     7.9811   8.3832   9.1601   9.3899   9.7210   9.8757   9.9324   9.9554
    10.0666  10.2526  10.3149  10.3430  10.4587  10.6461  10.7192  10.9122
    10.9457  10.9967  11.0832  11.1088  11.1928  11.2274  11.3017  11.3774
    11.3934  11.4686  11.5103  11.5189  11.5336  11.6537  11.6996  11.7056
    11.7257  11.8092  11.8579  11.9464  11.9475  11.9844  12.0909  12.1010
    12.1729  12.2153  12.2747  12.2956  12.3342  12.3897  12.4056  12.4606
    12.5363  12.5807  12.6576  12.7014  12.7504  12.7567  12.7699  12.8710
    12.8880  12.9458  12.9831  13.0117  13.0715  13.1292  13.1852  13.1895
    13.2376  13.2717  13.3082  13.3420  13.3706  13.3849  13.4130  13.4645
    13.4935  13.5131  13.5639  13.5809  13.6383  13.6652  13.6824  13.7157
    13.7686  13.8214  13.8332  13.9670  13.9901  14.0331  14.0546  14.1438
    14.1512  14.2593  14.2604  14.3338  14.3769  14.3926  14.5284  14.5573
    14.6380  14.6462  14.7077  14.7537  14.8336  14.8429  14.9141  14.9554
    15.0430  15.0691  15.1268  15.1560  15.2262  15.2426  15.2778  15.2828
    15.3583  15.3873  15.4338  15.4822  15.4973  15.5700  15.5700  15.6048
    15.6132  15.6692  15.7210  15.7513  15.8338  15.8342  15.9379  15.9776
    16.1684  16.4620  16.5430  16.7730  16.7778  17.0772  17.4277  17.8465
    17.8905  18.0619  18.1035  18.4486  18.4934  18.9129  19.4152  19.7529
    19.7815  19.9955  20.3194  20.4106  20.4766  20.7210  21.0796  21.5790
    21.7697  21.8409  22.1046  22.2050  22.5285  22.6867  22.8976  23.6190
    23.8411  23.8808  24.4953  25.1253  25.4878  25.4945  25.7535  25.8014
    26.0094

          k = 0.2500-0.1768 0.0000 ( 17751 PWs)   bands (ev):

     0.3765   0.4940   1.6761   2.5614   3.0678   3.3170   3.7406   3.8019
     4.5920   5.2601   5.6558   6.0551   6.7279   7.1460   7.3813   7.5013
     8.3932   8.6552   8.9465   9.3677   9.5791   9.8423   9.9106   9.9489
     9.9628  10.1086  10.3144  10.3490  10.3525  10.5714  10.7491  10.8097
    10.9023  10.9704  10.9709  11.0646  11.0891  11.1846  11.2411  11.3432
    11.3651  11.4125  11.4486  11.5077  11.5312  11.5822  11.6012  11.6342
    11.6555  11.6903  11.7603  11.8357  11.9360  12.0054  12.0371  12.0922
    12.2061  12.2482  12.3417  12.3499  12.4322  12.4408  12.5002  12.5538
    12.6284  12.6527  12.7377  12.7974  12.8088  12.8217  12.8646  12.9403
    12.9687  13.0566  13.0579  13.1097  13.1578  13.2001  13.2375  13.2641
    13.3052  13.3290  13.3478  13.3959  13.4138  13.4468  13.4495  13.5006
    13.5102  13.5718  13.6036  13.6456  13.6706  13.6746  13.7594  13.7933
    13.8399  13.8438  13.9536  13.9541  14.0089  14.0289  14.1506  14.1866
    14.2366  14.2393  14.3466  14.3549  14.3971  14.5082  14.5462  14.5969
    14.6448  14.7299  14.8314  14.8612  14.8919  14.9491  14.9712  15.0828
    15.1142  15.1707  15.1793  15.2763  15.2988  15.3580  15.3644  15.4091
    15.4470  15.4581  15.5026  15.5243  15.5621  15.5823  15.6106  15.6397
    15.6413  15.7095  15.7168  15.7534  15.8259  15.8828  15.9944  16.0025
    16.3660  16.4421  16.5975  16.7685  16.8865  17.0033  17.1571  17.6809
    17.8444  17.9893  18.1651  18.2752  18.9293  19.0561  19.2051  19.4607
    19.8510  20.0289  20.1204  20.3192  20.3564  20.6254  20.9233  21.1274
    21.3750  21.7186  21.9311  22.0736  22.4753  22.4818  22.9164  23.3817
    23.5460  23.7235  24.1753  25.0048  25.3112  25.3216  25.4153  25.7196
    25.8116

          k = 0.2500-0.1179 0.0000 ( 17763 PWs)   bands (ev):

     0.5981   0.7055   1.5402   2.7108   2.9421   3.1839   3.3917   3.5533
     4.6556   5.3405   5.4309   5.9584   6.5863   7.1704   7.3773   7.4993
     8.6533   8.7710   8.8439   9.3017   9.5518   9.6722   9.7820   9.9169
     9.9976  10.0644  10.3316  10.3442  10.4298  10.4308  10.7786  10.7850
    10.8512  10.8684  10.9007  10.9593  11.0769  11.0991  11.2215  11.2471
    11.3226  11.3478  11.3769  11.4419  11.4494  11.4803  11.5350  11.5400
    11.5850  11.6632  11.7020  11.7882  11.8949  12.0283  12.0796  12.0856
    12.2472  12.3019  12.3546  12.4194  12.4911  12.5268  12.6022  12.6583
    12.7096  12.7540  12.7899  12.8528  12.8658  12.9277  12.9337  13.0029
    13.0947  13.0966  13.1539  13.1633  13.2085  13.2490  13.2780  13.2820
    13.3451  13.3479  13.4013  13.4421  13.4465  13.4784  13.4937  13.5156
    13.5589  13.6159  13.6474  13.6969  13.7415  13.7653  13.8045  13.8597
    13.8994  13.9587  14.0267  14.0486  14.1014  14.1056  14.1530  14.2195
    14.2774  14.3196  14.3892  14.4408  14.4448  14.5468  14.6145  14.6300
    14.6996  14.8079  14.8296  14.8714  14.9597  14.9689  15.0627  15.0719
    15.1015  15.1212  15.2389  15.2878  15.3657  15.3744  15.3890  15.4730
    15.5044  15.5182  15.5263  15.5849  15.6204  15.6205  15.6554  15.7146
    15.7390  15.7843  15.8097  15.8522  15.8980  16.1038  16.1239  16.3051
    16.3228  16.5533  16.6158  16.7697  16.9778  17.1760  17.3833  17.4094
    17.6570  17.8297  17.9501  18.2672  18.9942  19.1810  19.2512  19.3728
    19.5991  19.7073  19.7560  19.8525  20.3254  20.6489  20.8530  21.2052
    21.3880  21.6322  21.7213  22.0632  22.4355  22.4673  22.6195  23.4237
    23.5116  23.8347  23.9382  24.2391  24.5904  24.8206  24.9880  25.2406
    25.3261

          k = 0.2500-0.0589 0.0000 ( 17783 PWs)   bands (ev):

     0.8595   0.8905   1.3612   2.8020   2.8972   3.0879   3.1184   3.3027
     4.7023   5.2889   5.4931   5.8296   6.4914   7.2251   7.3443   7.4882
     8.5705   8.8084   9.0931   9.2290   9.5521   9.5732   9.5893   9.8151
    10.0462  10.0726  10.2630  10.2990  10.5266  10.5523  10.7472  10.7734
    10.8161  10.8454  10.8550  10.8913  10.9883  11.1163  11.1308  11.2474
    11.2622  11.2770  11.3277  11.3526  11.3967  11.4198  11.4487  11.5182
    11.5527  11.5892  11.7356  11.7643  11.8304  12.0676  12.0733  12.0972
    12.3058  12.3185  12.3833  12.4227  12.5492  12.6284  12.6808  12.6893
    12.7665  12.8333  12.8402  12.9007  12.9008  12.9751  13.0191  13.0712
    13.0870  13.1373  13.1522  13.1954  13.2511  13.2725  13.2861  13.2989
    13.3252  13.4118  13.4135  13.4503  13.4891  13.4931  13.5086  13.5854
    13.6253  13.7130  13.7214  13.7683  13.7948  13.8257  13.8595  13.8897
    13.9766  14.0373  14.0575  14.0919  14.1506  14.2115  14.2511  14.2664
    14.3463  14.3744  14.3922  14.4607  14.4808  14.5317  14.6551  14.6700
    14.7155  14.7667  14.8747  14.8779  14.9140  14.9648  15.0395  15.0931
    15.1160  15.1302  15.2302  15.3052  15.3373  15.3476  15.4022  15.5171
    15.5216  15.5636  15.5942  15.6147  15.6341  15.6569  15.7057  15.7502
    15.7804  15.7905  15.8789  15.9082  16.0350  16.0908  16.3310  16.4693
    16.5078  16.7505  16.8318  16.9461  16.9461  17.1585  17.3190  17.4575
    17.6312  17.7799  18.0949  18.4574  18.6226  18.8236  18.8268  19.1245
    19.4983  19.6800  19.7243  19.8325  20.1015  20.1584  20.9801  21.2870
    21.5798  21.8333  22.0822  22.1865  22.4098  22.4880  22.7880  23.0639
    23.3698  23.6198  23.7718  23.7947  24.0203  24.1632  24.2153  24.7132
    25.1890

          k = 0.3750 0.0000 0.0000 ( 17794 PWs)   bands (ev):

     0.9844   1.1360   1.1360   2.8747   3.0276   3.1260   3.2171   3.2172
     4.6492   5.4863   5.7518   5.7518   6.8142   7.2055   7.2056   7.2223
     8.8559   9.0378   9.1102   9.1105   9.5073   9.5459   9.6664   9.9104
    10.1330  10.1339  10.1470  10.4050  10.5235  10.5556  10.7486  10.7654
    10.7889  10.8387  10.8744  10.9015  10.9171  11.0076  11.1392  11.1780
    11.1789  11.2529  11.3173  11.4568  11.4960  11.6089  11.6596  11.6702
    11.7464  11.8794  11.9345  12.0061  12.0292  12.0956  12.1321  12.3160
    12.3643  12.4029  12.4501  12.4780  12.6076  12.6167  12.6878  12.7918
    12.8339  12.8385  12.8871  12.8966  12.9566  12.9691  12.9906  13.0693
    13.1066  13.1349  13.1535  13.1595  13.2097  13.2198  13.3135  13.3206
    13.3281  13.3466  13.4021  13.4158  13.4244  13.4245  13.4867  13.5128
    13.6523  13.7120  13.7131  13.7263  13.7438  13.8099  13.8252  13.8480
    13.8561  13.9172  13.9650  14.0067  14.0709  14.1481  14.2505  14.2792
    14.3767  14.4000  14.4431  14.5440  14.5610  14.5831  14.6071  14.7018
    14.8033  14.8189  14.9021  14.9467  14.9594  14.9754  15.0303  15.0520
    15.0809  15.1361  15.1778  15.2515  15.3995  15.4040  15.4291  15.4640
    15.4838  15.4860  15.5392  15.5987  15.6457  15.6574  15.7081  15.7209
    15.7638  15.7796  15.8054  15.8235  15.9099  15.9286  16.2019  16.3806
    16.3971  16.4098  16.8253  16.9217  16.9352  16.9756  16.9797  17.0707
    17.2039  17.5607  17.9276  17.9992  18.3106  18.3638  18.4470  19.4742
    19.6508  19.7164  19.7283  19.9558  20.5446  20.6304  20.6411  21.2238
    21.2762  21.3879  21.4083  21.7277  21.7346  21.8897  21.9377  21.9812
    22.1020  22.2062  22.7289  22.7452  23.4712  23.8173  24.1024  24.1719
    24.7102

          k = 0.3750 0.0589 0.0000 ( 17796 PWs)   bands (ev):

     0.8831   0.9147   1.3588   2.8253   3.0750   3.1926   3.2084   3.3488
     4.6332   5.5406   5.6217   5.8565   6.8401   7.1713   7.2494   7.2547
     8.8684   8.9935   9.0742   9.2310   9.5465   9.5839   9.6346   9.9496
    10.0567  10.1822  10.2177  10.4255  10.4519  10.5682  10.6510  10.8150
    10.8378  10.8658  10.8805  10.8834  10.9553  11.0408  11.1486  11.1783
    11.2136  11.2693  11.3338  11.4807  11.5076  11.6183  11.6283  11.6953
    11.7691  11.9005  11.9381  12.0147  12.0434  12.1043  12.1520  12.3099
    12.3471  12.3959  12.4754  12.4772  12.5801  12.6229  12.6699  12.7975
    12.8212  12.8500  12.8695  12.8784  12.8921  12.9786  13.0383  13.0552
    13.0826  13.1039  13.1486  13.1567  13.1882  13.1971  13.2637  13.2863
    13.2937  13.3335  13.3930  13.4104  13.4107  13.4306  13.4649  13.5218
    13.5583  13.6518  13.6838  13.6984  13.7589  13.7718  13.8080  13.8526
    13.8881  13.9322  13.9551  14.0232  14.0523  14.1366  14.1897  14.2501
    14.3565  14.3913  14.4576  14.5112  14.5633  14.6023  14.6142  14.6580
    14.6990  14.8570  14.8700  14.8821  14.9002  14.9478  14.9939  15.0212
    15.0518  15.0952  15.1884  15.2889  15.3271  15.3773  15.3903  15.4647
    15.4649  15.5301  15.5311  15.5718  15.6163  15.6363  15.7028  15.7299
    15.7377  15.8157  15.8501  15.8581  15.8815  15.9237  16.0458  16.2912
    16.4146  16.6035  16.6976  16.7526  16.8113  16.9713  17.0830  17.2263
    17.3247  17.3260  17.6459  17.9452  18.4956  18.6017  18.7728  19.0337
    19.1526  19.7670  19.9388  20.1754  20.4282  20.6734  20.8258  21.0508
    21.0717  21.1562  21.3762  21.4889  21.8997  21.9896  22.0736  22.2648
    22.5726  22.7718  23.0500  23.3910  23.4939  23.7582  23.8373  24.0595
    24.6478

          k = 0.3750 0.1179 0.0000 ( 17793 PWs)   bands (ev):

     0.6356   0.7459   1.5326   2.7053   3.1758   3.2583   3.4331   3.5664
     4.5859   5.4778   5.6941   5.9426   6.9140   7.1646   7.3037   7.3223
     8.8666   8.8958   9.1822   9.3562   9.5615   9.6598   9.6949   9.9984
    10.0495  10.2014  10.2841  10.2924  10.4823  10.5265  10.6557  10.8175
    10.8631  10.9197  10.9378  10.9845  11.0114  11.1167  11.1250  11.2773
    11.3111  11.3180  11.3822  11.5168  11.5374  11.6304  11.6531  11.7034
    11.8286  11.9375  11.9465  12.0411  12.0816  12.1256  12.1956  12.2568
    12.3666  12.3741  12.4595  12.5179  12.5466  12.6172  12.6301  12.7350
    12.7668  12.8154  12.8206  12.8509  12.8749  12.9597  12.9663  13.0270
    13.0393  13.0728  13.0819  13.0932  13.1472  13.1498  13.2052  13.2082
    13.2539  13.3035  13.3090  13.3645  13.4068  13.4247  13.4368  13.4509
    13.5031  13.5772  13.6337  13.6526  13.7179  13.7534  13.7853  13.8437
    13.8545  13.9058  13.9525  14.0096  14.0339  14.1059  14.1224  14.2317
    14.2870  14.3095  14.3998  14.4065  14.4955  14.5088  14.5720  14.6104
    14.6341  14.7037  14.7650  14.7918  14.8008  14.9218  14.9351  14.9967
    15.0175  15.0899  15.1665  15.2265  15.2318  15.2947  15.3929  15.3931
    15.4419  15.4606  15.5130  15.5551  15.5764  15.5992  15.6220  15.6599
[...]
    12.6715  12.6717  12.6981  12.6993  12.8481  12.8484  12.9343  12.9347
    12.9598  12.9606  13.0475  13.0478  13.0919  13.0931  13.1917  13.1922
    13.2636  13.2643  13.3472  13.3478  13.3493  13.3498  13.5232  13.5233
    13.5487  13.5491  13.8857  13.8859  13.9839  13.9842  14.3023  14.3027
    14.3824  14.3826  14.4375  14.4385  14.4563  14.4564  14.7306  14.7309
    14.8747  14.8754  15.0134  15.0138  15.0489  15.0492  15.0873  15.0877
    15.1019  15.1025  15.1361  15.1369  15.1383  15.1388  15.2074  15.2077
    15.2656  15.2658  15.2722  15.2725  15.3095  15.3096  15.3618  15.3635
    15.3818  15.3821  15.3855  15.3857  15.6682  15.6689  15.7576  15.7586
    15.8747  15.8758  15.8909  15.8918  15.9178  15.9183  16.4186  16.4187
    16.7830  16.7838  17.2646  17.2653  17.7234  17.7237  18.4097  18.4099
    19.7566  19.7566  20.5672  20.5673  20.6458  20.6464  20.7484  20.7498
    20.7523  20.7524  20.8275  20.8279  21.2391  21.2399  21.3050  21.3056
    22.2463  22.2470  22.6828  22.6840  23.3146  23.3150  23.7877  23.7884
    23.9253

          k =-0.5000 0.0589 0.0000 ( 17814 PWs)   bands (ev):

     8.9704   8.9709   9.3735   9.3739   9.5196   9.5200   9.6700   9.6709
     9.6829   9.6839   9.7229   9.7243   9.8429   9.8434   9.9254   9.9266
     9.9274   9.9275  10.1375  10.1380  10.4482  10.4487  10.6055  10.6065
    10.7685  10.7690  10.7856  10.7862  10.9541  10.9545  11.0743  11.0753
    11.2853  11.2859  11.3712  11.3718  11.4686  11.4698  11.4819  11.4833
    11.6221  11.6227  11.6675  11.6692  11.8401  11.8410  11.9310  11.9314
    12.0443  12.0453  12.0589  12.0597  12.1158  12.1163  12.1861  12.1866
    12.2940  12.2947  12.3060  12.3065  12.3907  12.3919  12.3943  12.3945
    12.4356  12.4360  12.4730  12.4739  12.5774  12.5779  12.6316  12.6317
    12.6569  12.6570  12.7145  12.7154  12.8527  12.8530  12.8844  12.8851
    12.9417  12.9422  12.9833  12.9837  13.0601  13.0613  13.2913  13.2919
    13.2963  13.2967  13.3607  13.3613  13.3640  13.3643  13.5191  13.5194
    13.6499  13.6502  13.8701  13.8704  13.9483  13.9487  14.2890  14.2893
    14.3039  14.3045  14.4520  14.4521  14.4619  14.4622  14.6258  14.6266
    14.7053  14.7055  14.8766  14.8768  14.8916  14.8916  14.9594  14.9603
    15.1003  15.1006  15.1139  15.1142  15.1741  15.1746  15.1868  15.1869
    15.2579  15.2581  15.2716  15.2719  15.3196  15.3200  15.3288  15.3292
    15.3452  15.3454  15.4900  15.4908  15.6537  15.6543  15.8384  15.8395
    15.8491  15.8498  15.9294  15.9304  15.9739  15.9749  16.3483  16.3484
    16.9194  16.9202  17.4108  17.4114  17.5950  17.5953  18.1853  18.1856
    19.5657  19.5659  20.0948  20.0949  20.7645  20.7645  20.7982  20.7996
    21.0059  21.0066  21.0351  21.0353  21.4948  21.4954  21.8200  21.8203
    22.1350  22.1356  22.6856  22.6866  23.3249  23.3253  23.8902  23.8909
    24.3721

          k =-0.5000 0.1179 0.0000 ( 17794 PWs)   bands (ev):

     9.0584   9.0589   9.4021   9.4025   9.5839   9.5844   9.7137   9.7147
     9.7572   9.7581   9.8133   9.8147   9.9372   9.9378   9.9681   9.9693
    10.0288  10.0289  10.2667  10.2674  10.4810  10.4816  10.6351  10.6360
    10.8211  10.8217  10.8408  10.8414  10.9922  10.9927  11.1112  11.1120
    11.3055  11.3063  11.4138  11.4146  11.4839  11.4848  11.4922  11.4932
    11.5553  11.5559  11.7070  11.7087  11.8161  11.8167  11.8754  11.8765
    11.9997  12.0006  12.0456  12.0466  12.0850  12.0855  12.0869  12.0874
    12.2340  12.2342  12.2416  12.2422  12.3223  12.3230  12.3731  12.3737
    12.4109  12.4110  12.4578  12.4583  12.5007  12.5014  12.6142  12.6146
    12.6475  12.6480  12.6528  12.6533  12.8319  12.8322  12.8385  12.8390
    12.9658  12.9661  12.9695  12.9702  13.0342  13.0354  13.2718  13.2721
    13.3430  13.3438  13.3864  13.3871  13.5063  13.5068  13.5395  13.5400
    13.7481  13.7483  13.8069  13.8071  13.9026  13.9028  14.1234  14.1238
    14.2476  14.2477  14.3432  14.3441  14.4225  14.4229  14.4615  14.4620
    14.5279  14.5288  14.5405  14.5407  14.6636  14.6639  14.7507  14.7512
    14.9328  14.9337  14.9647  14.9649  15.0337  15.0339  15.1472  15.1475
    15.1821  15.1830  15.1872  15.1874  15.2509  15.2509  15.3827  15.3830
    15.5380  15.5383  15.5918  15.5924  15.6688  15.6692  15.7474  15.7483
    15.8253  15.8259  16.1129  16.1135  16.1982  16.1982  16.2332  16.2339
    17.2742  17.2748  17.3136  17.3138  17.7664  17.7665  17.7681  17.7687
    19.0683  19.0686  19.4706  19.4710  20.9464  20.9476  21.0582  21.0584
    21.2728  21.2730  21.6036  21.6039  21.8852  21.8859  21.9634  21.9635
    22.8592  22.8598  23.0574  23.0587  23.3567  23.3571  24.4323  24.4328
    24.7271

          k =-0.5000 0.1768 0.0000 ( 17756 PWs)   bands (ev):

     9.1878   9.1884   9.4436   9.4440   9.6726   9.6732   9.7586   9.7596
     9.8910   9.8921   9.9526   9.9541  10.0345  10.0356  10.0750  10.0757
    10.1858  10.1860  10.4752  10.4759  10.5242  10.5248  10.6762  10.6772
    10.8912  10.8919  10.9320  10.9326  11.0499  11.0505  11.1816  11.1821
    11.3004  11.3010  11.4345  11.4352  11.4586  11.4591  11.4985  11.4994
    11.5605  11.5611  11.7226  11.7236  11.7997  11.8003  11.8716  11.8725
    11.9383  11.9390  11.9474  11.9479  12.0014  12.0018  12.0609  12.0614
    12.1090  12.1100  12.1697  12.1700  12.1913  12.1918  12.2769  12.2776
    12.3676  12.3678  12.3766  12.3768  12.4753  12.4765  12.5578  12.5579
    12.6436  12.6438  12.6832  12.6834  12.7794  12.7795  12.8725  12.8726
    13.0187  13.0191  13.0197  13.0201  13.0944  13.0952  13.2220  13.2227
    13.2466  13.2468  13.3915  13.3919  13.4551  13.4556  13.5929  13.5932
    13.6849  13.6852  13.7702  13.7707  13.8611  13.8613  13.9848  13.9856
    14.0088  14.0090  14.1069  14.1072  14.1878  14.1879  14.2341  14.2346
    14.3544  14.3546  14.3898  14.3903  14.5931  14.5936  14.6759  14.6764
    14.7814  14.7816  14.7935  14.7946  14.8204  14.8207  14.9556  14.9560
    15.0246  15.0248  15.1929  15.1939  15.2058  15.2061  15.4867  15.4869
    15.5040  15.5046  15.6417  15.6426  15.7152  15.7157  15.7726  15.7729
    15.8455  15.8461  16.0360  16.0361  16.3833  16.3836  16.5626  16.5633
    17.0135  17.0137  17.3743  17.3744  17.7530  17.7535  18.2156  18.2161
    18.5722  18.5726  18.9066  18.9070  20.6479  20.6480  21.1603  21.1607
    21.1905  21.1916  22.2376  22.2377  22.6887  22.6888  22.8630  22.8632
    23.4127  23.4130  23.6586  23.6593  23.8095  23.8103  24.6104  24.6109
    24.8420

          k =-0.5000 0.2357 0.0000 ( 17778 PWs)   bands (ev):

     9.3304   9.3309   9.4874   9.4880   9.7614   9.7620   9.8074   9.8083
    10.0513  10.0525  10.1152  10.1162  10.1241  10.1256  10.2246  10.2253
    10.3801  10.3804  10.5558  10.5563  10.7024  10.7036  10.7473  10.7482
    10.9353  10.9356  11.0449  11.0456  11.1269  11.1274  11.2394  11.2399
    11.2959  11.2962  11.3970  11.3974  11.4406  11.4411  11.5138  11.5143
    11.6542  11.6544  11.6669  11.6677  11.7882  11.7888  11.8330  11.8333
    11.8594  11.8597  11.9082  11.9086  11.9639  11.9642  11.9718  11.9726
    12.0254  12.0258  12.0655  12.0662  12.1694  12.1698  12.1990  12.1998
    12.2663  12.2665  12.2860  12.2865  12.3851  12.3859  12.5465  12.5469
    12.5954  12.5959  12.7394  12.7399  12.8114  12.8122  12.9398  12.9404
    13.0005  13.0006  13.0048  13.0050  13.0628  13.0632  13.1706  13.1712
    13.2147  13.2148  13.2577  13.2585  13.3948  13.3952  13.4156  13.4163
    13.5651  13.5653  13.6256  13.6259  13.7698  13.7700  13.8300  13.8305
    13.8377  13.8380  13.9790  13.9796  14.0323  14.0323  14.1048  14.1052
    14.2098  14.2101  14.2673  14.2673  14.5595  14.5601  14.5728  14.5728
    14.6052  14.6054  14.6579  14.6583  14.7586  14.7590  14.8511  14.8515
    14.8832  14.8835  15.1828  15.1833  15.2107  15.2116  15.4461  15.4468
    15.5626  15.5630  15.5685  15.5694  15.7055  15.7062  15.8728  15.8729
    15.8747  15.8753  16.0480  16.0481  16.7106  16.7107  16.7383  16.7385
    16.9044  16.9049  17.0475  17.0476  18.1419  18.1422  18.2919  18.2923
    18.4210  18.4214  18.6806  18.6811  20.2412  20.2413  20.6295  20.6300
    21.5285  21.5293  23.2486  23.2488  23.4972  23.4975  23.5015  23.5018
    23.7659  23.7660  23.9177  23.9178  24.1632  24.1640  25.1452  25.1456
    25.4612

          k =-0.5000 0.2946 0.0000 ( 17762 PWs)   bands (ev):

     9.4481   9.4487   9.5173   9.5179   9.8271   9.8278   9.8452   9.8461
    10.1926  10.1932  10.1937  10.1940  10.2996  10.3012  10.3659  10.3664
    10.5391  10.5397  10.5867  10.5872  10.6581  10.6594  10.8983  10.8986
    11.0402  11.0412  11.1497  11.1505  11.1748  11.1757  11.2294  11.2303
    11.3471  11.3475  11.4625  11.4629  11.4672  11.4676  11.5020  11.5030
    11.6120  11.6130  11.6354  11.6355  11.7649  11.7653  11.7830  11.7838
    11.8355  11.8356  11.8580  11.8589  11.9100  11.9104  11.9693  11.9695
    11.9778  11.9784  12.0511  12.0513  12.0922  12.0925  12.1698  12.1700
    12.2253  12.2261  12.3007  12.3009  12.3542  12.3548  12.4350  12.4357
    12.5958  12.5963  12.6543  12.6548  12.7646  12.7654  12.7676  12.7678
    12.8071  12.8076  12.9077  12.9083  13.0491  13.0495  13.1347  13.1352
    13.2456  13.2462  13.2675  13.2677  13.3146  13.3148  13.4199  13.4211
    13.5560  13.5564  13.5767  13.5767  13.6570  13.6575  13.7533  13.7535
    13.7555  13.7557  13.8228  13.8230  13.8328  13.8334  14.0312  14.0315
    14.1361  14.1365  14.2765  14.2767  14.3614  14.3616  14.4512  14.4516
    14.4982  14.4988  14.6009  14.6013  14.6802  14.6805  14.7869  14.7874
    15.0182  15.0186  15.1618  15.1624  15.2481  15.2488  15.4154  15.4161
    15.5517  15.5526  15.5865  15.5869  15.6551  15.6558  15.7186  15.7188
    16.0441  16.0445  16.2785  16.2786  16.4867  16.4869  16.7689  16.7690
    17.0561  17.0561  17.2525  17.2528  17.7616  17.7619  17.9966  17.9968
    18.8534  18.8538  19.1294  19.1299  19.8474  19.8475  20.0781  20.0786
    21.9561  21.9568  23.0143  23.0145  23.6151  23.6155  23.9358  23.9362
    24.3878  24.3879  24.8812  24.8816  25.0746  25.0749  26.0722  26.0725
    26.4165

          k =-0.5000-0.3536 0.0000 ( 17712 PWs)   bands (ev):

     9.5109   9.5109   9.5115   9.5115   9.8555   9.8555   9.8563   9.8563
    10.2367  10.2367  10.2374  10.2374  10.4465  10.4465  10.4474  10.4474
    10.5258  10.5258  10.5267  10.5267  10.7728  10.7728  10.7733  10.7733
    11.1653  11.1653  11.1662  11.1662  11.2567  11.2567  11.2571  11.2571
    11.4216  11.4216  11.4218  11.4218  11.5045  11.5045  11.5057  11.5057
    11.5615  11.5615  11.5627  11.5627  11.7514  11.7514  11.7522  11.7522
    11.8557  11.8557  11.8561  11.8561  11.9506  11.9506  11.9510  11.9510
    11.9989  11.9989  11.9993  11.9993  12.1375  12.1375  12.1377  12.1377
    12.2406  12.2406  12.2409  12.2409  12.3779  12.3779  12.3784  12.3784
    12.5683  12.5683  12.5688  12.5688  12.6724  12.6724  12.6734  12.6734
    12.7615  12.7615  12.7618  12.7618  13.0790  13.0790  13.0794  13.0794
    13.3159  13.3159  13.3159  13.3159  13.4647  13.4647  13.4648  13.4648
    13.5447  13.5447  13.5451  13.5451  13.6440  13.6440  13.6442  13.6442
    13.6888  13.6888  13.6892  13.6892  13.8656  13.8656  13.8659  13.8659
    14.2224  14.2224  14.2227  14.2227  14.3476  14.3476  14.3478  14.3478
    14.5056  14.5056  14.5060  14.5060  14.7231  14.7231  14.7235  14.7235
    15.1255  15.1255  15.1261  15.1261  15.3396  15.3396  15.3401  15.3401
    15.5735  15.5735  15.5743  15.5743  15.6363  15.6363  15.6369  15.6369
    16.2537  16.2537  16.2540  16.2540  16.5172  16.5172  16.5174  16.5174
    17.4055  17.4055  17.4057  17.4057  17.6127  17.6127  17.6127  17.6127
    19.3973  19.3973  19.3976  19.3976  19.5706  19.5706  19.5712  19.5712
    22.4614  22.4614  22.4618  22.4618  23.7684  23.7684  23.7688  23.7688
    25.5615  25.5615  25.5616  25.5616  26.0133  26.0134  26.0136  26.0136
    26.2428

     the Fermi energy is    18.2816 ev

!    total energy              =  -21704.41071803 Ry

     total all-electron energy =  -1064672.101267 Ry
     estimated scf accuracy    <          5.8E-09 Ry
     smearing contrib. (-TS)   =      -3.20768338 Ry
     internal energy E=F+TS    =  -21701.20303465 Ry

     The total energy is F=E-TS. E is the sum of the following terms:
     one-electron contribution =     430.09912322 Ry
     hartree contribution      =     208.69336057 Ry
     xc contribution           =    -901.23278472 Ry
     ewald contribution        =   -2047.35192779 Ry
     one-center paw contrib.   =  -19391.41080593 Ry

     convergence has been achieved in  10 iterations

     Forces acting on atoms (cartesian axes, Ry/au):

     atom    1 type  1   force =     0.07691669    0.00000021   -0.00048682
     atom    2 type  1   force =     0.07691684   -0.00000019   -0.00048684
     atom    3 type  1   force =    -0.01198646   -0.00000001   -0.00013719
     atom    4 type  1   force =    -0.01198650    0.00000004   -0.00013725
     atom    5 type  1   force =     0.00136320   -0.00000014    0.00018617
     atom    6 type  1   force =     0.00136312   -0.00000007    0.00018616
     atom    7 type  1   force =     0.00037771   -0.00000004   -0.00010890
     atom    8 type  1   force =     0.00037771   -0.00000003   -0.00010913
     atom    9 type  1   force =     0.00037597    0.00000006   -0.00022613
     atom   10 type  1   force =     0.00037602   -0.00000005   -0.00022613
     atom   11 type  1   force =     0.00136645   -0.00000002    0.00025428
     atom   12 type  1   force =     0.00136649    0.00000008    0.00025426
     atom   13 type  1   force =    -0.01204402    0.00000006   -0.00029909
     atom   14 type  1   force =    -0.01204399    0.00000002   -0.00029915
     atom   15 type  1   force =     0.07706703    0.00000006    0.00049650
     atom   16 type  1   force =     0.07706716   -0.00000003    0.00049631
     atom   17 type  1   force =    -0.07795791    0.00000002    0.00022270
     atom   18 type  1   force =    -0.07795789    0.00000011    0.00022278
     atom   19 type  1   force =     0.01294763   -0.00000002    0.00025300
     atom   20 type  1   force =     0.01294764    0.00000000    0.00025299
     atom   21 type  1   force =    -0.00175506    0.00000006   -0.00023980
     atom   22 type  1   force =    -0.00175503    0.00000004   -0.00023989
     atom   23 type  1   force =    -0.00176036   -0.00000012   -0.00048103
     atom   24 type  1   force =    -0.00176024   -0.00000017   -0.00048095
     atom   25 type  1   force =     0.01296525    0.00000009   -0.00014556
     atom   26 type  1   force =     0.01296522    0.00000008   -0.00014536
     atom   27 type  1   force =    -0.07787634   -0.00000004    0.00071200
     atom   28 type  1   force =    -0.07787634    0.00000000    0.00071205

     Total force =     0.001836     Total SCF correction =     0.000411
     SCF correction compared to forces is large: reduce conv_thr to get better values
     Energy error            =      1.7E-05 Ry
     Gradient error          =      7.1E-04 Ry/Bohr

     bfgs converged in  18 scf cycles and  13 bfgs steps
     (criteria: energy <  1.0E-04 Ry, force <  1.0E-03 Ry/Bohr)

     End of BFGS Geometry Optimization

     Final energy             =  -21704.4107180276 Ry

     File ./pwscf.bfgs deleted, as requested
Begin final coordinates

ATOMIC_POSITIONS (angstrom)
Au            2.0400000000        1.4424978336        0.9087528071    0   0   1
Au            2.0400000000        4.3274935009        0.9087525708    0   0   1
Au            0.0000000000        0.0000000000        1.9229034907    0   0   1
Au            0.0000000000        2.8849956672        1.9229039229    0   0   1
Au            2.0400000000        1.4424978336        3.4675812380    0   0   1
Au            2.0400000000        4.3274935009        3.4675807786    0   0   1
Au            0.0000000000        0.0000000000        4.6258214197    0   0   1
Au            0.0000000000        2.8849956672        4.6258221994    0   0   1
Au            2.0400000000        1.4424978336        6.0905017105    0   0   1
Au            2.0400000000        4.3274935009        6.0905012335    0   0   1
Au            0.0000000000        0.0000000000        7.2476335896    0   0   1
Au            0.0000000000        2.8849956672        7.2476341575    0   0   1
Au            2.0400000000        1.4424978336        8.7939816420    0   0   1
Au            2.0400000000        4.3274935009        8.7939811229    0   0   1
Au            0.0000000000        0.0000000000        9.8063165371    0   0   1
Au            0.0000000000        2.8849956672        9.8063169767    0   0   1
Au            3.0600000000        1.4424978336       11.6276857198    0   0   1
Au            3.0600000000        4.3274935009       11.6276855501    0   0   1
Au            1.0200000000        0.0000000000       12.5963661055    0   0   1
Au            1.0200000000        2.8849956672       12.5963662955    0   0   1
Au            3.0600000000        1.4424978336       14.1995034774    0   0   1
Au            3.0600000000        4.3274935009       14.1995032473    0   0   1
Au            1.0200000000        0.0000000000       15.2690685461    0   0   1
Au            1.0200000000        2.8849956672       15.2690681669    0   0   1
Au            3.0600000000        1.4424978336       16.8716590586    0   0   1
Au            3.0600000000        4.3274935009       16.8716584766    0   0   1
Au            1.0200000000        0.0000000000       17.8395279193    0   0   1
Au            1.0200000000        2.8849956672       17.8395277587    0   0   1
End final coordinates



     Writing all to output data dir ./pwscf.save/
 
     init_run     :     19.17s CPU     19.87s WALL (       1 calls)
     electrons    :  18234.59s CPU  18382.63s WALL (      17 calls)
     update_pot   :      5.26s CPU      5.29s WALL (      16 calls)
     forces       :    118.07s CPU    118.68s WALL (      17 calls)

     Called by init_run:
     wfcinit      :     18.70s CPU     19.22s WALL (       1 calls)
     potinit      :      0.32s CPU      0.39s WALL (       1 calls)
     hinit0       :      0.09s CPU      0.17s WALL (       1 calls)

     Called by electrons:
     c_bands      :  16843.71s CPU  16975.71s WALL (     293 calls)
     sum_band     :   1312.58s CPU   1325.11s WALL (     293 calls)
     v_of_rho     :      5.17s CPU      6.22s WALL (     306 calls)
     newd         :      8.24s CPU      9.65s WALL (     306 calls)
     PAW_pot      :     71.99s CPU     72.35s WALL (     322 calls)
     mix_rho      :      0.82s CPU      0.91s WALL (     293 calls)

     Called by c_bands:
     init_us_2    :     45.58s CPU     46.19s WALL (   31000 calls)
     init_us_2:cp :     45.48s CPU     46.15s WALL (   31000 calls)
     cegterg      :  16321.86s CPU  16449.30s WALL (   14852 calls)

     Called by *egterg:
     cdiaghg      :   2181.97s CPU   2212.51s WALL (   75819 calls)
     h_psi        :   8166.08s CPU   8231.71s WALL (   77071 calls)
     s_psi        :   1212.38s CPU   1217.25s WALL (   77071 calls)
     g_psi        :     25.65s CPU     25.89s WALL (   62169 calls)

     Called by h_psi:
     h_psi:calbec :   1392.33s CPU   1398.29s WALL (   77071 calls)
     vloc_psi     :   5526.14s CPU   5579.27s WALL (   77071 calls)
     add_vuspsi   :   1227.15s CPU   1232.02s WALL (   77071 calls)

     General routines
     calbec       :   1935.09s CPU   1943.22s WALL (   95921 calls)
     fft          :      5.59s CPU      6.95s WALL (    3573 calls)
     ffts         :      0.26s CPU      0.31s WALL (     293 calls)
     fftw         :   6032.62s CPU   6088.59s WALL (19415454 calls)
 
     Parallel routines
 
     PWSCF        :      5h 6m CPU      5h 9m WALL

 
   This run was terminated on:  16:15:45  17Mar2024            

=------------------------------------------------------------------------------=
   JOB DONE.
=------------------------------------------------------------------------------=
