MPI startup(): Warning: I_MPI_PMI_LIBRARY will be ignored since the hydra process manager was found
MPI startup(): Warning: I_MPI_PMI_LIBRARY will be ignored since the hydra process manager was found
MPI startup(): Warning: I_MPI_PMI_LIBRARY will be ignored since the hydra process manager was found
MPI startup(): Warning: I_MPI_PMI_LIBRARY will be ignored since the hydra process manager was found
MPI startup(): Warning: I_MPI_PMI_LIBRARY will be ignored since the hydra process manager was found
MPI startup(): Warning: I_MPI_PMI_LIBRARY will be ignored since the hydra process manager was found
MPI startup(): Warning: I_MPI_PMI_LIBRARY will be ignored since the hydra process manager was found
MPI startup(): Warning: I_MPI_PMI_LIBRARY will be ignored since the hydra process manager was found
MPI startup(): Warning: I_MPI_PMI_LIBRARY will be ignored since the hydra process manager was found
MPI startup(): Warning: I_MPI_PMI_LIBRARY will be ignored since the hydra process manager was found

     Program PWSCF v.7.0 starts on 19Mar2024 at 13:21:48 

     This program is part of the open-source Quantum ESPRESSO suite
     for quantum simulation of materials; please cite
         "P. Giannozzi et al., J. Phys.:Condens. Matter 21 395502 (2009);
         "P. Giannozzi et al., J. Phys.:Condens. Matter 29 465901 (2017);
         "P. Giannozzi et al., J. Chem. Phys. 152 154105 (2020);
          URL http://www.quantum-espresso.org", 
     in publications or presentations arising from this work. More details at
     http://www.quantum-espresso.org/quote

     Parallel version (MPI), running on    10 processors

     MPI processes distributed on     1 nodes
     R & G space division:  proc/nbgrp/npool/nimage =      10
     147082 MiB available memory on the printing compute node when the environment starts
 
     Reading input from GSF110R_0.45.in
Warning: card &CELL ignored
Warning: card / ignored

     Current dimensions of program PWSCF are:
     Max number of different atomic species (ntypx) = 10
     Max number of k-points (npk) =  40000
     Max angular momentum in pseudopotentials (lmaxx) =  4
     file Au.pbe-n-kjpaw_psl.1.0.0.UPF: wavefunction(s)  6S 5D renormalized
     Found identity + (  0.0000 -0.5000  0.0000) symmetry
     This is a supercell, fractional translations are disabled

     Subspace diagonalization in iterative solution of the eigenvalue problem:
     one sub-group per band group will be used
     scalapack distributed-memory algorithm (size of sub-group:  3*  3 procs)

 
     Parallelization info
     --------------------
     sticks:   dense  smooth     PW     G-vecs:    dense   smooth      PW
     Min         184     133     38                22944    14227    2178
     Max         185     134     39                22951    14242    2183
     Sum        1845    1339    389               229475   142317   21821
 
     Using Slab Decomposition
 


     bravais-lattice index     =            0
     lattice parameter (alat)  =       7.7101  a.u.
     unit-cell volume          =    2979.1368 (a.u.)^3
     number of atoms/cell      =           28
     number of atomic types    =            1
     number of electrons       =       308.00
     number of Kohn-Sham states=          185
     kinetic-energy cutoff     =      50.0000  Ry
     charge density cutoff     =     275.0000  Ry
     scf convergence threshold =      1.0E-06
     mixing beta               =       0.1000
     number of iterations used =            8  plain     mixing
     energy convergence thresh.=      1.0E-04
     force convergence thresh. =      1.0E-03
     Exchange-correlation= SLA  PW   PBX  PBC
                           (   1   4   3   4   0   0   0)
     nstep                     =           50


     celldm(1)=   7.710083  celldm(2)=   0.000000  celldm(3)=   0.000000
     celldm(4)=   0.000000  celldm(5)=   0.000000  celldm(6)=   0.000000

     crystal axes: (cart. coord. in units of alat)
               a(1) = (   1.000000   0.000000   0.000000 )  
               a(2) = (   0.000000   1.414214   0.000000 )  
               a(3) = (   0.000000   0.000000   4.596194 )  

     reciprocal axes: (cart. coord. in units 2 pi/alat)
               b(1) = (  1.000000  0.000000  0.000000 )  
               b(2) = (  0.000000  0.707107  0.000000 )  
               b(3) = (  0.000000  0.000000  0.217571 )  


     PseudoPot. # 1 for Au read from file:
     ./Au.pbe-n-kjpaw_psl.1.0.0.UPF
     MD5 check sum: 4db85c736373c707a97ce4c36c2a9d23
     Pseudo is Projector augmented-wave + core cor, Zval = 11.0
     Generated using &quot;atomic&quot; code by A. Dal Corso  v.6.3
     Shape of augmentation charge: PSQ
     Using radial grid of 1279 points,  6 beta functions with: 
                l(1) =   0
                l(2) =   0
                l(3) =   1
                l(4) =   1
                l(5) =   2
                l(6) =   2
     Q(r) pseudized with 0 coefficients 


     atomic species   valence    mass     pseudopotential
        Au            11.00   196.96657     Au( 1.00)

     No symmetry found



   Cartesian axes

     site n.     atom                  positions (alat units)
         1           Au  tau(   1) = (   0.5000000   0.3535534   0.0000000  )
         2           Au  tau(   2) = (   0.5000000   1.0606602   0.0000000  )
         3           Au  tau(   3) = (   0.0000000   0.0000000   0.3535534  )
         4           Au  tau(   4) = (   0.0000000   0.7071068   0.3535534  )
         5           Au  tau(   5) = (   0.5000000   0.3535534   0.7071068  )
         6           Au  tau(   6) = (   0.5000000   1.0606602   0.7071068  )
         7           Au  tau(   7) = (   0.0000000   0.0000000   1.0606602  )
         8           Au  tau(   8) = (   0.0000000   0.7071068   1.0606602  )
         9           Au  tau(   9) = (   0.5000000   0.3535534   1.4142136  )
        10           Au  tau(  10) = (   0.5000000   1.0606602   1.4142136  )
        11           Au  tau(  11) = (   0.0000000   0.0000000   1.7677670  )
        12           Au  tau(  12) = (   0.0000000   0.7071068   1.7677670  )
        13           Au  tau(  13) = (   0.5000000   0.3535534   2.1213203  )
        14           Au  tau(  14) = (   0.5000000   1.0606602   2.1213203  )
        15           Au  tau(  15) = (   0.0000000   0.0000000   2.4748737  )
        16           Au  tau(  16) = (   0.0000000   0.7071068   2.4748737  )
        17           Au  tau(  17) = (   0.9500000   0.3535534   2.8284271  )
        18           Au  tau(  18) = (   0.9500000   1.0606602   2.8284271  )
        19           Au  tau(  19) = (   0.4500000   0.0000000   3.1819805  )
        20           Au  tau(  20) = (   0.4500000   0.7071068   3.1819805  )
        21           Au  tau(  21) = (   0.9500000   0.3535534   3.5355339  )
        22           Au  tau(  22) = (   0.9500000   1.0606602   3.5355339  )
        23           Au  tau(  23) = (   0.4500000   0.0000000   3.8890873  )
        24           Au  tau(  24) = (   0.4500000   0.7071068   3.8890873  )
        25           Au  tau(  25) = (   0.9500000   0.3535534   4.2426407  )
        26           Au  tau(  26) = (   0.9500000   1.0606602   4.2426407  )
        27           Au  tau(  27) = (   0.4500000   0.0000000   4.5961941  )
        28           Au  tau(  28) = (   0.4500000   0.7071068   4.5961941  )

     number of k points=    50  Gaussian smearing, width (Ry)=  0.2000
                       cart. coord. in units 2pi/alat
        k(    1) = (   0.0000000   0.0000000   0.0000000), wk =   0.0208333
        k(    2) = (   0.0000000   0.0589256   0.0000000), wk =   0.0416667
        k(    3) = (   0.0000000   0.1178511   0.0000000), wk =   0.0416667
        k(    4) = (   0.0000000   0.1767767   0.0000000), wk =   0.0416667
        k(    5) = (   0.0000000   0.2357023   0.0000000), wk =   0.0416667
        k(    6) = (   0.0000000   0.2946278   0.0000000), wk =   0.0416667
        k(    7) = (   0.0000000  -0.3535534   0.0000000), wk =   0.0208333
        k(    8) = (   0.1250000   0.0000000   0.0000000), wk =   0.0416667
        k(    9) = (   0.1250000   0.0589256   0.0000000), wk =   0.0416667
        k(   10) = (   0.1250000   0.1178511   0.0000000), wk =   0.0416667
        k(   11) = (   0.1250000   0.1767767   0.0000000), wk =   0.0416667
        k(   12) = (   0.1250000   0.2357023   0.0000000), wk =   0.0416667
        k(   13) = (   0.1250000   0.2946278   0.0000000), wk =   0.0416667
        k(   14) = (   0.1250000  -0.3535534   0.0000000), wk =   0.0416667
        k(   15) = (   0.1250000  -0.2946278   0.0000000), wk =   0.0416667
        k(   16) = (   0.1250000  -0.2357023   0.0000000), wk =   0.0416667
        k(   17) = (   0.1250000  -0.1767767   0.0000000), wk =   0.0416667
        k(   18) = (   0.1250000  -0.1178511   0.0000000), wk =   0.0416667
        k(   19) = (   0.1250000  -0.0589256   0.0000000), wk =   0.0416667
        k(   20) = (   0.2500000   0.0000000   0.0000000), wk =   0.0416667
        k(   21) = (   0.2500000   0.0589256   0.0000000), wk =   0.0416667
        k(   22) = (   0.2500000   0.1178511   0.0000000), wk =   0.0416667
        k(   23) = (   0.2500000   0.1767767   0.0000000), wk =   0.0416667
        k(   24) = (   0.2500000   0.2357023   0.0000000), wk =   0.0416667
        k(   25) = (   0.2500000   0.2946278   0.0000000), wk =   0.0416667
        k(   26) = (   0.2500000  -0.3535534   0.0000000), wk =   0.0416667
        k(   27) = (   0.2500000  -0.2946278   0.0000000), wk =   0.0416667
        k(   28) = (   0.2500000  -0.2357023   0.0000000), wk =   0.0416667
        k(   29) = (   0.2500000  -0.1767767   0.0000000), wk =   0.0416667
        k(   30) = (   0.2500000  -0.1178511   0.0000000), wk =   0.0416667
        k(   31) = (   0.2500000  -0.0589256   0.0000000), wk =   0.0416667
        k(   32) = (   0.3750000   0.0000000   0.0000000), wk =   0.0416667
        k(   33) = (   0.3750000   0.0589256   0.0000000), wk =   0.0416667
        k(   34) = (   0.3750000   0.1178511   0.0000000), wk =   0.0416667
        k(   35) = (   0.3750000   0.1767767   0.0000000), wk =   0.0416667
        k(   36) = (   0.3750000   0.2357023   0.0000000), wk =   0.0416667
        k(   37) = (   0.3750000   0.2946278   0.0000000), wk =   0.0416667
        k(   38) = (   0.3750000  -0.3535534   0.0000000), wk =   0.0416667
        k(   39) = (   0.3750000  -0.2946278   0.0000000), wk =   0.0416667
        k(   40) = (   0.3750000  -0.2357023   0.0000000), wk =   0.0416667
        k(   41) = (   0.3750000  -0.1767767   0.0000000), wk =   0.0416667
        k(   42) = (   0.3750000  -0.1178511   0.0000000), wk =   0.0416667
        k(   43) = (   0.3750000  -0.0589256   0.0000000), wk =   0.0416667
        k(   44) = (  -0.5000000   0.0000000   0.0000000), wk =   0.0208333
        k(   45) = (  -0.5000000   0.0589256   0.0000000), wk =   0.0416667
        k(   46) = (  -0.5000000   0.1178511   0.0000000), wk =   0.0416667
        k(   47) = (  -0.5000000   0.1767767   0.0000000), wk =   0.0416667
        k(   48) = (  -0.5000000   0.2357023   0.0000000), wk =   0.0416667
        k(   49) = (  -0.5000000   0.2946278   0.0000000), wk =   0.0416667
        k(   50) = (  -0.5000000  -0.3535534   0.0000000), wk =   0.0208333

     Dense  grid:   229475 G-vectors     FFT dimensions: (  45,  60, 192)

     Smooth grid:   142317 G-vectors     FFT dimensions: (  36,  50, 160)

     Estimated max dynamical RAM per process >     378.30 MB

     Estimated total dynamical RAM >       3.69 GB

     Initial potential from superposition of free atoms

     starting charge     307.9969, renormalised to     308.0000
     Starting wfcs are  252 randomized atomic wfcs
     Checking if some PAW data can be deallocated... 

     total cpu time spent up to now is       18.8 secs

     Self-consistent Calculation

     iteration #  1     ecut=    50.00 Ry     beta= 0.10
     Davidson diagonalization with overlap
     ethr =  1.00E-02,  avg # of iterations =  4.8

     total cpu time spent up to now is       72.8 secs

     total energy              =  -21686.11629397 Ry
     estimated scf accuracy    <      16.64022443 Ry

     iteration #  2     ecut=    50.00 Ry     beta= 0.10
     Davidson diagonalization with overlap
     ethr =  5.40E-03,  avg # of iterations =  6.5

     total cpu time spent up to now is      120.5 secs

     total energy              =  -21684.96156312 Ry
     estimated scf accuracy    <     142.90506685 Ry

     iteration #  3     ecut=    50.00 Ry     beta= 0.10
     Davidson diagonalization with overlap
     ethr =  5.40E-03,  avg # of iterations =  3.0

     total cpu time spent up to now is      160.4 secs

     total energy              =  -21688.29654086 Ry
     estimated scf accuracy    <       3.26161399 Ry

     iteration #  4     ecut=    50.00 Ry     beta= 0.10
     Davidson diagonalization with overlap
     ethr =  1.06E-03,  avg # of iterations =  4.5

     total cpu time spent up to now is      202.6 secs

     total energy              =  -21688.18269386 Ry
     estimated scf accuracy    <       1.30030437 Ry

     iteration #  5     ecut=    50.00 Ry     beta= 0.10
     Davidson diagonalization with overlap
     ethr =  4.22E-04,  avg # of iterations =  8.3

     total cpu time spent up to now is      255.5 secs

     total energy              =  -21688.14962519 Ry
     estimated scf accuracy    <       4.37298567 Ry

     iteration #  6     ecut=    50.00 Ry     beta= 0.10
     Davidson diagonalization with overlap
     ethr =  4.22E-04,  avg # of iterations =  2.2

     total cpu time spent up to now is      294.3 secs

     total energy              =  -21688.20153885 Ry
     estimated scf accuracy    <       0.38232781 Ry

     iteration #  7     ecut=    50.00 Ry     beta= 0.10
     Davidson diagonalization with overlap
     c_bands:  1 eigenvalues not converged
     ethr =  1.24E-04,  avg # of iterations =  8.0

     negative rho (up, down):  4.889E-03 0.000E+00

     total cpu time spent up to now is      348.9 secs

     total energy              =  -21688.24968207 Ry
     estimated scf accuracy    <       0.19904442 Ry

     iteration #  8     ecut=    50.00 Ry     beta= 0.10
     Davidson diagonalization with overlap
     ethr =  6.46E-05,  avg # of iterations =  2.6

     negative rho (up, down):  2.676E-02 0.000E+00

     total cpu time spent up to now is      390.4 secs

     total energy              =  -21688.25790711 Ry
     estimated scf accuracy    <       0.07235840 Ry

     iteration #  9     ecut=    50.00 Ry     beta= 0.10
     Davidson diagonalization with overlap
     c_bands:  1 eigenvalues not converged
     c_bands:  1 eigenvalues not converged
     c_bands:  1 eigenvalues not converged
     ethr =  2.35E-05,  avg # of iterations =  8.9

     negative rho (up, down):  3.488E-02 0.000E+00

     total cpu time spent up to now is      456.6 secs

     total energy              =  -21688.27487825 Ry
     estimated scf accuracy    <       0.12409950 Ry

     iteration # 10     ecut=    50.00 Ry     beta= 0.10
     Davidson diagonalization with overlap
     ethr =  2.35E-05,  avg # of iterations =  1.6

     negative rho (up, down):  6.347E-02 0.000E+00

     total cpu time spent up to now is      492.6 secs

     total energy              =  -21688.27447290 Ry
     estimated scf accuracy    <       0.02892625 Ry

     iteration # 11     ecut=    50.00 Ry     beta= 0.10
     Davidson diagonalization with overlap
     c_bands:  1 eigenvalues not converged
     c_bands:  1 eigenvalues not converged
     c_bands:  2 eigenvalues not converged
     c_bands:  1 eigenvalues not converged
     ethr =  9.39E-06,  avg # of iterations =  6.7

     negative rho (up, down):  6.946E-02 0.000E+00

     total cpu time spent up to now is      540.1 secs

     total energy              =  -21688.27866005 Ry
     estimated scf accuracy    <       0.00242834 Ry

     iteration # 12     ecut=    50.00 Ry     beta= 0.10
     Davidson diagonalization with overlap
     c_bands:  1 eigenvalues not converged
     c_bands:  1 eigenvalues not converged
     c_bands:  1 eigenvalues not converged
     c_bands:  1 eigenvalues not converged
     c_bands:  1 eigenvalues not converged
     ethr =  7.88E-07,  avg # of iterations = 11.3

     negative rho (up, down):  6.967E-02 0.000E+00

     total cpu time spent up to now is      623.1 secs

     total energy              =  -21688.28016280 Ry
     estimated scf accuracy    <       0.00089182 Ry

     iteration # 13     ecut=    50.00 Ry     beta= 0.10
     Davidson diagonalization with overlap
     c_bands:  1 eigenvalues not converged
     ethr =  2.90E-07,  avg # of iterations =  4.1

     negative rho (up, down):  7.075E-02 0.000E+00

     total cpu time spent up to now is      667.8 secs

     total energy              =  -21688.28048312 Ry
     estimated scf accuracy    <       0.00042287 Ry

     iteration # 14     ecut=    50.00 Ry     beta= 0.10
     Davidson diagonalization with overlap
     ethr =  1.37E-07,  avg # of iterations =  2.7

     negative rho (up, down):  7.162E-02 0.000E+00

     total cpu time spent up to now is      709.0 secs

     total energy              =  -21688.28073660 Ry
     estimated scf accuracy    <       0.00018230 Ry

     iteration # 15     ecut=    50.00 Ry     beta= 0.10
     Davidson diagonalization with overlap
     ethr =  5.92E-08,  avg # of iterations =  4.5

     negative rho (up, down):  7.169E-02 0.000E+00

     total cpu time spent up to now is      757.8 secs

     total energy              =  -21688.28100122 Ry
     estimated scf accuracy    <       0.00018009 Ry

     iteration # 16     ecut=    50.00 Ry     beta= 0.10
     Davidson diagonalization with overlap
     ethr =  5.85E-08,  avg # of iterations =  1.1

     negative rho (up, down):  7.157E-02 0.000E+00

     total cpu time spent up to now is      792.4 secs

     total energy              =  -21688.28120026 Ry
     estimated scf accuracy    <       0.00004822 Ry

     iteration # 17     ecut=    50.00 Ry     beta= 0.10
     Davidson diagonalization with overlap
     ethr =  1.57E-08,  avg # of iterations =  5.3

     negative rho (up, down):  7.164E-02 0.000E+00

     total cpu time spent up to now is      846.8 secs

     total energy              =  -21688.28136525 Ry
     estimated scf accuracy    <       0.00001731 Ry

     iteration # 18     ecut=    50.00 Ry     beta= 0.10
     Davidson diagonalization with overlap
     ethr =  5.62E-09,  avg # of iterations =  4.7

     negative rho (up, down):  7.169E-02 0.000E+00

     total cpu time spent up to now is      901.4 secs

     total energy              =  -21688.28149878 Ry
     estimated scf accuracy    <       0.00000625 Ry

     iteration # 19     ecut=    50.00 Ry     beta= 0.10
     Davidson diagonalization with overlap
     ethr =  2.03E-09,  avg # of iterations =  4.9

     negative rho (up, down):  7.148E-02 0.000E+00

     total cpu time spent up to now is      952.3 secs

     total energy              =  -21688.28161142 Ry
     estimated scf accuracy    <       0.00000328 Ry

     iteration # 20     ecut=    50.00 Ry     beta= 0.10
     Davidson diagonalization with overlap
     ethr =  1.06E-09,  avg # of iterations =  4.4

     negative rho (up, down):  7.184E-02 0.000E+00

     total cpu time spent up to now is     1002.9 secs

     End of self-consistent calculation

          k = 0.0000 0.0000 0.0000 ( 17807 PWs)   bands (ev):

    -9.5528  -8.7691  -8.6487  -3.3853  -3.3852   0.2249   0.2250   1.1601
     1.2349   4.4054   4.7909   4.7910   5.7257   5.7258   7.4795   7.6249
     7.6251   7.7915   8.1312   8.6426   8.7658   9.1094   9.2676   9.5612
     9.6099   9.6112   9.8613   9.8615  10.2371  10.4039  10.7868  10.8372
    10.8480  10.9329  11.0170  11.0780  11.0840  11.2254  11.2308  11.2770
    11.3557  11.3899  11.4214  11.5013  11.5202  11.5780  11.6180  11.6548
    11.6594  11.7660  11.7682  11.7705  11.8316  11.8795  11.9058  11.9614
    12.0359  12.1557  12.1969  12.2075  12.3267  12.3349  12.4705  12.4732
    12.5516  12.6040  12.6169  12.7106  12.8503  12.8692  12.8874  12.9097
    12.9961  13.0256  13.0660  13.0998  13.1285  13.1360  13.1520  13.2176
    13.2495  13.2953  13.3104  13.4357  13.4501  13.5441  13.5903  13.6594
    13.7278  13.7334  13.8270  13.9054  13.9270  14.0966  14.1643  14.2186
    14.2202  14.2899  14.3012  14.3311  14.4333  14.4481  14.5033  14.6141
    14.6280  14.6361  14.6419  14.6855  14.7045  14.7456  14.7608  14.7959
    14.9266  14.9781  15.0814  15.0825  15.1399  15.1404  15.2746  15.2959
    15.3229  15.3254  15.4123  15.4399  15.5749  15.6071  15.6107  15.6199
    15.6324  15.6471  15.6701  15.7817  15.7829  15.8597  15.8829  15.9681
    15.9954  16.0446  16.0845  16.2664  16.2788  16.4252  16.4331  16.9694
    17.4915  17.4925  17.6361  17.6603  17.7904  17.8400  17.8541  17.9606
    18.1205  18.1425  18.5285  18.5700  18.6491  18.7969  18.8899  18.9369
    19.5550  20.1855  20.3597  20.5618  20.5640  20.9226  21.5712  22.6670
    22.7230  23.2119  23.4043  23.9160  24.1239  24.1454  24.1647  24.3428
    24.3839  24.5990  25.0541  25.0861  25.4537  25.7477  25.9057  25.9950
    26.0300

          k = 0.0000 0.0589 0.0000 ( 17795 PWs)   bands (ev):

    -9.4875  -9.2735  -7.9207  -4.6693  -2.0105  -1.1523   1.1910   1.2672
     1.5856   4.1175   4.4634   4.9550   5.4733   6.5814   6.6972   7.5224
     7.8365   8.1620   8.4832   8.6306   8.6844   9.1060   9.2325   9.3566
     9.6032   9.8547   9.8819   9.8924  10.2554  10.4084  10.8197  10.8358
    10.8609  10.9308  11.0237  11.0871  11.1002  11.1894  11.2864  11.3052
    11.3763  11.3961  11.4264  11.4507  11.4539  11.5787  11.5906  11.6394
    11.6794  11.6949  11.7466  11.7754  11.7910  11.9005  11.9371  11.9506
    12.0493  12.1414  12.1897  12.2322  12.3069  12.3565  12.4521  12.4691
    12.5515  12.5531  12.6670  12.6882  12.7944  12.8092  12.8552  12.9471
    12.9684  13.0155  13.0335  13.0396  13.0901  13.1626  13.1864  13.1968
    13.2377  13.2702  13.2862  13.4445  13.5126  13.5650  13.6153  13.6618
    13.6776  13.7544  13.8748  13.9107  13.9398  14.1337  14.1593  14.1960
    14.2104  14.2718  14.3114  14.3163  14.4085  14.4262  14.4876  14.5654
    14.6236  14.6298  14.6373  14.6543  14.6879  14.7340  14.8014  14.8255
    14.9236  15.0364  15.0407  15.0536  15.1084  15.1542  15.2388  15.2554
    15.3013  15.3141  15.3984  15.4707  15.5210  15.5382  15.5868  15.5901
    15.6369  15.6436  15.7140  15.7704  15.8125  15.8271  15.8578  15.8854
    15.9964  16.0497  16.1263  16.1641  16.2922  16.4170  16.4264  16.7107
    16.9089  16.9398  17.1018  17.3418  17.5030  17.8463  17.9872  18.1909
    18.2705  18.3485  18.6917  18.7816  18.8236  18.8276  19.1833  19.5331
    19.7421  20.2860  20.2910  20.4429  20.9681  21.2821  21.5706  22.4614
    22.6985  23.2766  23.4409  23.7067  23.9900  24.1002  24.1154  24.2038
    24.5999  24.6368  25.0338  25.1875  25.4623  25.5470  25.7385  25.8254
    25.9540

          k = 0.0000 0.1179 0.0000 ( 17803 PWs)   bands (ev):

    -9.6507  -9.2487  -6.9201  -5.8415  -2.4960  -0.5721   1.2835   1.3645
     2.8745   3.4309   4.2709   4.6395   5.7136   6.1690   7.4844   7.6498
     7.9697   8.2437   8.4252   8.6068   8.9232   9.1242   9.2512   9.2959
     9.7245   9.9142   9.9588  10.0910  10.2949  10.4344  10.7891  10.8815
    10.8858  10.9406  10.9985  11.0535  11.1368  11.1701  11.2105  11.2909
    11.3068  11.3825  11.4517  11.4566  11.4737  11.4766  11.5065  11.5486
    11.6834  11.7181  11.7600  11.7657  11.8511  11.9142  11.9611  12.0380
    12.0666  12.1540  12.1630  12.2364  12.2636  12.4303  12.4362  12.4440
    12.4569  12.5559  12.5678  12.6318  12.7016  12.7794  12.7951  12.8154
    12.8721  12.9358  12.9445  12.9539  13.0711  13.1156  13.1971  13.2108
    13.2757  13.2884  13.3140  13.4698  13.4786  13.5889  13.6636  13.6637
    13.7152  13.7640  13.9038  13.9566  13.9861  14.0041  14.0742  14.1962
    14.2339  14.2802  14.2985  14.3034  14.3357  14.3806  14.4621  14.4910
    14.5359  14.6132  14.6328  14.6393  14.7305  14.7659  14.8161  14.8372
    14.9178  14.9188  15.0098  15.0265  15.1027  15.1542  15.1650  15.2174
    15.2503  15.2552  15.3416  15.3632  15.4892  15.5039  15.5143  15.5422
    15.5441  15.6322  15.6541  15.7113  15.7226  15.7472  15.8373  15.8761
    15.9689  16.0077  16.0505  16.0594  16.2280  16.3053  16.3425  16.4089
    16.4192  16.6046  16.6332  16.6963  16.8420  17.6644  17.7236  18.1077
    18.2162  18.8109  18.9056  19.0421  19.0947  19.7734  19.9881  20.1541
    20.2498  20.6023  20.6283  20.6719  21.1079  21.3976  21.7534  22.0764
    22.7680  23.3973  23.3982  23.5489  23.6443  24.0323  24.1656  24.2942
    24.3941  24.6024  24.7153  25.2231  25.3968  25.4736  25.6979  25.7216
    25.9384

          k = 0.0000 0.1768 0.0000 ( 17795 PWs)   bands (ev):

    -9.8020  -8.8864  -6.8847  -5.7097  -3.7682   0.8968   1.4375   1.5285
     2.6688   3.6660   4.0484   4.7035   4.9400   6.8733   7.8567   7.9070
     8.1883   8.3157   8.3968   8.5696   8.6011   8.9230   9.4530   9.8941
     9.8981  10.0009  10.0550  10.1857  10.3007  10.3017  10.5093  10.5496
    10.8270  10.8952  11.0236  11.0790  11.0984  11.1131  11.1333  11.1916
    11.2516  11.3106  11.3252  11.4949  11.5115  11.5355  11.5631  11.5701
    11.6805  11.8151  11.8201  11.8624  11.9044  11.9677  12.0490  12.0806
    12.1108  12.1355  12.1669  12.2228  12.2827  12.3278  12.3837  12.4384
    12.5038  12.5142  12.5403  12.5473  12.6062  12.6651  12.7173  12.7747
    12.8225  12.8424  12.9061  12.9686  13.0023  13.0175  13.1889  13.1970
    13.3043  13.3121  13.4294  13.4650  13.5098  13.5196  13.6300  13.7264
    13.7751  13.7909  13.8216  13.9280  13.9457  14.0024  14.0405  14.0533
    14.1358  14.1911  14.2094  14.2379  14.3677  14.3911  14.4317  14.4872
    14.5116  14.5856  14.5968  14.6417  14.7131  14.7780  14.7887  14.8549
    14.8982  14.9124  14.9218  14.9614  15.0030  15.0440  15.0764  15.1285
    15.2001  15.2309  15.2472  15.2674  15.3632  15.3818  15.4004  15.4900
    15.5132  15.5392  15.5647  15.6077  15.6370  15.6919  15.7405  15.8111
    15.8962  15.9741  15.9988  16.0439  16.1224  16.1617  16.1936  16.2322
    16.2551  16.3307  16.3849  16.3965  16.6714  17.3332  17.4488  17.5434
    18.4150  18.9377  18.9975  19.7799  19.8438  20.4707  20.5186  20.6745
    20.7953  20.8336  20.9394  20.9449  21.1287  21.4022  21.9466  22.0944
    22.8392  23.2274  23.4076  23.5938  23.7223  23.9241  24.0376  24.2900
    24.3700  24.6097  24.7845  25.0289  25.0882  25.4152  25.5186  25.5421
    25.5840

          k = 0.0000 0.2357 0.0000 ( 17822 PWs)   bands (ev):

    -9.7592  -8.3767  -7.7856  -4.9420  -4.3104   1.6528   1.6960   1.7630
     2.3562   3.1335   3.7655   5.0906   5.3778   7.1720   7.5702   8.0966
     8.1277   8.4679   8.5327   8.6621   8.7553   8.9022   9.0559   9.6386
    10.0172  10.0199  10.0235  10.1493  10.1850  10.2825  10.3471  10.6254
    10.7302  10.7642  10.8740  10.9393  10.9879  11.0718  11.1450  11.1508
    11.2837  11.3636  11.4596  11.5082  11.6176  11.6443  11.6739  11.6860
    11.8157  11.8730  11.9249  11.9457  12.0148  12.0179  12.0832  12.0833
    12.1198  12.1833  12.1848  12.2964  12.3358  12.3564  12.3711  12.3748
    12.5070  12.5351  12.5602  12.5699  12.6199  12.6297  12.6503  12.7063
    12.7732  12.8069  12.8678  12.9431  13.0013  13.1288  13.1830  13.1841
    13.2921  13.3066  13.4322  13.4692  13.5067  13.5177  13.6150  13.7097
    13.7685  13.7804  13.7922  13.8837  13.8970  13.9673  13.9845  14.0339
    14.0800  14.0964  14.1438  14.2114  14.2626  14.3672  14.4184  14.4323
    14.4848  14.5346  14.5927  14.6330  14.6445  14.6674  14.7302  14.8054
    14.8116  14.8660  14.8667  14.9203  14.9354  14.9355  14.9850  14.9949
    15.0619  15.1211  15.1851  15.2255  15.2309  15.2777  15.3422  15.3473
    15.4309  15.5029  15.5428  15.5653  15.5654  15.6501  15.6817  15.6818
    15.7268  15.7441  15.9471  15.9899  16.0044  16.0357  16.2381  16.2538
    16.3543  16.3722  16.3731  16.4461  16.5461  17.1018  17.1965  17.2202
    18.4583  18.6140  19.2439  20.0983  20.3750  20.4658  20.5975  20.8093
    20.8404  21.1861  21.4003  21.6926  21.8063  21.8576  22.1423  22.3038
    22.8412  22.9843  23.6315  23.6557  23.9204  23.9488  23.9931  24.3772
    24.4929  24.5167  24.6324  24.6806  24.7825  25.1099  25.1692  25.2827
    25.4306

          k = 0.0000 0.2946 0.0000 ( 17818 PWs)   bands (ev):

    -9.5280  -8.5327  -7.7231  -5.9996  -2.7646   0.3947   1.9294   2.0757
     2.6684   3.0262   3.7606   5.9754   6.0073   6.2120   7.5085   7.7963
     8.2181   8.3868   8.6258   8.6662   8.7485   8.8756   9.1886   9.5098
     9.6375   9.6820  10.0359  10.3058  10.3176  10.4255  10.4961  10.5861
    10.6022  10.7341  10.7589  10.7700  10.8342  11.0105  11.1701  11.1710
    11.4780  11.4806  11.5747  11.6086  11.7152  11.7383  11.7961  11.8314
    11.8389  11.8967  11.9143  11.9890  12.0081  12.0713  12.1286  12.1326
    12.1390  12.1775  12.1793  12.2016  12.2486  12.3297  12.3766  12.4128
    12.4209  12.4767  12.5230  12.5612  12.6683  12.7244  12.7276  12.7476
    12.8383  12.8632  12.9639  13.0205  13.0451  13.1056  13.1296  13.2495
    13.2937  13.4117  13.4143  13.4382  13.5579  13.5978  13.6691  13.6891
    13.7717  13.8146  13.8455  13.8678  13.8722  13.9180  13.9755  13.9957
    14.0452  14.0564  14.1038  14.1572  14.1968  14.3016  14.3276  14.3581
    14.3976  14.4153  14.4695  14.5065  14.5272  14.5671  14.6388  14.6591
    14.7269  14.7479  14.8302  14.8697  14.8998  14.9564  15.0061  15.0448
    15.0813  15.1017  15.1191  15.1742  15.1863  15.2293  15.2342  15.2656
    15.3292  15.4251  15.4448  15.4948  15.5105  15.5770  15.6247  15.7048
    15.7194  15.8272  15.9057  16.0243  16.0355  16.0465  16.1867  16.2543
    16.2899  16.3202  16.3428  16.4291  16.8009  16.8737  16.9976  17.3298
    17.8392  18.2555  19.5411  20.0345  20.2123  20.3131  20.9257  21.1832
    21.1950  21.3783  21.6215  22.3201  22.3270  22.4400  22.4958  22.6908
    22.7265  23.2264  23.3202  23.6396  23.8308  23.8614  24.2208  24.2420
    24.3124  24.4018  24.5677  24.6958  24.7513  24.8722  24.8769  25.0594
    25.1067

          k = 0.0000-0.3536 0.0000 ( 17844 PWs)   bands (ev):

    -9.1164  -9.1164  -6.9292  -6.9292  -1.1514  -1.1514   2.2676   2.2676
     2.4840   2.4840   5.0615   5.0615   6.7679   6.7679   6.8111   6.8112
     8.5192   8.5192   8.6767   8.6767   9.0415   9.0415   9.2514   9.2514
     9.3777   9.3777  10.2512  10.2512  10.4605  10.4605  10.5029  10.5029
    10.5907  10.5907  10.7375  10.7375  10.9067  10.9067  11.1819  11.1819
    11.5991  11.5991  11.6251  11.6251  11.7099  11.7099  11.8657  11.8657
    11.9299  11.9300  11.9723  11.9723  12.0049  12.0049  12.1028  12.1028
    12.1381  12.1381  12.1838  12.1838  12.3139  12.3139  12.3623  12.3623
    12.3746  12.3746  12.5942  12.5942  12.6607  12.6608  12.8523  12.8523
    12.8712  12.8712  12.9429  12.9429  13.1221  13.1221  13.2106  13.2106
    13.3115  13.3115  13.3940  13.3940  13.6985  13.6985  13.7459  13.7459
    13.8342  13.8343  13.8721  13.8721  13.9271  13.9271  13.9408  13.9408
    13.9875  13.9875  14.0467  14.0467  14.2080  14.2080  14.2355  14.2355
    14.4246  14.4246  14.4809  14.4809  14.5377  14.5377  14.5548  14.5548
    14.6762  14.6762  14.8826  14.8826  14.9632  14.9632  15.0637  15.0637
    15.0982  15.0982  15.1550  15.1550  15.2108  15.2108  15.2510  15.2510
    15.3086  15.3086  15.4360  15.4360  15.5304  15.5304  15.6696  15.6696
    15.8453  15.8453  15.9217  15.9217  16.0338  16.0338  16.2361  16.2361
    16.2948  16.2948  16.3120  16.3120  16.6263  16.6263  17.3258  17.3258
    17.8000  17.8000  19.8747  19.8747  20.1502  20.1502  21.0589  21.0589
    21.4492  21.4492  22.2027  22.2027  22.5271  22.5271  22.9691  22.9691
    23.0759  23.0759  23.1612  23.1612  23.9530  23.9530  24.0759  24.0759
    24.3425  24.3425  24.6401  24.6401  24.6770  24.6771  24.8701  24.8702
    25.2301

          k = 0.1250 0.0000 0.0000 ( 17777 PWs)   bands (ev):

    -9.5535  -8.7669  -8.6496  -3.3812  -3.3812   0.2239   0.2239   1.1446
     1.2585   4.5461   4.8101   4.8103   5.7258   5.7259   7.4812   7.6753
     7.6754   7.8853   8.3528   8.6394   8.7754   9.1453   9.3263   9.6245
     9.6255   9.6543   9.8432   9.8434  10.2515  10.4219  10.6168  10.8277
    10.8344  10.8722  10.9698  11.1496  11.1602  11.1650  11.3407  11.3470
    11.3856  11.3968  11.4124  11.4619  11.4623  11.5348  11.5873  11.6191
    11.6629  11.6762  11.7631  11.7917  11.8111  11.8312  11.9751  12.0163
    12.0316  12.1949  12.2626  12.2946  12.3981  12.4365  12.4473  12.5127
    12.6295  12.8034  12.8167  12.8770  12.8852  12.9430  12.9969  13.0135
    13.0572  13.0953  13.1348  13.1364  13.1541  13.2349  13.2382  13.2640
    13.3381  13.3814  13.3954  13.4231  13.4366  13.5500  13.5695  13.6336
    13.6757  13.6772  13.7550  13.7704  13.8755  14.0041  14.0914  14.0968
    14.1943  14.2057  14.2531  14.3633  14.4278  14.4387  14.4568  14.4663
    14.5362  14.5656  14.6108  14.6873  14.6909  14.7052  14.7326  14.8235
    14.9335  14.9729  14.9792  15.0609  15.0714  15.1028  15.2119  15.2214
    15.3130  15.3587  15.3619  15.4068  15.4556  15.5134  15.5316  15.5539
    15.5985  15.6676  15.6755  15.7546  15.8009  15.8539  15.8686  15.8969
    15.9147  15.9231  16.0333  16.1553  16.2347  16.2549  16.2551  16.7566
    17.0166  17.5297  17.5345  17.6510  17.6740  17.9261  18.0026  18.0037
    18.2831  18.3909  18.6375  18.7921  18.8207  18.9555  19.0816  19.3011
    19.3680  19.4753  19.5926  20.5874  20.5960  21.1564  21.4236  22.0580
    22.3865  22.6948  23.4692  23.5435  23.5520  23.7277  23.9785  23.9977
    24.0014  24.4123  24.5145  24.9496  25.0139  25.1595  25.1776  25.4972
    25.9436

          k = 0.1250 0.0589 0.0000 ( 17791 PWs)   bands (ev):

    -9.4882  -9.2728  -7.9201  -4.6662  -2.0052  -1.1533   1.1753   1.2912
     1.5843   4.1398   4.6036   4.9354   5.5105   6.5776   6.7632   7.5242
     7.9302   8.3813   8.5125   8.6319   8.6992   9.0951   9.3371   9.3755
     9.6880   9.8470   9.8619   9.8898  10.2694  10.4314  10.6377  10.8006
    10.8648  10.8786  10.9862  11.1693  11.1717  11.1875  11.2915  11.3483
    11.3779  11.4079  11.4227  11.4501  11.4791  11.5426  11.5596  11.6081
    11.6728  11.6981  11.7308  11.7901  11.8072  11.8364  11.9688  12.0164
    12.0533  12.1853  12.2617  12.2679  12.3642  12.4296  12.4317  12.4783
    12.6081  12.7341  12.7711  12.8579  12.8705  12.9246  12.9272  13.0131
    13.0520  13.0638  13.1120  13.1622  13.1731  13.2353  13.2807  13.2841
    13.3334  13.3700  13.3720  13.4183  13.4990  13.5484  13.5795  13.6419
    13.6469  13.7265  13.7676  13.8056  13.8579  14.0043  14.0595  14.1111
    14.1674  14.1710  14.2381  14.3128  14.3405  14.4366  14.4427  14.4807
    14.4911  14.5613  14.6043  14.6590  14.7361  14.7468  14.7724  14.8398
    14.9000  14.9495  14.9636  15.0456  15.0808  15.1030  15.1101  15.2182
    15.2399  15.3593  15.3685  15.4094  15.4341  15.4874  15.5430  15.5739
    15.5989  15.6535  15.6739  15.7411  15.7421  15.8356  15.8381  15.8534
    15.9077  15.9502  16.0114  16.0697  16.2215  16.2434  16.2576  16.7860
    16.8618  16.9555  17.0464  17.1454  17.5425  17.7728  17.9101  18.3029
    18.4165  18.7054  18.8107  18.8774  18.9484  19.1463  19.1772  19.3516
    19.4832  19.7821  19.8318  20.5841  21.0432  21.1918  21.4332  22.0686
    22.2803  22.6935  22.8053  23.5044  23.5323  23.7426  23.7509  23.8879
    23.9973  24.3410  24.5292  24.6771  25.2204  25.4825  25.5199  25.7899
    26.0274

          k = 0.1250 0.1179 0.0000 ( 17815 PWs)   bands (ev):

    -9.6501  -9.2495  -6.9191  -5.8391  -2.4971  -0.5652   1.2674   1.3897
     2.8695   3.4560   4.2568   4.7779   5.7753   6.2039   7.4909   7.6518
     8.0630   8.4139   8.4849   8.6251   8.8944   9.1456   9.2476   9.4186
     9.7907   9.8957   9.9303  10.0933  10.3097  10.4612  10.6946  10.7434
    10.8366  10.9333  11.0129  11.0321  11.2134  11.2302  11.2328  11.3014
    11.3582  11.4044  11.4530  11.4591  11.4754  11.5176  11.5474  11.6213
    11.6832  11.7133  11.7622  11.8167  11.8560  11.8781  11.9702  12.0133
    12.0489  12.1596  12.1686  12.2755  12.3140  12.3901  12.3977  12.4601
    12.5523  12.6331  12.6932  12.6975  12.8042  12.8770  12.9422  12.9505
    12.9940  13.0126  13.0414  13.1529  13.2146  13.2168  13.2470  13.3380
    13.3382  13.3629  13.3647  13.4422  13.4717  13.5658  13.6110  13.6699
    13.6739  13.7697  13.7850  13.8238  13.8423  13.9104  14.0198  14.0544
    14.1003  14.1050  14.2200  14.2265  14.2682  14.3464  14.3994  14.4298
    14.5120  14.5368  14.5579  14.6383  14.6860  14.7567  14.7696  14.8166
    14.8581  14.8869  14.9742  14.9932  15.0233  15.0573  15.1519  15.2099
    15.2142  15.2888  15.3139  15.3744  15.3828  15.4516  15.4818  15.5430
    15.5914  15.6058  15.6404  15.6514  15.6824  15.7499  15.7734  15.8054
    15.8897  15.9937  16.0023  16.0805  16.1104  16.1778  16.2013  16.2956
    16.4103  16.5794  16.8334  16.8811  17.0149  17.2467  17.7136  18.2613
    18.5364  18.8548  19.0261  19.1907  19.2279  19.3398  19.5256  19.8829
    20.1894  20.2141  20.5333  20.9743  21.1770  21.2628  21.3718  21.8416
    22.3164  22.3985  22.8062  23.2022  23.3466  23.4740  23.5931  23.7420
    23.8000  23.9999  24.6802  24.9689  25.3875  25.3897  25.5962  25.9359
    26.0088

          k = 0.1250 0.1768 0.0000 ( 17796 PWs)   bands (ev):

    -9.8014  -8.8872  -6.8829  -5.7082  -3.7692   0.9057   1.4209   1.5556
     2.6839   3.6515   4.0512   4.7645   5.0751   6.9077   7.8591   7.9394
     8.2796   8.3317   8.5380   8.5506   8.6815   8.9462   9.5713   9.8364
     9.9404   9.9787  10.0082  10.1985  10.3174  10.3440  10.5225  10.5392
    10.7477  10.7961  10.9467  11.0564  11.0856  11.2171  11.2503  11.2780
    11.3362  11.3776  11.3981  11.4869  11.5223  11.5231  11.6434  11.6708
    11.7629  11.7721  11.8124  11.8538  11.9449  11.9533  12.0011  12.0623
    12.0701  12.1529  12.1633  12.2456  12.2885  12.3388  12.3953  12.4814
    12.4815  12.5172  12.6333  12.6822  12.7282  12.7736  12.8757  12.8969
    12.9362  12.9534  13.0002  13.0241  13.1035  13.1673  13.2601  13.2736
    13.3163  13.3801  13.4120  13.4594  13.4816  13.4964  13.6331  13.6538
    13.7222  13.7570  13.7612  13.8015  13.8150  13.8910  13.9295  13.9973
    14.0158  14.0235  14.1149  14.1666  14.2957  14.3155  14.3305  14.3336
    14.4348  14.5074  14.5655  14.6238  14.6870  14.7040  14.7073  14.7573
    14.7754  14.8735  14.8894  14.9511  14.9814  15.0254  15.1289  15.1454
    15.1741  15.2368  15.2589  15.2593  15.3597  15.3809  15.3892  15.4588
    15.5468  15.5478  15.5794  15.5824  15.6343  15.6736  15.7270  15.7859
    15.8465  15.8509  16.0020  16.0650  16.0650  16.0946  16.1288  16.1366
    16.2400  16.3577  16.4613  16.5297  16.6799  17.3857  17.5918  17.8415
    18.0301  18.9526  19.2385  19.6302  19.8059  19.9260  20.0106  20.2805
    20.3886  20.7794  20.8770  21.0946  21.2216  21.3476  21.4986  21.8548
    22.3768  22.5688  22.8551  23.0140  23.0252  23.1466  23.7175  23.8534
    23.8615  24.0123  24.6964  24.8999  25.1236  25.2952  25.5366  25.7452
    25.9843

          k = 0.1250 0.2357 0.0000 ( 17785 PWs)   bands (ev):

    -9.7585  -8.3774  -7.7840  -4.9430  -4.3082   1.6358   1.7087   1.7924
     2.3673   3.1182   3.8194   5.0912   5.5064   7.2024   7.6117   8.0857
     8.1320   8.5605   8.5852   8.7782   8.8279   8.8525   9.2208   9.7479
     9.9828  10.0131  10.0269  10.1153  10.2132  10.2797  10.2961  10.6058
    10.6825  10.8051  10.8157  10.9455  11.0326  11.1799  11.1835  11.2252
    11.4419  11.4565  11.4750  11.5659  11.5779  11.6521  11.7345  11.7657
    11.8147  11.8919  11.9629  11.9648  12.0283  12.0367  12.0675  12.1036
    12.1536  12.1673  12.1937  12.2402  12.3164  12.3546  12.3965  12.4682
    12.4739  12.5880  12.5940  12.6264  12.6748  12.7214  12.7871  12.8279
    12.8287  12.9520  12.9617  12.9977  13.0693  13.1083  13.2041  13.2192
    13.2998  13.3296  13.3737  13.4234  13.4487  13.5024  13.5752  13.6086
    13.6924  13.7358  13.7774  13.7893  13.8363  13.8804  13.8845  13.9615
    13.9793  14.0477  14.0778  14.1317  14.1586  14.2177  14.3198  14.3628
    14.4199  14.4699  14.4798  14.5551  14.5661  14.6434  14.6715  14.6804
    14.7370  14.7749  14.8389  14.8526  14.9325  14.9414  15.0112  15.0183
    15.0661  15.1883  15.1920  15.2490  15.2654  15.3268  15.3492  15.3742
    15.4496  15.4666  15.5344  15.5353  15.6010  15.6124  15.6651  15.7002
    15.7259  15.8384  15.9197  15.9409  15.9963  16.1009  16.1094  16.1514
    16.2603  16.3151  16.4191  16.5021  16.6224  17.2360  17.5496  17.6446
    17.7075  18.6852  19.4889  19.7753  19.8955  20.0847  20.2937  20.5944
    20.6631  20.7633  20.9075  21.1847  21.7071  21.8026  22.0362  22.0492
    22.3639  22.5409  22.9248  22.9488  23.1221  23.2911  23.8491  23.8821
    24.0453  24.1418  24.7115  24.7693  24.9346  25.1037  25.4148  25.5965
    25.9064

          k = 0.1250 0.2946 0.0000 ( 17801 PWs)   bands (ev):

    -9.5272  -8.5314  -7.7240  -6.0006  -2.7608   0.4044   1.9122   2.1081
     2.6521   3.0661   3.7799   6.0045   6.0704   6.2629   7.5070   7.8835
     8.2839   8.4021   8.6500   8.6961   8.8960   8.9835   9.2577   9.5078
     9.6503   9.7091  10.0928  10.2553  10.3127  10.4101  10.4605  10.5754
    10.6225  10.6274  10.7834  10.8566  10.9583  11.1255  11.2183  11.2393
    11.5480  11.5867  11.5969  11.6462  11.6761  11.7683  11.7993  11.8389
    11.8841  11.9519  11.9577  12.0264  12.0316  12.0709  12.1032  12.1338
    12.1905  12.2337  12.2358  12.2881  12.3339  12.3753  12.3827  12.4532
    12.4979  12.5614  12.5685  12.6341  12.6718  12.7267  12.7679  12.7928
    12.8149  12.8791  12.9796  12.9833  13.0586  13.1075  13.1930  13.2133
    13.2564  13.3388  13.3558  13.4373  13.4742  13.4978  13.5591  13.6500
    13.6652  13.6932  13.7234  13.8214  13.8281  13.8509  13.8850  13.9547
    13.9794  14.0082  14.0522  14.1238  14.1254  14.1834  14.2443  14.2967
    14.3227  14.3987  14.4450  14.5057  14.5682  14.6128  14.6509  14.6535
    14.6901  14.7107  14.7732  14.8349  14.8369  14.8661  14.9050  14.9237
    15.0147  15.0274  15.1622  15.1845  15.1982  15.2331  15.2640  15.2837
    15.3394  15.3561  15.4792  15.5488  15.6154  15.6819  15.6867  15.7445
    15.8165  15.8218  15.9019  15.9614  15.9852  16.0810  16.0966  16.1435
    16.1903  16.2721  16.2769  16.5978  16.9254  16.9630  17.2841  17.5976
    17.6948  18.0424  19.6115  19.6441  19.8450  20.2819  20.4233  20.5251
    20.6628  20.8128  21.3913  21.5711  21.8032  21.9229  22.0670  22.2994
    22.6641  22.8822  23.1054  23.1897  23.3461  23.4703  23.7822  23.9832
    24.1097  24.4169  24.4438  24.6029  24.8075  24.8961  25.0684  25.3713
    25.6108

          k = 0.1250-0.3536 0.0000 ( 17808 PWs)   bands (ev):

    -9.1154  -9.1154  -6.9301  -6.9301  -1.1451  -1.1451   2.2507   2.2507
     2.5202   2.5202   5.0808   5.0808   6.7531   6.7531   6.9382   6.9382
     8.5431   8.5431   8.8196   8.8197   9.0420   9.0420   9.3016   9.3016
     9.4012   9.4012  10.3024  10.3024  10.4177  10.4177  10.4776  10.4776
    10.5611  10.5611  10.7886  10.7886  11.0315  11.0315  11.2440  11.2440
    11.6270  11.6270  11.6883  11.6883  11.7625  11.7625  11.8476  11.8476
    11.8822  11.8822  12.0040  12.0040  12.0617  12.0617  12.1713  12.1713
    12.2020  12.2020  12.2825  12.2825  12.3395  12.3395  12.4449  12.4449
    12.4798  12.4798  12.6018  12.6018  12.7053  12.7053  12.7818  12.7818
    12.8747  12.8747  12.9590  12.9590  13.0205  13.0205  13.2144  13.2144
    13.2947  13.2947  13.3549  13.3549  13.5644  13.5644  13.6322  13.6322
    13.7368  13.7368  13.7465  13.7465  13.8308  13.8308  13.8886  13.8886
    13.9375  13.9375  14.0490  14.0490  14.0690  14.0690  14.3235  14.3235
    14.4111  14.4111  14.4988  14.4988  14.5435  14.5435  14.6189  14.6189
    14.6797  14.6797  14.7628  14.7628  14.8520  14.8520  14.9479  14.9479
    15.0154  15.0154  15.0790  15.0790  15.1881  15.1881  15.2922  15.2922
    15.3341  15.3341  15.5045  15.5045  15.7055  15.7055  15.7612  15.7612
    15.8615  15.8615  15.8886  15.8886  16.0053  16.0053  16.1117  16.1117
    16.2258  16.2258  16.3203  16.3203  16.8733  16.8733  17.4094  17.4094
    17.7840  17.7840  19.5559  19.5559  20.1439  20.1439  20.3458  20.3458
    21.0383  21.0383  21.2270  21.2270  22.1098  22.1098  22.4382  22.4382
    22.7444  22.7444  23.0742  23.0742  23.8001  23.8001  23.8733  23.8733
    24.2894  24.2894  24.4771  24.4772  24.6828  24.6828  24.9581  24.9581
    25.7701

          k = 0.1250-0.2946 0.0000 ( 17801 PWs)   bands (ev):

    -9.5272  -8.5314  -7.7240  -6.0006  -2.7608   0.4044   1.9122   2.1081
     2.6521   3.0661   3.7799   6.0045   6.0704   6.2629   7.5070   7.8835
     8.2839   8.4021   8.6500   8.6961   8.8960   8.9835   9.2577   9.5078
     9.6503   9.7091  10.0928  10.2553  10.3127  10.4101  10.4605  10.5754
    10.6225  10.6274  10.7834  10.8566  10.9583  11.1255  11.2183  11.2393
    11.5480  11.5867  11.5969  11.6462  11.6761  11.7683  11.7993  11.8389
    11.8841  11.9519  11.9577  12.0264  12.0316  12.0709  12.1032  12.1338
    12.1905  12.2337  12.2358  12.2881  12.3339  12.3753  12.3827  12.4532
    12.4979  12.5614  12.5685  12.6341  12.6718  12.7267  12.7679  12.7928
    12.8149  12.8791  12.9796  12.9833  13.0586  13.1075  13.1930  13.2133
    13.2564  13.3388  13.3558  13.4373  13.4742  13.4978  13.5591  13.6500
    13.6652  13.6932  13.7234  13.8214  13.8281  13.8509  13.8850  13.9547
    13.9794  14.0082  14.0522  14.1238  14.1254  14.1834  14.2443  14.2967
    14.3227  14.3987  14.4450  14.5057  14.5682  14.6128  14.6509  14.6535
    14.6901  14.7107  14.7732  14.8349  14.8369  14.8661  14.9050  14.9237
    15.0147  15.0274  15.1622  15.1845  15.1982  15.2331  15.2640  15.2837
    15.3394  15.3561  15.4792  15.5488  15.6154  15.6819  15.6867  15.7445
    15.8165  15.8218  15.9019  15.9614  15.9852  16.0810  16.0966  16.1435
    16.1903  16.2721  16.2769  16.5978  16.9254  16.9630  17.2841  17.5976
    17.6948  18.0424  19.6115  19.6441  19.8450  20.2819  20.4233  20.5251
    20.6628  20.8128  21.3913  21.5711  21.8032  21.9229  22.0670  22.2994
    22.6641  22.8822  23.1054  23.1897  23.3461  23.4703  23.7822  23.9832
    24.1096  24.4169  24.4438  24.6029  24.8075  24.8961  25.0684  25.3714
    25.6109

          k = 0.1250-0.2357 0.0000 ( 17785 PWs)   bands (ev):

    -9.7585  -8.3774  -7.7840  -4.9430  -4.3082   1.6358   1.7087   1.7924
     2.3673   3.1182   3.8194   5.0912   5.5064   7.2024   7.6117   8.0857
     8.1320   8.5605   8.5852   8.7782   8.8279   8.8525   9.2208   9.7479
     9.9828  10.0131  10.0269  10.1153  10.2132  10.2797  10.2961  10.6058
    10.6825  10.8051  10.8157  10.9455  11.0326  11.1799  11.1835  11.2252
    11.4419  11.4565  11.4750  11.5659  11.5779  11.6521  11.7345  11.7657
    11.8147  11.8919  11.9629  11.9648  12.0283  12.0367  12.0675  12.1036
    12.1536  12.1673  12.1937  12.2402  12.3164  12.3546  12.3965  12.4682
    12.4739  12.5880  12.5940  12.6264  12.6748  12.7214  12.7871  12.8279
    12.8287  12.9520  12.9617  12.9977  13.0693  13.1083  13.2041  13.2192
    13.2998  13.3296  13.3737  13.4234  13.4487  13.5024  13.5752  13.6086
    13.6924  13.7358  13.7774  13.7893  13.8363  13.8804  13.8845  13.9615
    13.9793  14.0477  14.0778  14.1317  14.1586  14.2177  14.3198  14.3628
    14.4199  14.4699  14.4798  14.5551  14.5661  14.6434  14.6715  14.6804
    14.7370  14.7749  14.8389  14.8526  14.9325  14.9414  15.0112  15.0183
    15.0661  15.1883  15.1920  15.2490  15.2654  15.3268  15.3492  15.3742
    15.4496  15.4666  15.5344  15.5353  15.6010  15.6124  15.6651  15.7002
    15.7259  15.8384  15.9197  15.9409  15.9963  16.1009  16.1094  16.1514
    16.2603  16.3151  16.4191  16.5021  16.6224  17.2360  17.5496  17.6446
    17.7075  18.6852  19.4889  19.7753  19.8955  20.0847  20.2937  20.5944
    20.6631  20.7633  20.9075  21.1847  21.7071  21.8026  22.0362  22.0492
    22.3639  22.5409  22.9248  22.9488  23.1221  23.2911  23.8491  23.8821
    24.0453  24.1418  24.7115  24.7693  24.9346  25.1036  25.4149  25.5964
    25.9088

          k = 0.1250-0.1768 0.0000 ( 17796 PWs)   bands (ev):

    -9.8014  -8.8872  -6.8829  -5.7082  -3.7692   0.9057   1.4209   1.5556
     2.6839   3.6515   4.0512   4.7645   5.0751   6.9077   7.8591   7.9394
     8.2796   8.3317   8.5380   8.5506   8.6815   8.9462   9.5713   9.8364
     9.9404   9.9787  10.0082  10.1985  10.3174  10.3440  10.5225  10.5392
    10.7477  10.7961  10.9467  11.0564  11.0856  11.2171  11.2503  11.2780
    11.3362  11.3776  11.3981  11.4869  11.5223  11.5231  11.6434  11.6708
    11.7629  11.7721  11.8124  11.8538  11.9449  11.9533  12.0011  12.0623
    12.0701  12.1529  12.1633  12.2456  12.2885  12.3388  12.3953  12.4814
    12.4815  12.5172  12.6333  12.6822  12.7282  12.7736  12.8757  12.8969
    12.9362  12.9534  13.0002  13.0241  13.1035  13.1673  13.2601  13.2736
    13.3163  13.3801  13.4120  13.4594  13.4816  13.4964  13.6331  13.6538
    13.7222  13.7570  13.7612  13.8015  13.8150  13.8910  13.9295  13.9973
    14.0158  14.0235  14.1149  14.1666  14.2957  14.3156  14.3305  14.3336
    14.4348  14.5074  14.5655  14.6238  14.6870  14.7040  14.7073  14.7573
    14.7754  14.8735  14.8894  14.9511  14.9814  15.0254  15.1289  15.1454
    15.1741  15.2368  15.2589  15.2593  15.3597  15.3809  15.3892  15.4588
    15.5468  15.5478  15.5794  15.5824  15.6343  15.6736  15.7270  15.7859
    15.8465  15.8509  16.0020  16.0650  16.0650  16.0946  16.1288  16.1366
    16.2400  16.3577  16.4613  16.5297  16.6799  17.3857  17.5918  17.8415
    18.0301  18.9526  19.2385  19.6302  19.8059  19.9260  20.0106  20.2805
    20.3886  20.7794  20.8770  21.0946  21.2216  21.3476  21.4986  21.8548
    22.3768  22.5688  22.8551  23.0140  23.0252  23.1466  23.7175  23.8534
    23.8615  24.0123  24.6964  24.8999  25.1236  25.2952  25.5366  25.7452
    25.9843

          k = 0.1250-0.1179 0.0000 ( 17815 PWs)   bands (ev):

    -9.6501  -9.2495  -6.9191  -5.8391  -2.4971  -0.5652   1.2674   1.3897
     2.8695   3.4560   4.2568   4.7779   5.7753   6.2039   7.4909   7.6518
     8.0630   8.4139   8.4849   8.6251   8.8944   9.1456   9.2476   9.4186
     9.7907   9.8957   9.9303  10.0933  10.3097  10.4612  10.6946  10.7434
    10.8366  10.9333  11.0129  11.0321  11.2134  11.2302  11.2328  11.3014
    11.3582  11.4044  11.4530  11.4591  11.4754  11.5176  11.5474  11.6213
    11.6832  11.7133  11.7622  11.8167  11.8560  11.8781  11.9702  12.0133
    12.0489  12.1596  12.1686  12.2755  12.3140  12.3901  12.3977  12.4601
    12.5523  12.6331  12.6932  12.6975  12.8042  12.8770  12.9422  12.9505
    12.9940  13.0126  13.0414  13.1529  13.2146  13.2168  13.2470  13.3380
    13.3382  13.3629  13.3647  13.4422  13.4717  13.5658  13.6110  13.6699
    13.6739  13.7697  13.7850  13.8238  13.8423  13.9104  14.0198  14.0544
    14.1003  14.1050  14.2200  14.2265  14.2682  14.3464  14.3994  14.4298
    14.5120  14.5368  14.5579  14.6383  14.6860  14.7567  14.7696  14.8166
    14.8581  14.8869  14.9742  14.9932  15.0233  15.0573  15.1519  15.2099
    15.2142  15.2888  15.3139  15.3744  15.3828  15.4516  15.4818  15.5430
    15.5914  15.6058  15.6404  15.6514  15.6824  15.7499  15.7734  15.8054
    15.8897  15.9937  16.0023  16.0805  16.1104  16.1778  16.2013  16.2956
    16.4103  16.5794  16.8334  16.8811  17.0149  17.2467  17.7136  18.2613
    18.5364  18.8548  19.0261  19.1907  19.2279  19.3398  19.5256  19.8829
    20.1894  20.2141  20.5333  20.9743  21.1770  21.2628  21.3718  21.8416
    22.3164  22.3985  22.8062  23.2022  23.3466  23.4740  23.5931  23.7420
    23.8000  23.9999  24.6802  24.9689  25.3875  25.3897  25.5962  25.9360
    26.0090

          k = 0.1250-0.0589 0.0000 ( 17791 PWs)   bands (ev):

    -9.4882  -9.2728  -7.9201  -4.6662  -2.0052  -1.1533   1.1753   1.2912
     1.5843   4.1398   4.6036   4.9354   5.5105   6.5776   6.7632   7.5242
     7.9302   8.3813   8.5125   8.6319   8.6992   9.0951   9.3371   9.3755
     9.6880   9.8470   9.8619   9.8898  10.2694  10.4314  10.6377  10.8006
    10.8648  10.8786  10.9862  11.1693  11.1717  11.1875  11.2915  11.3483
    11.3779  11.4079  11.4227  11.4501  11.4791  11.5426  11.5596  11.6081
    11.6728  11.6981  11.7308  11.7901  11.8072  11.8364  11.9688  12.0164
    12.0533  12.1853  12.2617  12.2679  12.3642  12.4296  12.4317  12.4783
    12.6081  12.7341  12.7711  12.8579  12.8705  12.9246  12.9272  13.0131
    13.0520  13.0638  13.1120  13.1622  13.1731  13.2353  13.2807  13.2841
    13.3334  13.3700  13.3720  13.4183  13.4990  13.5484  13.5795  13.6419
    13.6469  13.7265  13.7676  13.8056  13.8579  14.0043  14.0595  14.1111
    14.1674  14.1710  14.2381  14.3128  14.3405  14.4366  14.4427  14.4807
    14.4911  14.5613  14.6043  14.6590  14.7361  14.7468  14.7724  14.8398
    14.9000  14.9495  14.9636  15.0456  15.0808  15.1030  15.1101  15.2182
    15.2399  15.3593  15.3685  15.4094  15.4341  15.4874  15.5430  15.5739
    15.5989  15.6535  15.6739  15.7411  15.7421  15.8356  15.8381  15.8534
    15.9077  15.9502  16.0114  16.0697  16.2215  16.2434  16.2576  16.7860
    16.8618  16.9555  17.0464  17.1454  17.5425  17.7728  17.9101  18.3029
    18.4165  18.7054  18.8107  18.8774  18.9484  19.1463  19.1772  19.3516
    19.4832  19.7821  19.8318  20.5841  21.0432  21.1918  21.4332  22.0686
    22.2803  22.6935  22.8053  23.5044  23.5323  23.7426  23.7509  23.8879
    23.9973  24.3410  24.5292  24.6771  25.2203  25.4824  25.5199  25.7887
    26.0266

          k = 0.2500 0.0000 0.0000 ( 17793 PWs)   bands (ev):

    -9.5554  -8.7614  -8.6519  -3.3714  -3.3714   0.2213   0.2214   1.0817
     1.3459   4.8623   4.8624   4.9452   5.7183   5.7183   7.4848   7.7968
     7.7970   8.1033   8.6317   8.7716   8.9638   9.1595   9.4798   9.6541
     9.6542   9.7666   9.8019   9.8019  10.1598  10.4854  10.5766  10.7822
    10.8065  10.8072  10.9599  11.1219  11.2441  11.2562  11.3352  11.3439
    11.3680  11.4081  11.4111  11.4293  11.5065  11.5767  11.6014  11.6577
    11.6708  11.6997  11.7487  11.8109  11.9629  11.9876  12.0905  12.1773
    12.2183  12.3131  12.4398  12.4536  12.4552  12.5573  12.6504  12.7231
    12.7325  12.8200  12.8996  12.9189  12.9430  13.0088  13.0322  13.0571
    13.1353  13.1910  13.1979  13.2094  13.2757  13.3410  13.3501  13.3540
    13.4257  13.4469  13.4616  13.5372  13.5590  13.6242  13.6294  13.7018
    13.7168  13.7282  13.8107  13.8227  13.8374  13.9323  13.9803  13.9851
    13.9871  14.0128  14.0821  14.0953  14.2749  14.3115  14.3484  14.3621
    14.3898  14.4352  14.4798  14.5523  14.6546  14.7018  14.7110  14.7531
    14.8025  14.8678  14.9545  14.9781  15.0275  15.0361  15.1051  15.1574
    15.2154  15.2218  15.2773  15.3206  15.3367  15.4096  15.4121  15.4200
    15.4822  15.5368  15.5726  15.5793  15.6183  15.7156  15.7581  15.8367
    15.8504  15.9101  15.9279  16.0181  16.0843  16.1478  16.1759  16.2184
    16.8402  17.1820  17.3649  17.4237  17.4593  17.7297  17.7330  18.0906
    18.1235  18.2598  18.7259  18.9005  19.0553  19.2338  19.2526  19.3539
    19.5397  19.6687  19.7153  20.4144  20.5225  20.9650  20.9941  21.6302
    21.7596  22.6027  22.6118  22.6310  22.9679  22.9704  23.0880  23.1001
    23.2294  23.3313  23.4993  23.5348  23.6980  23.9415  24.9686  25.0416
    25.0792

          k = 0.2500 0.0589 0.0000 ( 17783 PWs)   bands (ev):

    -9.4899  -9.2711  -7.9185  -4.6587  -1.9924  -1.1559   1.1128   1.3788
     1.5817   4.1942   4.9056   5.0014   5.5797   6.5763   6.9187   7.5278
     8.1475   8.5726   8.6250   8.7057   8.9897   9.0935   9.4185   9.4905
     9.7965   9.8053   9.8226   9.8948  10.1896  10.5120  10.5927  10.7557
    10.7776  10.8897  10.9770  11.1496  11.1825  11.2437  11.3159  11.3694
    11.3973  11.4185  11.4372  11.4691  11.5308  11.5505  11.6245  11.6589
    11.6620  11.7043  11.7337  11.8119  11.9471  11.9889  12.0817  12.1817
    12.1966  12.3109  12.3612  12.4270  12.4931  12.5142  12.5834  12.6860
    12.7506  12.8357  12.8483  12.8979  12.9289  12.9880  13.0499  13.0830
    13.1085  13.1616  13.2335  13.2371  13.2946  13.3159  13.3494  13.4123
    13.4230  13.4681  13.4912  13.5391  13.5690  13.5910  13.6295  13.6755
    13.6850  13.7177  13.7910  13.8059  13.8527  13.9099  13.9453  13.9542
    13.9636  14.0051  14.0388  14.0943  14.2483  14.2756  14.3120  14.3576
    14.3718  14.4551  14.4593  14.4989  14.6095  14.6541  14.7482  14.7643
    14.7991  14.8833  14.9163  14.9704  14.9754  15.0568  15.0696  15.1154
    15.1467  15.1801  15.2444  15.2550  15.3073  15.3642  15.4141  15.4601
    15.4727  15.5365  15.5436  15.6502  15.6812  15.7636  15.7889  15.8258
    15.8817  15.8854  15.9230  15.9956  16.0436  16.1393  16.1837  16.2157
    16.7356  16.8392  16.9881  17.2762  17.2957  17.4367  17.9798  18.0096
    18.0466  18.5617  18.7195  18.9661  19.1247  19.2995  19.4221  19.6190
    19.7170  19.8535  20.0433  20.0830  20.2840  21.2042  21.4496  21.6561
    21.7837  21.8405  22.0593  22.3515  22.3990  22.6244  22.7570  23.3712
    23.5864  23.5981  23.8871  24.0101  24.2241  24.2842  24.9328  25.0700
    25.0987

          k = 0.2500 0.1179 0.0000 ( 17763 PWs)   bands (ev):

    -9.6486  -9.2512  -6.9168  -5.8333  -2.4997  -0.5483   1.2063   1.4778
     2.8643   3.5092   4.2272   5.1715   5.9367   6.2727   7.5114   7.6555
     8.2776   8.4711   8.6117   8.8536   9.0997   9.1949   9.2158   9.5423
     9.8475   9.8820   9.8847  10.0833  10.2726  10.5765  10.6325  10.6919
    10.7625  10.9392  11.0254  11.0272  11.1660  11.2227  11.2993  11.4128
    11.4697  11.4762  11.4931  11.5398  11.5606  11.5677  11.6214  11.6215
    11.6906  11.7155  11.7463  11.8123  11.9494  11.9823  12.0870  12.1301
    12.1858  12.2702  12.2828  12.3830  12.4464  12.4500  12.6117  12.6135
    12.7023  12.8180  12.8560  12.8625  12.9197  12.9392  13.0261  13.0294
    13.0497  13.0976  13.2031  13.2657  13.3235  13.3603  13.3741  13.4233
    13.4370  13.4800  13.4935  13.5163  13.5599  13.5783  13.6106  13.6239
    13.6646  13.6934  13.7458  13.7610  13.7748  13.8203  13.8900  13.8901
    13.9115  13.9697  13.9965  14.0884  14.1204  14.1585  14.2252  14.2784
    14.3287  14.3856  14.4172  14.4447  14.5070  14.5888  14.6625  14.6868
    14.7766  14.7930  14.8395  14.9107  14.9291  15.0142  15.0279  15.1030
    15.1194  15.1665  15.1990  15.2114  15.2675  15.3816  15.3975  15.4631
    15.5109  15.5428  15.5928  15.5971  15.7003  15.7435  15.7894  15.7906
    15.8958  15.8970  15.9292  15.9835  16.0420  16.0562  16.0788  16.2094
    16.3967  16.4296  16.6454  16.8115  17.4288  17.5140  17.5881  17.6342
    17.8007  18.7161  19.1306  19.1624  19.4095  19.5080  19.5977  19.6535
    19.7758  19.8464  20.2385  20.6235  20.8236  21.0852  21.4913  21.5998
    21.6953  21.7677  21.8201  21.8823  22.0024  22.1301  22.5683  23.5869
    23.7057  23.7491  24.1496  24.5958  24.7960  24.9856  25.1484  25.1497
    25.2869

          k = 0.2500 0.1768 0.0000 ( 17751 PWs)   bands (ev):

    -9.7998  -8.8890  -6.8783  -5.7048  -3.7717   0.9275   1.3620   1.6446
     2.7230   3.6187   4.0531   4.9201   5.4602   6.9736   7.8635   7.9962
     8.3944   8.4805   8.5200   8.6062   9.0022   9.2333   9.6371   9.6710
     9.9246   9.9499  10.0167  10.1861  10.3797  10.3966  10.5105  10.5962
    10.6497  10.7839  11.0156  11.1051  11.1763  11.2542  11.2810  11.4577
    11.4927  11.5040  11.5233  11.5602  11.5982  11.6220  11.6635  11.6816
    11.7630  11.8208  11.8236  11.8687  11.9903  12.0202  12.0576  12.1066
    12.1954  12.2355  12.2851  12.3497  12.4065  12.4308  12.5490  12.5694
    12.6940  12.7459  12.8203  12.8628  12.8644  12.9023  12.9181  12.9386
    13.0043  13.0594  13.2021  13.2181  13.2349  13.2737  13.3181  13.3750
    13.4174  13.4609  13.4785  13.4861  13.4937  13.5406  13.5498  13.5813
    13.5966  13.6245  13.7075  13.7429  13.7650  13.7670  13.8120  13.8235
    13.8565  13.8840  13.8946  13.9714  14.0507  14.0784  14.1348  14.1930
    14.2485  14.2878  14.3214  14.4205  14.4377  14.5164  14.5734  14.5885
    14.6402  14.7310  14.7598  14.8961  14.9221  14.9634  15.0096  15.0450
    15.1023  15.1251  15.1540  15.2059  15.3134  15.3834  15.4100  15.4155
    15.4712  15.5533  15.5924  15.6136  15.6272  15.6805  15.7349  15.7402
    15.8038  15.8159  15.8817  15.9059  15.9119  16.0320  16.0459  16.1072
    16.2169  16.4367  16.6286  16.7181  16.9597  17.1696  17.4536  17.8567
    18.0064  18.5421  18.7118  19.0237  19.2980  19.5484  19.7360  19.8832
    20.3372  20.4249  20.5811  20.7027  20.8423  21.1113  21.1776  21.2955
    21.7060  21.8437  21.8567  22.0083  22.2233  22.3362  22.7109  23.5484
    23.7962  24.0238  24.0631  24.7203  25.1206  25.1926  25.3293  25.7918
    25.8299

          k = 0.2500 0.2357 0.0000 ( 17768 PWs)   bands (ev):

    -9.7567  -8.3793  -7.7804  -4.9454  -4.3027   1.5801   1.7406   1.8832
     2.3951   3.0812   3.9551   5.0905   5.8748   7.2664   7.6813   8.0595
     8.1396   8.6236   8.7712   8.8372   8.9329   9.3886   9.4435   9.7126
     9.9519   9.9906  10.0570  10.0952  10.1409  10.2160  10.4037  10.5550
    10.5964  10.8669  10.9257  11.1329  11.1708  11.2379  11.4010  11.4580
    11.5401  11.5480  11.6244  11.6301  11.6451  11.6931  11.7441  11.7860
    11.8693  11.9047  11.9899  11.9905  12.0625  12.1052  12.1116  12.2116
    12.2255  12.2556  12.3336  12.3787  12.4249  12.4397  12.5181  12.5474
    12.6298  12.6620  12.7533  12.7740  12.7891  12.8140  12.9030  12.9357
    12.9448  13.0267  13.1008  13.1338  13.1490  13.1897  13.2263  13.2636
    13.3747  13.3782  13.3893  13.4134  13.4415  13.4621  13.5054  13.5131
    13.5473  13.5584  13.6188  13.6847  13.6849  13.7528  13.7789  13.8022
    13.8581  13.8822  13.8968  13.9051  14.0057  14.0165  14.0356  14.0564
    14.2188  14.2941  14.2950  14.4476  14.4522  14.4637  14.5193  14.5200
    14.6052  14.6219  14.7371  14.7531  14.8297  14.8898  14.9235  14.9669
    15.0450  15.0868  15.1565  15.1717  15.2385  15.2661  15.2946  15.3761
    15.4337  15.4872  15.5461  15.5474  15.6173  15.6316  15.6562  15.6971
    15.7541  15.8076  15.8776  15.8823  15.9216  15.9846  15.9918  16.1068
    16.3146  16.4734  16.5527  16.6537  16.9320  16.9666  17.3204  18.1774
    18.3313  18.3708  18.4233  18.5031  19.1013  19.5848  19.7864  20.0296
    20.1171  20.2149  20.6423  20.6935  20.7945  20.9410  21.4914  21.5921
    21.9852  22.0476  22.1912  22.2618  22.4732  22.7203  22.9599  23.5602
    24.0052  24.2290  24.3902  25.1281  25.1603  25.3937  25.5821  25.6024
    25.7366

          k = 0.2500 0.2946 0.0000 ( 17790 PWs)   bands (ev):

    -9.5251  -8.5285  -7.7260  -6.0028  -2.7518   0.4281   1.8606   2.2021
     2.6103   3.1747   3.8215   5.9990   6.2305   6.5058   7.4990   8.1241
     8.3938   8.4296   8.7077   8.7254   9.0996   9.4850   9.4901   9.5205
     9.5769   9.7719  10.1612  10.1642  10.2221  10.2867  10.4146  10.4994
    10.5719  10.8257  10.9300  11.0722  11.2197  11.3323  11.3725  11.4614
    11.6291  11.6301  11.6993  11.7281  11.7703  11.7869  11.8411  11.8707
    11.9334  11.9839  11.9863  12.0663  12.1584  12.1875  12.1877  12.3312
    12.3397  12.3560  12.3720  12.4380  12.4633  12.4986  12.5081  12.5350
    12.5715  12.6044  12.6716  12.7220  12.7706  12.7766  12.8485  12.8707
    12.9185  12.9541  13.0073  13.0218  13.0676  13.1248  13.1516  13.1937
    13.2109  13.2779  13.2934  13.3103  13.3872  13.4211  13.4678  13.4974
    13.5024  13.5364  13.5837  13.6062  13.6328  13.6932  13.7237  13.7909
    13.7979  13.8321  13.9299  13.9308  13.9679  14.0795  14.1081  14.1921
    14.2523  14.2586  14.2953  14.4330  14.4716  14.4947  14.5090  14.5620
    14.5940  14.6068  14.6696  14.7145  14.7672  14.7859  14.8540  14.8636
    14.9234  14.9493  14.9699  15.0147  15.1460  15.1995  15.3009  15.3180
    15.3408  15.3567  15.4956  15.6241  15.6614  15.6892  15.6954  15.7305
    15.7615  15.8483  15.8773  15.9209  15.9699  16.0096  16.0143  16.1389
    16.1929  16.3720  16.4488  16.6241  16.9220  17.0028  17.2872  17.9971
    18.1254  18.1400  18.6614  18.7695  18.8732  19.5651  19.5863  19.7572
    19.9445  20.1991  20.3756  20.4576  20.7551  21.1652  21.5732  21.9000
    22.1425  22.3288  22.3809  22.6445  22.7169  22.8460  23.6506  24.0976
    24.2486  24.5167  24.8110  24.8728  25.1553  25.3350  25.4608  25.5877
    25.8282

          k = 0.2500-0.3536 0.0000 ( 17788 PWs)   bands (ev):

    -9.1130  -9.1130  -6.9322  -6.9322  -1.1300  -1.1300   2.2039   2.2039
     2.6201   2.6201   5.1248   5.1248   6.7655   6.7655   7.2428   7.2428
     8.5953   8.5953   9.0229   9.0229   9.0449   9.0449   9.4435   9.4435
     9.6023   9.6023  10.2001  10.2001  10.3415  10.3415  10.3943  10.3943
    10.6793  10.6793  11.0064  11.0064  11.3000  11.3000  11.4162  11.4162
    11.6784  11.6784  11.7436  11.7436  11.8540  11.8540  11.8693  11.8693
    11.9669  11.9669  12.0934  12.0934  12.1547  12.1547  12.2909  12.2909
    12.3693  12.3693  12.4506  12.4506  12.5102  12.5102  12.5669  12.5669
    12.5747  12.5747  12.6700  12.6700  12.7788  12.7788  12.8471  12.8471
    12.8902  12.8902  12.9516  12.9516  13.0162  13.0162  13.0847  13.0847
    13.1927  13.1927  13.2764  13.2764  13.3734  13.3734  13.4698  13.4698
    13.5384  13.5384  13.6014  13.6014  13.6656  13.6656  13.7002  13.7002
    13.8281  13.8281  13.9600  13.9600  13.9840  13.9840  14.2334  14.2334
    14.2807  14.2807  14.3792  14.3792  14.4659  14.4659  14.5548  14.5548
    14.6084  14.6084  14.6614  14.6614  14.7170  14.7170  14.8219  14.8219
    14.8697  14.8697  14.9462  14.9462  15.2143  15.2143  15.2971  15.2971
    15.3942  15.3942  15.5366  15.5366  15.7029  15.7029  15.7302  15.7302
    15.8089  15.8089  15.9103  15.9103  16.0128  16.0128  16.1177  16.1178
    16.2241  16.2241  16.4362  16.4362  16.8231  16.8231  17.6202  17.6202
    18.0074  18.0074  19.0530  19.0530  19.1774  19.1774  19.3824  19.3824
    20.1346  20.1346  20.2304  20.2304  21.1461  21.1461  21.5292  21.5292
    22.3077  22.3077  22.5793  22.5793  23.5659  23.5659  23.6203  23.6203
    24.3884  24.3885  25.1698  25.1698  25.3473  25.3474  25.4086  25.4086
    25.6582

          k = 0.2500-0.2946 0.0000 ( 17790 PWs)   bands (ev):

    -9.5251  -8.5285  -7.7260  -6.0028  -2.7518   0.4281   1.8606   2.2021
     2.6103   3.1747   3.8215   5.9990   6.2305   6.5058   7.4990   8.1241
     8.3938   8.4296   8.7077   8.7254   9.0996   9.4850   9.4901   9.5205
     9.5769   9.7719  10.1612  10.1642  10.2221  10.2867  10.4146  10.4994
    10.5719  10.8257  10.9300  11.0722  11.2197  11.3323  11.3725  11.4614
    11.6291  11.6301  11.6993  11.7281  11.7703  11.7869  11.8411  11.8707
    11.9334  11.9839  11.9863  12.0663  12.1584  12.1875  12.1877  12.3312
    12.3397  12.3560  12.3720  12.4380  12.4633  12.4986  12.5081  12.5350
    12.5715  12.6044  12.6716  12.7220  12.7706  12.7766  12.8485  12.8707
    12.9185  12.9541  13.0073  13.0218  13.0676  13.1248  13.1516  13.1937
    13.2109  13.2779  13.2934  13.3103  13.3872  13.4211  13.4678  13.4974
    13.5024  13.5364  13.5837  13.6062  13.6328  13.6932  13.7237  13.7909
    13.7979  13.8321  13.9299  13.9308  13.9679  14.0795  14.1081  14.1921
    14.2523  14.2586  14.2953  14.4330  14.4716  14.4947  14.5090  14.5620
    14.5940  14.6068  14.6696  14.7145  14.7672  14.7859  14.8540  14.8636
    14.9234  14.9493  14.9699  15.0147  15.1460  15.1995  15.3009  15.3180
    15.3408  15.3567  15.4956  15.6241  15.6614  15.6892  15.6954  15.7305
    15.7615  15.8483  15.8773  15.9209  15.9699  16.0096  16.0143  16.1389
    16.1929  16.3720  16.4488  16.6241  16.9220  17.0028  17.2872  17.9971
    18.1254  18.1400  18.6614  18.7695  18.8732  19.5651  19.5863  19.7572
    19.9445  20.1991  20.3756  20.4576  20.7551  21.1652  21.5732  21.9000
    22.1425  22.3288  22.3809  22.6445  22.7169  22.8460  23.6506  24.0976
    24.2486  24.5167  24.8110  24.8728  25.1553  25.3350  25.4608  25.5876
    25.8282

          k = 0.2500-0.2357 0.0000 ( 17768 PWs)   bands (ev):

    -9.7567  -8.3793  -7.7804  -4.9454  -4.3027   1.5801   1.7406   1.8832
     2.3951   3.0812   3.9551   5.0905   5.8748   7.2664   7.6813   8.0595
     8.1396   8.6236   8.7712   8.8372   8.9329   9.3886   9.4435   9.7126
     9.9519   9.9906  10.0570  10.0952  10.1409  10.2160  10.4037  10.5550
    10.5964  10.8669  10.9257  11.1329  11.1708  11.2379  11.4010  11.4580
    11.5401  11.5480  11.6244  11.6301  11.6451  11.6931  11.7441  11.7860
    11.8693  11.9047  11.9899  11.9905  12.0625  12.1052  12.1116  12.2116
    12.2255  12.2556  12.3336  12.3787  12.4249  12.4397  12.5181  12.5474
    12.6298  12.6620  12.7533  12.7740  12.7891  12.8140  12.9030  12.9357
    12.9448  13.0267  13.1008  13.1338  13.1490  13.1897  13.2263  13.2636
    13.3747  13.3782  13.3893  13.4134  13.4415  13.4621  13.5054  13.5131
    13.5473  13.5584  13.6188  13.6847  13.6849  13.7528  13.7789  13.8022
    13.8581  13.8822  13.8968  13.9051  14.0057  14.0165  14.0356  14.0564
    14.2188  14.2941  14.2950  14.4476  14.4522  14.4637  14.5193  14.5200
    14.6052  14.6219  14.7371  14.7531  14.8297  14.8898  14.9235  14.9669
    15.0450  15.0868  15.1565  15.1717  15.2385  15.2661  15.2946  15.3761
    15.4337  15.4872  15.5461  15.5474  15.6173  15.6316  15.6562  15.6971
    15.7541  15.8076  15.8776  15.8823  15.9216  15.9846  15.9918  16.1068
    16.3146  16.4733  16.5527  16.6537  16.9320  16.9666  17.3204  18.1774
    18.3313  18.3708  18.4233  18.5031  19.1013  19.5848  19.7864  20.0296
    20.1171  20.2149  20.6423  20.6935  20.7945  20.9410  21.4914  21.5921
    21.9852  22.0476  22.1912  22.2618  22.4732  22.7203  22.9599  23.5602
    24.0052  24.2290  24.3902  25.1281  25.1603  25.3937  25.5817  25.6024
    25.7364

          k = 0.2500-0.1768 0.0000 ( 17751 PWs)   bands (ev):

    -9.7998  -8.8890  -6.8783  -5.7048  -3.7717   0.9275   1.3620   1.6446
     2.7230   3.6187   4.0531   4.9201   5.4602   6.9736   7.8635   7.9962
     8.3944   8.4805   8.5200   8.6062   9.0022   9.2333   9.6371   9.6710
     9.9246   9.9499  10.0167  10.1861  10.3797  10.3966  10.5105  10.5962
    10.6497  10.7839  11.0156  11.1051  11.1763  11.2542  11.2810  11.4577
    11.4927  11.5040  11.5233  11.5602  11.5982  11.6220  11.6635  11.6816
    11.7630  11.8208  11.8236  11.8687  11.9903  12.0202  12.0576  12.1066
    12.1954  12.2355  12.2851  12.3497  12.4065  12.4308  12.5490  12.5694
    12.6940  12.7459  12.8203  12.8628  12.8644  12.9023  12.9181  12.9386
    13.0043  13.0594  13.2021  13.2181  13.2349  13.2737  13.3181  13.3750
    13.4174  13.4609  13.4785  13.4861  13.4937  13.5406  13.5498  13.5813
    13.5966  13.6245  13.7075  13.7429  13.7650  13.7670  13.8120  13.8235
    13.8565  13.8840  13.8946  13.9714  14.0507  14.0784  14.1348  14.1930
    14.2485  14.2878  14.3214  14.4205  14.4377  14.5164  14.5734  14.5885
    14.6402  14.7310  14.7598  14.8961  14.9221  14.9634  15.0096  15.0450
    15.1023  15.1251  15.1540  15.2059  15.3134  15.3834  15.4100  15.4155
    15.4712  15.5533  15.5924  15.6136  15.6272  15.6805  15.7349  15.7402
    15.8038  15.8159  15.8817  15.9059  15.9119  16.0320  16.0459  16.1072
    16.2169  16.4367  16.6286  16.7181  16.9597  17.1696  17.4536  17.8567
    18.0064  18.5421  18.7118  19.0237  19.2980  19.5484  19.7360  19.8832
    20.3372  20.4249  20.5811  20.7027  20.8423  21.1113  21.1776  21.2955
    21.7060  21.8437  21.8567  22.0083  22.2233  22.3362  22.7109  23.5484
    23.7962  24.0238  24.0631  24.7203  25.1206  25.1926  25.3293  25.7918
    25.8299

          k = 0.2500-0.1179 0.0000 ( 17763 PWs)   bands (ev):

    -9.6486  -9.2512  -6.9168  -5.8333  -2.4997  -0.5483   1.2063   1.4778
     2.8643   3.5092   4.2272   5.1715   5.9367   6.2727   7.5114   7.6555
     8.2776   8.4711   8.6117   8.8536   9.0997   9.1949   9.2158   9.5423
     9.8475   9.8820   9.8847  10.0833  10.2726  10.5765  10.6325  10.6919
    10.7625  10.9392  11.0254  11.0272  11.1660  11.2227  11.2993  11.4128
    11.4697  11.4762  11.4931  11.5398  11.5606  11.5677  11.6214  11.6215
    11.6906  11.7155  11.7463  11.8123  11.9494  11.9823  12.0870  12.1301
    12.1858  12.2702  12.2828  12.3830  12.4464  12.4500  12.6117  12.6135
    12.7023  12.8180  12.8560  12.8625  12.9197  12.9392  13.0261  13.0294
    13.0497  13.0976  13.2031  13.2657  13.3235  13.3603  13.3741  13.4233
    13.4370  13.4800  13.4935  13.5163  13.5599  13.5783  13.6106  13.6239
    13.6646  13.6934  13.7458  13.7610  13.7748  13.8203  13.8900  13.8901
    13.9115  13.9697  13.9965  14.0884  14.1204  14.1585  14.2252  14.2784
    14.3287  14.3856  14.4172  14.4447  14.5070  14.5888  14.6625  14.6868
    14.7766  14.7930  14.8395  14.9107  14.9291  15.0142  15.0279  15.1030
    15.1194  15.1665  15.1990  15.2114  15.2675  15.3816  15.3975  15.4631
    15.5109  15.5428  15.5928  15.5971  15.7003  15.7435  15.7894  15.7906
    15.8958  15.8970  15.9292  15.9835  16.0420  16.0562  16.0788  16.2094
    16.3967  16.4296  16.6454  16.8115  17.4288  17.5140  17.5881  17.6342
    17.8007  18.7161  19.1306  19.1624  19.4095  19.5080  19.5977  19.6535
    19.7758  19.8464  20.2385  20.6235  20.8236  21.0852  21.4913  21.5998
    21.6953  21.7677  21.8201  21.8823  22.0024  22.1301  22.5683  23.5869
    23.7057  23.7491  24.1496  24.5958  24.7960  24.9856  25.1484  25.1500
    25.2872

          k = 0.2500-0.0589 0.0000 ( 17783 PWs)   bands (ev):

    -9.4899  -9.2711  -7.9185  -4.6587  -1.9924  -1.1559   1.1128   1.3788
     1.5817   4.1942   4.9056   5.0014   5.5797   6.5763   6.9187   7.5278
     8.1475   8.5726   8.6250   8.7057   8.9897   9.0935   9.4185   9.4905
     9.7965   9.8053   9.8226   9.8948  10.1896  10.5120  10.5927  10.7557
    10.7776  10.8897  10.9770  11.1496  11.1825  11.2437  11.3159  11.3694
    11.3973  11.4185  11.4372  11.4691  11.5308  11.5505  11.6245  11.6589
    11.6620  11.7043  11.7337  11.8119  11.9471  11.9889  12.0817  12.1817
    12.1966  12.3109  12.3612  12.4270  12.4931  12.5142  12.5834  12.6860
    12.7506  12.8357  12.8483  12.8979  12.9289  12.9880  13.0499  13.0830
    13.1085  13.1616  13.2335  13.2371  13.2946  13.3159  13.3494  13.4123
    13.4230  13.4681  13.4912  13.5391  13.5690  13.5910  13.6295  13.6755
    13.6850  13.7177  13.7910  13.8059  13.8527  13.9099  13.9453  13.9542
    13.9636  14.0051  14.0388  14.0943  14.2483  14.2756  14.3120  14.3576
    14.3718  14.4551  14.4593  14.4989  14.6095  14.6541  14.7482  14.7643
    14.7991  14.8833  14.9163  14.9704  14.9754  15.0568  15.0696  15.1154
    15.1467  15.1801  15.2444  15.2550  15.3073  15.3642  15.4141  15.4601
    15.4727  15.5365  15.5436  15.6502  15.6812  15.7636  15.7889  15.8258
    15.8817  15.8854  15.9230  15.9956  16.0436  16.1393  16.1837  16.2157
    16.7356  16.8392  16.9881  17.2762  17.2957  17.4367  17.9798  18.0096
    18.0466  18.5617  18.7195  18.9661  19.1247  19.2995  19.4221  19.6190
    19.7170  19.8535  20.0433  20.0830  20.2840  21.2042  21.4496  21.6561
    21.7837  21.8405  22.0593  22.3515  22.3990  22.6244  22.7570  23.3712
    23.5864  23.5981  23.8871  24.0101  24.2241  24.2842  24.9328  25.0698
    25.0987

          k = 0.3750 0.0000 0.0000 ( 17794 PWs)   bands (ev):

    -9.5572  -8.7560  -8.6542  -3.3616  -3.3616   0.2189   0.2189   1.0175
     1.4412   4.9249   4.9250   5.4892   5.6969   5.6970   7.4874   7.9195
     7.9198   8.3042   8.6241   8.7570   8.8266   9.2464   9.6707   9.6717
     9.7677   9.7678   9.8298  10.2569  10.4249  10.4731  10.6120  10.7244
    10.7282  10.8201  10.9304  11.1183  11.1272  11.1709  11.2354  11.2785
    11.3300  11.4391  11.4396  11.5777  11.6316  11.7317  11.7859  11.8176
    11.8255  11.9434  11.9455  11.9471  12.1397  12.1672  12.3366  12.3789
    12.3984  12.4450  12.5001  12.6003  12.6170  12.6949  12.7264  12.8191
    12.8192  12.8210  12.9121  12.9217  12.9475  12.9934  13.0262  13.0543
    13.0719  13.0927  13.1034  13.2007  13.2690  13.2852  13.3191  13.3192
    13.3884  13.4442  13.4601  13.4718  13.4735  13.5150  13.5992  13.6039
    13.6635  13.6928  13.6981  13.7433  13.7457  13.7949  13.9493  13.9531
    13.9978  14.0017  14.1139  14.1210  14.1318  14.1821  14.1951  14.3509
    14.3818  14.4153  14.4633  14.4668  14.7046  14.7063  14.7400  14.7509
    14.7510  14.7967  14.8187  14.9114  14.9659  14.9771  15.0164  15.1114
    15.1241  15.1325  15.1666  15.2049  15.2986  15.3460  15.4672  15.4796
    15.4835  15.4920  15.5985  15.6278  15.6350  15.7234  15.7250  15.8231
    15.8321  15.8710  15.9413  15.9485  15.9872  16.0513  16.0832  16.1337
    16.1615  16.2380  16.6966  17.1054  17.1614  17.3077  17.5277  17.8757
    17.9002  18.1621  18.3043  18.4577  19.1983  19.3397  19.5929  19.7286
    19.9549  19.9643  20.0998  20.4279  20.9464  21.1402  21.2905  21.4173
    21.4373  21.4879  21.5853  21.8530  21.8777  22.0991  22.1752  22.4352
    22.5043  22.5729  23.3286  23.3773  23.4677  23.4919  24.2359  24.2702
    24.6563

          k = 0.3750 0.0589 0.0000 ( 17796 PWs)   bands (ev):

    -9.4916  -9.2695  -7.9170  -4.6513  -1.9796  -1.1586   1.0491   1.4742
     1.5800   4.2494   4.8933   5.5443   5.6261   6.5751   7.0829   7.5303
     8.3473   8.6146   8.6228   8.6934   8.8329   9.1765   9.4575   9.7561
     9.7961   9.8568   9.8900  10.2912  10.4463  10.4998  10.6447  10.6941
    10.7921  10.8436  10.9537  11.0664  11.1309  11.1740  11.2631  11.2940
    11.3541  11.4212  11.4572  11.5614  11.6802  11.7075  11.7936  11.8065
    11.8324  11.9244  11.9303  11.9887  12.1442  12.1989  12.2956  12.3647
    12.3964  12.4511  12.4912  12.5765  12.5903  12.5979  12.7137  12.7690
    12.8114  12.8709  12.8912  12.9243  12.9671  12.9818  13.0311  13.0591
    13.0752  13.1072  13.1244  13.2076  13.2663  13.2834  13.3355  13.3377
    13.3917  13.4001  13.4424  13.4644  13.4853  13.5006  13.5851  13.6038
    13.6479  13.6732  13.6863  13.7346  13.7430  13.8160  13.8956  13.9108
    13.9751  13.9912  14.0973  14.1171  14.1240  14.1461  14.2048  14.3265
    14.3788  14.3882  14.4205  14.4748  14.6440  14.6492  14.6900  14.7498
    14.7962  14.8092  14.8287  14.9233  14.9254  14.9880  14.9942  15.0259
    15.1001  15.1240  15.1417  15.1602  15.2112  15.2600  15.3796  15.3986
    15.4491  15.5589  15.5768  15.6485  15.6986  15.7258  15.7815  15.7873
    15.8604  15.8767  15.9214  15.9463  16.0121  16.0354  16.0919  16.1155
    16.1504  16.3859  16.5401  16.7733  17.1112  17.3845  17.4635  17.6180
    17.8279  17.9892  18.5218  18.6907  19.1597  19.3484  19.3624  19.8544
    19.9876  20.0293  20.4418  20.4646  20.5525  20.9359  20.9660  21.1442
    21.2392  21.2784  21.6537  21.7816  22.1701  22.3200  22.3662  22.5251
    22.8074  23.0801  23.2572  23.4157  23.5165  23.6724  23.8632  24.3811
    24.7059

          k = 0.3750 0.1179 0.0000 ( 17793 PWs)   bands (ev):

    -9.6472  -9.2529  -6.9145  -5.8275  -2.5023  -0.5314   1.1438   1.5738
     2.8668   3.5537   4.2031   5.7107   6.1191   6.3203   7.5377   7.6580
     8.4648   8.4760   8.6217   8.7799   9.0569   9.1381   9.2482   9.7946
     9.8612   9.9330  10.0486  10.3891  10.4933  10.5749  10.6421  10.7378
    10.8658  10.9033  10.9220  11.0000  11.1342  11.1650  11.3274  11.3496
    11.3843  11.4369  11.4845  11.5778  11.6751  11.7334  11.7530  11.7955
    11.8909  11.9123  11.9459  12.0565  12.1614  12.1829  12.2537  12.3529
    12.3722  12.4410  12.4862  12.5299  12.5363  12.6112  12.7102  12.7513
    12.7898  12.8373  12.8474  12.9082  12.9266  13.0044  13.0050  13.0540
    13.0643  13.1240  13.1415  13.2133  13.2245  13.2616  13.2620  13.3010
    13.3403  13.4179  13.4286  13.4628  13.4647  13.4960  13.5497  13.5939
    13.6236  13.6511  13.6792  13.6910  13.7236  13.7782  13.7954  13.8693
    13.9198  13.9523  14.0009  14.0504  14.0992  14.1492  14.1634  14.2258
    14.2442  14.3717  14.4381  14.4727  14.5404  14.5408  14.6078  14.6244
[...]
    12.6099  12.6100  12.6481  12.6492  12.8206  12.8222  12.9635  12.9642
    13.0344  13.0346  13.0704  13.0712  13.1436  13.1445  13.1667  13.1669
    13.3057  13.3070  13.3577  13.3580  13.3952  13.3959  13.4505  13.4519
    13.5256  13.5256  13.9324  13.9327  14.0567  14.0583  14.0889  14.0891
    14.1868  14.1879  14.5333  14.5340  14.6533  14.6534  14.8025  14.8032
    14.8960  14.8969  14.9468  14.9489  15.0055  15.0065  15.0285  15.0293
    15.0619  15.0630  15.1051  15.1057  15.1221  15.1229  15.1266  15.1267
    15.2438  15.2441  15.2847  15.2857  15.2888  15.2888  15.3708  15.3709
    15.4248  15.4262  15.4270  15.4271  15.6518  15.6530  15.8374  15.8382
    15.8729  15.8735  16.0109  16.0113  16.0317  16.0331  16.8339  16.8340
    16.8410  16.8413  17.1091  17.1094  17.7746  17.7757  18.5498  18.5501
    19.1623  19.1630  19.4768  19.4788  20.5076  20.5089  20.6606  20.6610
    20.8441  20.8444  20.8550  20.8555  21.3239  21.3247  21.3749  21.3758
    22.0066  22.0069  22.8260  22.8277  23.6242  23.6259  24.0147  24.0160
    24.2253

          k =-0.5000 0.0589 0.0000 ( 17814 PWs)   bands (ev):

     8.8466   8.8499   9.3780   9.3796   9.4900   9.4920   9.5421   9.5438
     9.5820   9.5829   9.6994   9.7011   9.7682   9.7691   9.9420   9.9425
     9.9539   9.9544   9.9816   9.9837  10.1190  10.1206  10.4165  10.4179
    10.5198  10.5205  10.7243  10.7250  10.7864  10.7865  10.9238  10.9242
    10.9770  10.9789  11.0516  11.0520  11.2433  11.2450  11.2851  11.2857
    11.4627  11.4657  11.5162  11.5166  11.5731  11.5733  11.8113  11.8122
    11.9190  11.9193  11.9847  11.9853  12.1465  12.1475  12.2268  12.2271
    12.2274  12.2279  12.2779  12.2792  12.3460  12.3473  12.3655  12.3657
    12.3840  12.3855  12.4298  12.4302  12.5274  12.5275  12.5560  12.5569
    12.5599  12.5604  12.7053  12.7062  12.7684  12.7695  12.9095  12.9101
    12.9678  12.9684  13.0958  13.0967  13.1915  13.1921  13.2590  13.2593
    13.2716  13.2728  13.2938  13.2940  13.3767  13.3772  13.5586  13.5591
    13.6293  13.6304  13.9076  13.9081  14.0242  14.0247  14.0886  14.0889
    14.2097  14.2098  14.5114  14.5120  14.6315  14.6333  14.6356  14.6358
    14.7481  14.7488  14.8177  14.8185  14.9035  14.9038  14.9604  14.9611
    15.0037  15.0045  15.0952  15.0958  15.1376  15.1382  15.1684  15.1689
    15.1881  15.1887  15.2632  15.2633  15.3078  15.3081  15.3708  15.3710
    15.3863  15.3869  15.5693  15.5704  15.6291  15.6304  15.8124  15.8131
    15.9394  15.9399  16.0028  16.0028  16.0872  16.0885  16.7422  16.7423
    16.9586  16.9590  17.0539  17.0544  17.8562  17.8572  18.3019  18.3020
    19.0587  19.0589  19.5714  19.5733  20.0216  20.0224  20.8408  20.8409
    21.0476  21.0480  21.0629  21.0631  21.5047  21.5054  21.8257  21.8260
    22.0084  22.0093  22.8079  22.8090  23.6380  23.6397  24.1040  24.1056
    24.6462

          k =-0.5000 0.1179 0.0000 ( 17794 PWs)   bands (ev):

     8.9371   8.9404   9.4028   9.4044   9.5494   9.5516   9.5765   9.5783
     9.6698   9.6707   9.7791   9.7809   9.8652   9.8660   9.9874   9.9878
    10.0413  10.0416  10.1117  10.1139  10.1684  10.1700  10.4324  10.4336
    10.5890  10.5898  10.7661  10.7669  10.8363  10.8365  10.9710  10.9714
    11.0196  11.0210  11.0753  11.0758  11.2637  11.2655  11.3275  11.3282
    11.3967  11.3996  11.5084  11.5089  11.6168  11.6170  11.7722  11.7737
    11.9182  11.9185  11.9802  11.9809  12.0909  12.0913  12.1266  12.1290
    12.1388  12.1390  12.1832  12.1838  12.2045  12.2055  12.3172  12.3175
    12.3232  12.3233  12.3615  12.3629  12.4157  12.4160  12.5549  12.5562
    12.5923  12.5936  12.6876  12.6888  12.7092  12.7106  12.8365  12.8373
    12.9318  12.9324  13.0312  13.0329  13.2106  13.2117  13.2303  13.2306
    13.3733  13.3738  13.4121  13.4128  13.4311  13.4315  13.5807  13.5813
    13.7398  13.7401  13.7970  13.7978  13.9748  13.9761  14.0927  14.0932
    14.2579  14.2586  14.3152  14.3178  14.4304  14.4307  14.4975  14.4982
    14.5928  14.5929  14.6368  14.6368  14.6944  14.6946  14.7779  14.7782
    14.8483  14.8493  14.9798  14.9802  15.0033  15.0042  15.0434  15.0445
    15.1414  15.1417  15.2050  15.2055  15.2947  15.2950  15.3516  15.3521
    15.5689  15.5692  15.5787  15.5798  15.7350  15.7354  15.7425  15.7433
    16.0127  16.0130  16.1153  16.1164  16.2332  16.2338  16.5613  16.5618
    16.8973  16.8979  17.2785  17.2789  17.8749  17.8751  18.0754  18.0761
    18.6852  18.6855  19.4140  19.4147  19.8437  19.8452  20.9032  20.9034
    21.2746  21.2748  21.6329  21.6333  21.9579  21.9586  22.0582  22.0584
    22.8127  22.8128  23.0163  23.0169  23.6794  23.6811  24.6915  24.6937
    25.0175

          k =-0.5000 0.1768 0.0000 ( 17756 PWs)   bands (ev):

     9.0715   9.0746   9.4370   9.4387   9.6266   9.6282   9.6287   9.6306
     9.8080   9.8090   9.8967   9.8986  10.0108  10.0115  10.0395  10.0399
    10.1924  10.1927  10.2430  10.2445  10.3216  10.3239  10.4758  10.4768
    10.6632  10.6640  10.8419  10.8427  10.9159  10.9165  10.9886  10.9889
    11.0609  11.0611  11.1745  11.1765  11.2825  11.2838  11.2953  11.2978
    11.4080  11.4094  11.4961  11.4971  11.6653  11.6654  11.7725  11.7742
    11.8610  11.8630  11.9204  11.9209  11.9507  11.9521  12.0103  12.0106
    12.0332  12.0335  12.0400  12.0408  12.1252  12.1256  12.1885  12.1888
    12.2570  12.2572  12.3422  12.3428  12.3731  12.3746  12.4151  12.4156
    12.5464  12.5472  12.6234  12.6253  12.7527  12.7531  12.8077  12.8079
    12.9670  12.9674  13.0652  13.0662  13.1457  13.1464  13.1532  13.1538
    13.4029  13.4038  13.4542  13.4543  13.5026  13.5032  13.5726  13.5735
    13.5813  13.5821  13.6416  13.6420  14.0275  14.0282  14.0304  14.0310
    14.0631  14.0656  14.2029  14.2032  14.2063  14.2069  14.3125  14.3125
    14.4637  14.4645  14.4829  14.4832  14.5919  14.5924  14.6546  14.6547
    14.7177  14.7186  14.7769  14.7774  14.8781  14.8788  14.9609  14.9618
    14.9697  14.9707  15.0080  15.0081  15.2802  15.2807  15.4480  15.4482
    15.5340  15.5351  15.6636  15.6643  15.7826  15.7829  15.8306  15.8310
    16.0316  16.0325  16.3162  16.3170  16.3784  16.3791  16.5168  16.5169
    16.6955  16.6961  17.4841  17.4843  17.7256  17.7259  18.2462  18.2466
    18.3811  18.3816  18.8649  18.8656  20.2645  20.2655  20.4834  20.4839
    21.1770  21.1774  22.2534  22.2536  22.7036  22.7041  22.9701  22.9702
    23.4777  23.4779  23.6937  23.6938  23.7485  23.7501  24.9733  24.9756
    25.2551

          k =-0.5000 0.2357 0.0000 ( 17778 PWs)   bands (ev):

     9.2235   9.2266   9.4685   9.4705   9.6816   9.6839   9.7006   9.7033
     9.9838   9.9848  10.0284  10.0302  10.1021  10.1024  10.1791  10.1797
    10.3271  10.3285  10.3701  10.3702  10.5348  10.5355  10.5933  10.5957
    10.7155  10.7162  10.8713  10.8726  10.9887  10.9904  11.0100  11.0112
    11.1913  11.1926  11.2110  11.2120  11.2541  11.2579  11.3089  11.3099
    11.4805  11.4830  11.5261  11.5274  11.6192  11.6193  11.7178  11.7196
    11.8127  11.8136  11.8587  11.8590  11.8723  11.8739  11.9194  11.9197
    11.9431  11.9436  11.9598  11.9600  12.0518  12.0526  12.0546  12.0551
    12.1138  12.1140  12.2622  12.2626  12.2770  12.2781  12.4346  12.4355
    12.5192  12.5195  12.5577  12.5580  12.6412  12.6426  12.9206  12.9214
    12.9441  12.9448  12.9916  12.9919  13.0437  13.0442  13.1491  13.1493
    13.2561  13.2569  13.2851  13.2854  13.3266  13.3267  13.5107  13.5113
    13.6029  13.6032  13.7195  13.7202  13.7623  13.7625  13.9743  13.9749
    14.0041  14.0054  14.0821  14.0824  14.1064  14.1066  14.1528  14.1534
    14.2853  14.2866  14.3170  14.3179  14.5466  14.5472  14.5834  14.5842
    14.5891  14.5898  14.7071  14.7077  14.7449  14.7452  14.7970  14.7976
    14.9463  14.9470  14.9569  14.9571  15.2496  15.2502  15.5088  15.5098
    15.5460  15.5461  15.6193  15.6200  15.8659  15.8666  15.9567  15.9576
    16.1121  16.1127  16.2127  16.2137  16.4855  16.4860  16.5659  16.5662
    16.8543  16.8545  17.1521  17.1523  17.8454  17.8458  18.2367  18.2369
    18.3877  18.3883  18.7329  18.7333  20.0702  20.0707  20.6468  20.6473
    20.7972  20.7979  23.2059  23.2067  23.2621  23.2624  23.8012  23.8013
    23.8450  23.8467  24.0166  24.0167  24.2982  24.2989  25.3573  25.3592
    25.8154

          k =-0.5000 0.2946 0.0000 ( 17762 PWs)   bands (ev):

     9.3589   9.3617   9.4793   9.4815   9.7278   9.7305   9.7446   9.7475
    10.1329  10.1343  10.1583  10.1588  10.1817  10.1824  10.3353  10.3355
    10.3863  10.3873  10.5344  10.5344  10.5521  10.5530  10.7112  10.7118
    10.8139  10.8154  10.8618  10.8639  11.0531  11.0534  11.1215  11.1233
    11.1847  11.1856  11.2573  11.2591  11.3485  11.3490  11.3493  11.3512
    11.4760  11.4796  11.5422  11.5430  11.6237  11.6243  11.6696  11.6697
    11.7263  11.7270  11.7747  11.7755  11.7867  11.7870  11.8392  11.8396
    11.8782  11.8790  11.9704  11.9709  12.0023  12.0029  12.0509  12.0513
    12.0751  12.0766  12.2089  12.2096  12.2101  12.2106  12.3293  12.3295
    12.4388  12.4394  12.5133  12.5137  12.6458  12.6468  12.6475  12.6483
    12.7458  12.7469  12.8672  12.8673  12.9751  12.9754  13.0611  13.0620
    13.2845  13.2847  13.3101  13.3104  13.4283  13.4285  13.4778  13.4786
    13.5976  13.5981  13.6223  13.6227  13.7775  13.7775  13.8060  13.8062
    13.8457  13.8458  14.0021  14.0023  14.0196  14.0200  14.0892  14.0901
    14.1459  14.1465  14.2336  14.2350  14.3715  14.3719  14.4088  14.4095
    14.6134  14.6140  14.6472  14.6477  14.7438  14.7444  14.8120  14.8126
    14.9309  14.9313  14.9441  14.9444  15.2941  15.2945  15.4746  15.4754
    15.6194  15.6201  15.6216  15.6220  15.9124  15.9130  16.0058  16.0068
    16.0756  16.0767  16.2809  16.2814  16.3328  16.3331  16.8532  16.8533
    16.8595  16.8597  17.2086  17.2088  17.4887  17.4890  17.9648  17.9653
    18.7656  18.7656  19.1171  19.1175  19.6744  19.6749  20.0869  20.0873
    21.4063  21.4067  22.7018  22.7023  23.9679  23.9695  24.2211  24.2221
    24.3720  24.3722  24.9200  24.9203  25.1770  25.1774  26.1951  26.1963
    26.6213

          k =-0.5000-0.3536 0.0000 ( 17712 PWs)   bands (ev):

     9.4473   9.4473   9.4498   9.4498   9.7522   9.7522   9.7551   9.7551
    10.1787  10.1787  10.1796  10.1796  10.3493  10.3493  10.3498  10.3498
    10.4552  10.4552  10.4564  10.4564  10.6477  10.6477  10.6479  10.6479
    10.8725  10.8725  10.8740  10.8740  11.1571  11.1571  11.1586  11.1586
    11.2466  11.2466  11.2481  11.2481  11.3873  11.3873  11.3902  11.3902
    11.4596  11.4596  11.4606  11.4606  11.6619  11.6619  11.6627  11.6627
    11.7006  11.7006  11.7009  11.7009  11.7754  11.7754  11.7756  11.7756
    11.9136  11.9136  11.9142  11.9142  12.0458  12.0458  12.0461  12.0461
    12.1478  12.1478  12.1485  12.1485  12.2822  12.2822  12.2824  12.2824
    12.3352  12.3352  12.3370  12.3370  12.5533  12.5533  12.5538  12.5538
    12.8003  12.8003  12.8015  12.8015  12.9356  12.9356  12.9362  12.9362
    13.4021  13.4021  13.4028  13.4028  13.5344  13.5344  13.5346  13.5346
    13.5930  13.5930  13.5931  13.5931  13.6248  13.6248  13.6250  13.6250
    13.8968  13.8968  13.8973  13.8973  13.9929  13.9929  13.9931  13.9931
    14.2167  14.2167  14.2173  14.2173  14.2929  14.2929  14.2939  14.2939
    14.6410  14.6410  14.6413  14.6413  14.7703  14.7703  14.7711  14.7711
    14.9390  14.9390  14.9393  14.9393  15.3960  15.3960  15.3965  15.3965
    15.6364  15.6364  15.6371  15.6371  15.9826  15.9826  15.9837  15.9837
    16.1034  16.1034  16.1039  16.1039  16.5886  16.5886  16.5888  16.5888
    17.1613  17.1613  17.1616  17.1616  17.5764  17.5764  17.5768  17.5768
    19.2556  19.2556  19.2559  19.2559  19.5609  19.5609  19.5613  19.5613
    22.0564  22.0564  22.0567  22.0567  24.1093  24.1093  24.1108  24.1108
    25.5380  25.5380  25.5383  25.5383  26.0423  26.0423  26.0429  26.0429
    26.3393

     the Fermi energy is    18.2801 ev

!    total energy              =  -21704.13855696 Ry

     total all-electron energy =  -1064671.829106 Ry
     estimated scf accuracy    <          1.5E-09 Ry
     smearing contrib. (-TS)   =      -3.22810291 Ry
     internal energy E=F+TS    =  -21700.91045405 Ry

     The total energy is F=E-TS. E is the sum of the following terms:
     one-electron contribution =     407.26881707 Ry
     hartree contribution      =     219.93152806 Ry
     xc contribution           =    -901.70211525 Ry
     ewald contribution        =   -2034.85132511 Ry
     one-center paw contrib.   =  -19391.55735882 Ry

     convergence has been achieved in  11 iterations

     Forces acting on atoms (cartesian axes, Ry/au):

     atom    1 type  1   force =     0.01727008   -0.00000011    0.00055043
     atom    2 type  1   force =     0.01727009    0.00000010    0.00055032
     atom    3 type  1   force =    -0.00216498    0.00000002    0.00020232
     atom    4 type  1   force =    -0.00216496    0.00000002    0.00020241
     atom    5 type  1   force =     0.00040900   -0.00000003    0.00035032
     atom    6 type  1   force =     0.00040904   -0.00000003    0.00035043
     atom    7 type  1   force =     0.00011169    0.00000001   -0.00097001
     atom    8 type  1   force =     0.00011170   -0.00000003   -0.00097015
     atom    9 type  1   force =     0.00011129   -0.00000003    0.00079609
     atom   10 type  1   force =     0.00011127    0.00000008    0.00079605
     atom   11 type  1   force =     0.00040806    0.00000002   -0.00010813
     atom   12 type  1   force =     0.00040807    0.00000003   -0.00010787
     atom   13 type  1   force =    -0.00216085   -0.00000007    0.00023424
     atom   14 type  1   force =    -0.00216083    0.00000007    0.00023420
     atom   15 type  1   force =     0.01724510   -0.00000005   -0.00074305
     atom   16 type  1   force =     0.01724507    0.00000009   -0.00074301
     atom   17 type  1   force =    -0.01748951   -0.00000005    0.00065372
     atom   18 type  1   force =    -0.01748958   -0.00000005    0.00065355
     atom   19 type  1   force =     0.00244395    0.00000009   -0.00015083
     atom   20 type  1   force =     0.00244389   -0.00000003   -0.00015070
     atom   21 type  1   force =    -0.00055754   -0.00000003   -0.00090118
     atom   22 type  1   force =    -0.00055753    0.00000006   -0.00090117
     atom   23 type  1   force =    -0.00056070   -0.00000002    0.00033815
     atom   24 type  1   force =    -0.00056073   -0.00000005    0.00033822
     atom   25 type  1   force =     0.00244983    0.00000001    0.00000368
     atom   26 type  1   force =     0.00244982   -0.00000003    0.00000364
     atom   27 type  1   force =    -0.01751538    0.00000012   -0.00025582
     atom   28 type  1   force =    -0.01751538   -0.00000010   -0.00025585

     Total force =     0.002864     Total SCF correction =     0.000145
     Energy error            =      1.5E-05 Ry
     Gradient error          =      9.7E-04 Ry/Bohr

     bfgs converged in  22 scf cycles and  21 bfgs steps
     (criteria: energy <  1.0E-04 Ry, force <  1.0E-03 Ry/Bohr)

     End of BFGS Geometry Optimization

     Final energy             =  -21704.1385569604 Ry

     File ./pwscf.bfgs deleted, as requested
Begin final coordinates

ATOMIC_POSITIONS (angstrom)
Au            2.0400000000        1.4424978336        1.0102574255    0   0   1
Au            2.0400000000        4.3274935009        1.0102575391    0   0   1
Au            0.0000000000        0.0000000000        1.9139381234    0   0   1
Au            0.0000000000        2.8849956672        1.9139378598    0   0   1
Au            2.0400000000        1.4424978336        3.5242098403    0   0   1
Au            2.0400000000        4.3274935009        3.5242099143    0   0   1
Au            0.0000000000        0.0000000000        4.6038456079    0   0   1
Au            0.0000000000        2.8849956672        4.6038453960    0   0   1
Au            2.0400000000        1.4424978336        6.1110172430    0   0   1
Au            2.0400000000        4.3274935009        6.1110174419    0   0   1
Au            0.0000000000        0.0000000000        7.1908190337    0   0   1
Au            0.0000000000        2.8849956672        7.1908187901    0   0   1
Au            2.0400000000        1.4424978336        8.7999286767    0   0   1
Au            2.0400000000        4.3274935009        8.7999289172    0   0   1
Au            0.0000000000        0.0000000000        9.7054477233    0   0   1
Au            0.0000000000        2.8849956672        9.7054476286    0   0   1
Au            3.8760000000        1.4424978336       11.7588639143    0   0   1
Au            3.8760000000        4.3274935009       11.7588640243    0   0   1
Au            1.8360000000        0.0000000000       12.5353268953    0   0   1
Au            1.8360000000        2.8849956672       12.5353263781    0   0   1
Au            3.8760000000        1.4424978336       14.2850121430    0   0   1
Au            3.8760000000        4.3274935009       14.2850124005    0   0   1
Au            1.8360000000        0.0000000000       15.1846010615    0   0   1
Au            1.8360000000        2.8849956672       15.1846008904    0   0   1
Au            3.8760000000        1.4424978336       16.9345315292    0   0   1
Au            3.8760000000        4.3274935009       16.9345320214    0   0   1
Au            1.8360000000        0.0000000000       17.7095036805    0   0   1
Au            1.8360000000        2.8849956672       17.7095036194    0   0   1
End final coordinates



     Writing all to output data dir ./pwscf.save/
 
     init_run     :     17.73s CPU     18.36s WALL (       1 calls)
     electrons    :  21470.94s CPU  21633.85s WALL (      22 calls)
     update_pot   :      8.33s CPU      8.41s WALL (      21 calls)
     forces       :    160.25s CPU    161.12s WALL (      22 calls)

     Called by init_run:
     wfcinit      :     17.16s CPU     17.46s WALL (       1 calls)
     potinit      :      0.35s CPU      0.49s WALL (       1 calls)
     hinit0       :      0.12s CPU      0.27s WALL (       1 calls)

     Called by electrons:
     c_bands      :  19711.19s CPU  19851.89s WALL (     374 calls)
     sum_band     :   1647.68s CPU   1663.17s WALL (     374 calls)
     v_of_rho     :      8.89s CPU     10.90s WALL (     389 calls)
     newd         :     17.29s CPU     20.11s WALL (     389 calls)
     PAW_pot      :     94.44s CPU     94.89s WALL (     410 calls)
     mix_rho      :      1.45s CPU      1.55s WALL (     374 calls)

     Called by c_bands:
     init_us_2    :     52.37s CPU     53.10s WALL (   39600 calls)
     init_us_2:cp :     52.28s CPU     53.04s WALL (   39600 calls)
     cegterg      :  19032.10s CPU  19167.96s WALL (   18918 calls)

     Called by *egterg:
     cdiaghg      :   2401.00s CPU   2431.64s WALL (   92901 calls)
     h_psi        :   9115.53s CPU   9184.31s WALL (   94568 calls)
     s_psi        :   1527.49s CPU   1533.61s WALL (   94568 calls)
     g_psi        :     32.29s CPU     32.48s WALL (   75600 calls)

     Called by h_psi:
     h_psi:calbec :   1750.32s CPU   1757.45s WALL (   94568 calls)
     vloc_psi     :   5807.45s CPU   5861.46s WALL (   94568 calls)
     add_vuspsi   :   1538.53s CPU   1545.01s WALL (   94568 calls)

     General routines
     calbec       :   2464.91s CPU   2474.82s WALL (  118718 calls)
     fft          :      9.37s CPU     12.09s WALL (    5283 calls)
     ffts         :      0.65s CPU      0.80s WALL (     763 calls)
     fftw         :   6444.87s CPU   6503.83s WALL (24355190 calls)
     interpolate  :      1.14s CPU      1.40s WALL (     389 calls)
 
     Parallel routines
 
     PWSCF        :      6h 1m CPU      6h 4m WALL

 
   This run was terminated on:  19:26:40  19Mar2024            

=------------------------------------------------------------------------------=
   JOB DONE.
=------------------------------------------------------------------------------=
