MPI startup(): Warning: I_MPI_PMI_LIBRARY will be ignored since the hydra process manager was found
MPI startup(): Warning: I_MPI_PMI_LIBRARY will be ignored since the hydra process manager was found
MPI startup(): Warning: I_MPI_PMI_LIBRARY will be ignored since the hydra process manager was found
MPI startup(): Warning: I_MPI_PMI_LIBRARY will be ignored since the hydra process manager was found
MPI startup(): Warning: I_MPI_PMI_LIBRARY will be ignored since the hydra process manager was found
MPI startup(): Warning: I_MPI_PMI_LIBRARY will be ignored since the hydra process manager was found
MPI startup(): Warning: I_MPI_PMI_LIBRARY will be ignored since the hydra process manager was found
MPI startup(): Warning: I_MPI_PMI_LIBRARY will be ignored since the hydra process manager was found
MPI startup(): Warning: I_MPI_PMI_LIBRARY will be ignored since the hydra process manager was found
MPI startup(): Warning: I_MPI_PMI_LIBRARY will be ignored since the hydra process manager was found

     Program PWSCF v.7.0 starts on  2Mar2024 at 10: 6:32 

     This program is part of the open-source Quantum ESPRESSO suite
     for quantum simulation of materials; please cite
         "P. Giannozzi et al., J. Phys.:Condens. Matter 21 395502 (2009);
         "P. Giannozzi et al., J. Phys.:Condens. Matter 29 465901 (2017);
         "P. Giannozzi et al., J. Chem. Phys. 152 154105 (2020);
          URL http://www.quantum-espresso.org", 
     in publications or presentations arising from this work. More details at
     http://www.quantum-espresso.org/quote

     Parallel version (MPI), running on    10 processors

     MPI processes distributed on     1 nodes
     R & G space division:  proc/nbgrp/npool/nimage =      10
     115215 MiB available memory on the printing compute node when the environment starts
 
     Reading input from GSF110_0.45.in
Warning: card &CELL ignored
Warning: card / ignored

     Current dimensions of program PWSCF are:
     Max number of different atomic species (ntypx) = 10
     Max number of k-points (npk) =  40000
     Max angular momentum in pseudopotentials (lmaxx) =  4

     File ./pwscf.bfgs deleted, as requested
     file Au.pbe-n-kjpaw_psl.1.0.0.UPF: wavefunction(s)  6S 5D renormalized
     Found identity + (  0.0000 -0.5000  0.0000) symmetry
     This is a supercell, fractional translations are disabled
     Message from routine setup:
     using ibrav=0 with symmetry is DISCOURAGED, use correct ibrav instead

     Subspace diagonalization in iterative solution of the eigenvalue problem:
     one sub-group per band group will be used
     scalapack distributed-memory algorithm (size of sub-group:  3*  3 procs)

 
     Parallelization info
     --------------------
     sticks:   dense  smooth     PW     G-vecs:    dense   smooth      PW
     Min         133     133     38                14227    14227    2178
     Max         134     134     39                14242    14242    2183
     Sum        1339    1339    389               142317   142317   21821
 
     Using Slab Decomposition
 


     bravais-lattice index     =            0
     lattice parameter (alat)  =       7.7101  a.u.
     unit-cell volume          =    2979.1368 (a.u.)^3
     number of atoms/cell      =           28
     number of atomic types    =            1
     number of electrons       =       308.00
     number of Kohn-Sham states=          185
     kinetic-energy cutoff     =      50.0000  Ry
     charge density cutoff     =     200.0000  Ry
     scf convergence threshold =      1.0E-06
     mixing beta               =       0.1000
     number of iterations used =            8  plain     mixing
     Exchange-correlation= SLA  PW   PBX  PBC
                           (   1   4   3   4   0   0   0)

     celldm(1)=   7.710083  celldm(2)=   0.000000  celldm(3)=   0.000000
     celldm(4)=   0.000000  celldm(5)=   0.000000  celldm(6)=   0.000000

     crystal axes: (cart. coord. in units of alat)
               a(1) = (   1.000000   0.000000   0.000000 )  
               a(2) = (   0.000000   1.414214   0.000000 )  
               a(3) = (   0.000000   0.000000   4.596194 )  

     reciprocal axes: (cart. coord. in units 2 pi/alat)
               b(1) = (  1.000000  0.000000  0.000000 )  
               b(2) = (  0.000000  0.707107  0.000000 )  
               b(3) = (  0.000000  0.000000  0.217571 )  


     PseudoPot. # 1 for Au read from file:
     ./Au.pbe-n-kjpaw_psl.1.0.0.UPF
     MD5 check sum: 4db85c736373c707a97ce4c36c2a9d23
     Pseudo is Projector augmented-wave + core cor, Zval = 11.0
     Generated using &quot;atomic&quot; code by A. Dal Corso  v.6.3
     Shape of augmentation charge: PSQ
     Using radial grid of 1279 points,  6 beta functions with: 
                l(1) =   0
                l(2) =   0
                l(3) =   1
                l(4) =   1
                l(5) =   2
                l(6) =   2
     Q(r) pseudized with 0 coefficients 


     atomic species   valence    mass     pseudopotential
        Au            11.00   196.96657     Au( 1.00)

      2 Sym. Ops. (no inversion) found



   Cartesian axes

     site n.     atom                  positions (alat units)
         1           Au  tau(   1) = (   0.5000000   0.3535534   0.0000000  )
         2           Au  tau(   2) = (   0.5000000   1.0606602   0.0000000  )
         3           Au  tau(   3) = (   0.0000000   0.0000000   0.3535534  )
         4           Au  tau(   4) = (   0.0000000   0.7071068   0.3535534  )
         5           Au  tau(   5) = (   0.5000000   0.3535534   0.7071068  )
         6           Au  tau(   6) = (   0.5000000   1.0606602   0.7071068  )
         7           Au  tau(   7) = (   0.0000000   0.0000000   1.0606602  )
         8           Au  tau(   8) = (   0.0000000   0.7071068   1.0606602  )
         9           Au  tau(   9) = (   0.5000000   0.3535534   1.4142136  )
        10           Au  tau(  10) = (   0.5000000   1.0606602   1.4142136  )
        11           Au  tau(  11) = (   0.0000000   0.0000000   1.7677670  )
        12           Au  tau(  12) = (   0.0000000   0.7071068   1.7677670  )
        13           Au  tau(  13) = (   0.5000000   0.3535534   2.1213203  )
        14           Au  tau(  14) = (   0.5000000   1.0606602   2.1213203  )
        15           Au  tau(  15) = (   0.0000000   0.0000000   2.4748737  )
        16           Au  tau(  16) = (   0.0000000   0.7071068   2.4748737  )
        17           Au  tau(  17) = (   0.9500000   0.3535534   2.8284271  )
        18           Au  tau(  18) = (   0.9500000   1.0606602   2.8284271  )
        19           Au  tau(  19) = (   0.4500000   0.0000000   3.1819805  )
        20           Au  tau(  20) = (   0.4500000   0.7071068   3.1819805  )
        21           Au  tau(  21) = (   0.9500000   0.3535534   3.5355339  )
        22           Au  tau(  22) = (   0.9500000   1.0606602   3.5355339  )
        23           Au  tau(  23) = (   0.4500000   0.0000000   3.8890873  )
        24           Au  tau(  24) = (   0.4500000   0.7071068   3.8890873  )
        25           Au  tau(  25) = (   0.9500000   0.3535534   4.2426407  )
        26           Au  tau(  26) = (   0.9500000   1.0606602   4.2426407  )
        27           Au  tau(  27) = (   0.4500000   0.0000000   4.5961941  )
        28           Au  tau(  28) = (   0.4500000   0.7071068   4.5961941  )

     number of k points=    35  Gaussian smearing, width (Ry)=  0.0200
                       cart. coord. in units 2pi/alat
        k(    1) = (   0.0000000   0.0000000   0.0000000), wk =   0.0208333
        k(    2) = (   0.0000000   0.0589256   0.0000000), wk =   0.0416667
        k(    3) = (   0.0000000   0.1178511   0.0000000), wk =   0.0416667
        k(    4) = (   0.0000000   0.1767767   0.0000000), wk =   0.0416667
        k(    5) = (   0.0000000   0.2357023   0.0000000), wk =   0.0416667
        k(    6) = (   0.0000000   0.2946278   0.0000000), wk =   0.0416667
        k(    7) = (   0.0000000  -0.3535534   0.0000000), wk =   0.0208333
        k(    8) = (   0.1250000   0.0000000   0.0000000), wk =   0.0416667
        k(    9) = (   0.1250000   0.0589256   0.0000000), wk =   0.0833333
        k(   10) = (   0.1250000   0.1178511   0.0000000), wk =   0.0833333
        k(   11) = (   0.1250000   0.1767767   0.0000000), wk =   0.0833333
        k(   12) = (   0.1250000   0.2357023   0.0000000), wk =   0.0833333
        k(   13) = (   0.1250000   0.2946278   0.0000000), wk =   0.0833333
        k(   14) = (   0.1250000  -0.3535534   0.0000000), wk =   0.0416667
        k(   15) = (   0.2500000   0.0000000   0.0000000), wk =   0.0416667
        k(   16) = (   0.2500000   0.0589256   0.0000000), wk =   0.0833333
        k(   17) = (   0.2500000   0.1178511   0.0000000), wk =   0.0833333
        k(   18) = (   0.2500000   0.1767767   0.0000000), wk =   0.0833333
        k(   19) = (   0.2500000   0.2357023   0.0000000), wk =   0.0833333
        k(   20) = (   0.2500000   0.2946278   0.0000000), wk =   0.0833333
        k(   21) = (   0.2500000  -0.3535534   0.0000000), wk =   0.0416667
        k(   22) = (   0.3750000   0.0000000   0.0000000), wk =   0.0416667
        k(   23) = (   0.3750000   0.0589256   0.0000000), wk =   0.0833333
        k(   24) = (   0.3750000   0.1178511   0.0000000), wk =   0.0833333
        k(   25) = (   0.3750000   0.1767767   0.0000000), wk =   0.0833333
        k(   26) = (   0.3750000   0.2357023   0.0000000), wk =   0.0833333
        k(   27) = (   0.3750000   0.2946278   0.0000000), wk =   0.0833333
        k(   28) = (   0.3750000  -0.3535534   0.0000000), wk =   0.0416667
        k(   29) = (  -0.5000000   0.0000000   0.0000000), wk =   0.0208333
        k(   30) = (  -0.5000000   0.0589256   0.0000000), wk =   0.0416667
        k(   31) = (  -0.5000000   0.1178511   0.0000000), wk =   0.0416667
        k(   32) = (  -0.5000000   0.1767767   0.0000000), wk =   0.0416667
        k(   33) = (  -0.5000000   0.2357023   0.0000000), wk =   0.0416667
        k(   34) = (  -0.5000000   0.2946278   0.0000000), wk =   0.0416667
        k(   35) = (  -0.5000000  -0.3535534   0.0000000), wk =   0.0208333

     Dense  grid:   142317 G-vectors     FFT dimensions: (  36,  50, 160)

     Estimated max dynamical RAM per process >     261.85 MB

     Estimated total dynamical RAM >       2.56 GB

     Initial potential from superposition of free atoms

     starting charge     307.9969, renormalised to     308.0000
     Starting wfcs are  252 randomized atomic wfcs
     Checking if some PAW data can be deallocated... 

     total cpu time spent up to now is       15.9 secs

     Self-consistent Calculation

     iteration #  1     ecut=    50.00 Ry     beta= 0.10
     Davidson diagonalization with overlap
     ethr =  1.00E-02,  avg # of iterations =  4.8

     total cpu time spent up to now is       60.9 secs

     total energy              =  -21684.45003346 Ry
     estimated scf accuracy    <      18.50995206 Ry

     iteration #  2     ecut=    50.00 Ry     beta= 0.10
     Davidson diagonalization with overlap
     ethr =  6.01E-03,  avg # of iterations =  2.8

     total cpu time spent up to now is       96.2 secs

     total energy              =  -21682.70700652 Ry
     estimated scf accuracy    <     155.82651673 Ry

     iteration #  3     ecut=    50.00 Ry     beta= 0.10
     Davidson diagonalization with overlap
     ethr =  6.01E-03,  avg # of iterations =  1.1

     total cpu time spent up to now is      125.4 secs

     total energy              =  -21686.84503919 Ry
     estimated scf accuracy    <       3.47411088 Ry

     iteration #  4     ecut=    50.00 Ry     beta= 0.10
     Davidson diagonalization with overlap
     ethr =  1.13E-03,  avg # of iterations =  3.0

     total cpu time spent up to now is      160.3 secs

     total energy              =  -21686.88178993 Ry
     estimated scf accuracy    <       1.80644590 Ry

     iteration #  5     ecut=    50.00 Ry     beta= 0.10
     Davidson diagonalization with overlap
     ethr =  5.87E-04,  avg # of iterations =  4.8

     total cpu time spent up to now is      196.8 secs

     total energy              =  -21686.77343335 Ry
     estimated scf accuracy    <       0.99205337 Ry

     iteration #  6     ecut=    50.00 Ry     beta= 0.10
     Davidson diagonalization with overlap
     ethr =  3.22E-04,  avg # of iterations =  7.2

     negative rho (up, down):  2.933E-03 0.000E+00

     total cpu time spent up to now is      239.3 secs

     total energy              =  -21686.84942605 Ry
     estimated scf accuracy    <       0.41457060 Ry

     iteration #  7     ecut=    50.00 Ry     beta= 0.10
     Davidson diagonalization with overlap
     c_bands:  4 eigenvalues not converged
     ethr =  1.35E-04,  avg # of iterations =  8.8

     negative rho (up, down):  9.677E-03 0.000E+00

     total cpu time spent up to now is      285.6 secs

     total energy              =  -21686.91479640 Ry
     estimated scf accuracy    <       0.37689396 Ry

     iteration #  8     ecut=    50.00 Ry     beta= 0.10
     Davidson diagonalization with overlap
     ethr =  1.22E-04,  avg # of iterations =  1.3

     negative rho (up, down):  1.481E-02 0.000E+00

     total cpu time spent up to now is      315.1 secs

     total energy              =  -21686.92827310 Ry
     estimated scf accuracy    <       0.08003919 Ry

     iteration #  9     ecut=    50.00 Ry     beta= 0.10
     Davidson diagonalization with overlap
     c_bands:  1 eigenvalues not converged
     c_bands:  1 eigenvalues not converged
     c_bands:  1 eigenvalues not converged
     ethr =  2.60E-05,  avg # of iterations =  9.7

     negative rho (up, down):  3.699E-02 0.000E+00

     total cpu time spent up to now is      367.9 secs

     total energy              =  -21686.94186059 Ry
     estimated scf accuracy    <       0.02405759 Ry

     iteration # 10     ecut=    50.00 Ry     beta= 0.10
     Davidson diagonalization with overlap
     c_bands:  1 eigenvalues not converged
     c_bands:  1 eigenvalues not converged
     c_bands:  1 eigenvalues not converged
     c_bands:  1 eigenvalues not converged
     ethr =  7.81E-06,  avg # of iterations =  9.7

     negative rho (up, down):  5.332E-02 0.000E+00

     total cpu time spent up to now is      425.9 secs

     total energy              =  -21686.94810422 Ry
     estimated scf accuracy    <       0.05459373 Ry

     iteration # 11     ecut=    50.00 Ry     beta= 0.10
     Davidson diagonalization with overlap
     ethr =  7.81E-06,  avg # of iterations =  2.5

     negative rho (up, down):  6.337E-02 0.000E+00

     total cpu time spent up to now is      460.0 secs

     total energy              =  -21686.95009372 Ry
     estimated scf accuracy    <       0.00406661 Ry

     iteration # 12     ecut=    50.00 Ry     beta= 0.10
     Davidson diagonalization with overlap
     c_bands:  1 eigenvalues not converged
     c_bands:  1 eigenvalues not converged
     ethr =  1.32E-06,  avg # of iterations =  8.0

     negative rho (up, down):  7.314E-02 0.000E+00

     total cpu time spent up to now is      516.3 secs

     total energy              =  -21686.95155745 Ry
     estimated scf accuracy    <       0.00104496 Ry

     iteration # 13     ecut=    50.00 Ry     beta= 0.10
     Davidson diagonalization with overlap
     ethr =  3.39E-07,  avg # of iterations =  5.2

     negative rho (up, down):  7.314E-02 0.000E+00

     total cpu time spent up to now is      568.0 secs

     total energy              =  -21686.95156262 Ry
     estimated scf accuracy    <       0.00059353 Ry

     iteration # 14     ecut=    50.00 Ry     beta= 0.10
     Davidson diagonalization with overlap
     ethr =  1.93E-07,  avg # of iterations =  4.1

     negative rho (up, down):  7.807E-02 0.000E+00

     total cpu time spent up to now is      613.0 secs

     total energy              =  -21686.95168871 Ry
     estimated scf accuracy    <       0.00059381 Ry

     iteration # 15     ecut=    50.00 Ry     beta= 0.10
     Davidson diagonalization with overlap
     ethr =  1.93E-07,  avg # of iterations =  1.5

     negative rho (up, down):  8.447E-02 0.000E+00

     total cpu time spent up to now is      643.9 secs

     total energy              =  -21686.95165460 Ry
     estimated scf accuracy    <       0.00041874 Ry

     iteration # 16     ecut=    50.00 Ry     beta= 0.10
     Davidson diagonalization with overlap
     ethr =  1.36E-07,  avg # of iterations =  3.5

     negative rho (up, down):  8.633E-02 0.000E+00

     total cpu time spent up to now is      679.0 secs

     total energy              =  -21686.95167959 Ry
     estimated scf accuracy    <       0.00010784 Ry

     iteration # 17     ecut=    50.00 Ry     beta= 0.10
     Davidson diagonalization with overlap
     ethr =  3.50E-08,  avg # of iterations =  5.9

     negative rho (up, down):  8.837E-02 0.000E+00

     total cpu time spent up to now is      720.2 secs

     total energy              =  -21686.95170100 Ry
     estimated scf accuracy    <       0.00004348 Ry

     iteration # 18     ecut=    50.00 Ry     beta= 0.10
     Davidson diagonalization with overlap
     ethr =  1.41E-08,  avg # of iterations =  4.5

     negative rho (up, down):  9.173E-02 0.000E+00

     total cpu time spent up to now is      758.5 secs

     total energy              =  -21686.95170414 Ry
     estimated scf accuracy    <       0.00002454 Ry

     iteration # 19     ecut=    50.00 Ry     beta= 0.10
     Davidson diagonalization with overlap
     ethr =  7.97E-09,  avg # of iterations =  6.1

     negative rho (up, down):  9.290E-02 0.000E+00

     total cpu time spent up to now is      803.5 secs

     total energy              =  -21686.95171074 Ry
     estimated scf accuracy    <       0.00000860 Ry

     iteration # 20     ecut=    50.00 Ry     beta= 0.10
     Davidson diagonalization with overlap
     ethr =  2.79E-09,  avg # of iterations =  5.3

     negative rho (up, down):  9.378E-02 0.000E+00

     total cpu time spent up to now is      848.7 secs

     total energy              =  -21686.95171371 Ry
     estimated scf accuracy    <       0.00000472 Ry

     iteration # 21     ecut=    50.00 Ry     beta= 0.10
     Davidson diagonalization with overlap
     ethr =  1.53E-09,  avg # of iterations =  5.8

     negative rho (up, down):  9.411E-02 0.000E+00

     total cpu time spent up to now is      889.4 secs

     total energy              =  -21686.95171489 Ry
     estimated scf accuracy    <       0.00000199 Ry

     iteration # 22     ecut=    50.00 Ry     beta= 0.10
     Davidson diagonalization with overlap
     ethr =  6.45E-10,  avg # of iterations =  3.4

     negative rho (up, down):  9.460E-02 0.000E+00

     total cpu time spent up to now is      928.0 secs

     End of self-consistent calculation

          k = 0.0000 0.0000 0.0000 ( 17807 PWs)   bands (ev):

   -10.2234  -9.4927  -9.3864  -4.1158  -4.1154  -0.4318  -0.4308   0.5434
     0.6184   3.9484   4.1947   4.1976   5.1218   5.1239   7.0995   7.1011
     7.8308   7.9227   8.0819   8.1780   8.6531   9.0435   9.2686   9.6353
     9.9761   9.9832  10.0121  10.2066  10.2067  10.4350  10.6634  10.6837
    10.6873  11.0111  11.0538  11.0607  11.1391  11.2574  11.2730  11.3134
    11.3807  11.4695  11.4958  11.5819  11.7133  11.7334  11.7613  11.7797
    11.8885  11.9034  11.9450  11.9742  12.0900  12.0976  12.1028  12.1434
    12.1925  12.2275  12.2725  12.3317  12.4180  12.5166  12.6283  12.6441
    12.6749  12.6788  12.7694  12.8184  12.8443  12.8948  12.9460  13.0451
    13.0472  13.0955  13.1891  13.2313  13.2344  13.2973  13.3649  13.4143
    13.4330  13.4378  13.5196  13.6031  13.6585  13.7086  13.7176  13.8019
    13.8223  13.8745  13.9441  14.0176  14.0938  14.1273  14.2103  14.3551
    14.3700  14.3963  14.4281  14.5098  14.5290  14.7131  14.7511  14.7540
    14.7938  14.8888  14.9098  14.9422  14.9450  14.9455  15.0176  15.0495
    15.0940  15.1974  15.2168  15.2264  15.2975  15.3544  15.4381  15.4593
    15.5132  15.5554  15.6702  15.6821  15.7022  15.8176  15.8332  15.8458
    15.8499  15.9225  15.9240  16.0670  16.0688  16.1490  16.2051  16.2539
    16.3007  16.3599  16.4043  16.5018  16.6292  16.8007  16.8125  17.2205
    17.4880  17.5084  17.6425  17.6465  17.7612  18.0145  18.0241  18.3362
    18.3586  18.3604  18.6652  18.6762  18.6895  18.7263  18.8775  19.0531
    19.1078  20.2774  20.3073  20.3102  20.3523  20.8141  21.6016  21.9566
    22.7712  23.2121  23.4675  23.7689  23.7758  23.8108  24.3532  24.4702
    24.4715  24.6304  25.0732  25.1387  25.5947  25.7900  25.8472  25.8936
    26.1402

          k = 0.0000 0.0589 0.0000 ( 17795 PWs)   bands (ev):

   -10.1645  -9.9998  -8.6486  -5.4033  -2.7366  -1.8115   0.5742   0.6505
     0.9335   3.5200   4.0065   4.3462   4.8821   5.9901   6.1423   7.8739
     7.9491   7.9921   8.0874   8.1297   8.5752   9.0217   9.3076   9.6815
     9.7241  10.0122  10.2059  10.2374  10.2477  10.4615  10.6650  10.6987
    10.7141  11.0155  11.0630  11.0813  11.0991  11.2256  11.3067  11.3236
    11.4024  11.4842  11.5167  11.6048  11.6718  11.7063  11.7829  11.8060
    11.8116  11.9201  11.9279  11.9546  12.0305  12.0623  12.0993  12.1336
    12.2014  12.2080  12.2774  12.3153  12.4367  12.5221  12.5923  12.6170
    12.6605  12.6823  12.6988  12.8289  12.8360  12.8997  12.9861  12.9896
    13.0183  13.0942  13.1033  13.1678  13.2443  13.2965  13.3813  13.3835
    13.4078  13.4309  13.5087  13.6436  13.6468  13.6569  13.7431  13.8313
    13.8933  13.9011  13.9483  14.0032  14.0613  14.1204  14.2530  14.3670
    14.3821  14.3946  14.4292  14.4851  14.5074  14.6427  14.7445  14.7662
    14.7825  14.8275  14.8510  14.9309  14.9443  14.9722  15.0376  15.0417
    15.0588  15.1887  15.2368  15.2637  15.2727  15.3660  15.4272  15.4398
    15.5291  15.5484  15.6278  15.6671  15.7280  15.7529  15.8261  15.8383
    15.8393  15.8993  15.9176  16.0120  16.1031  16.1127  16.1663  16.1684
    16.3024  16.3620  16.4548  16.4843  16.5441  16.6171  16.7954  16.8068
    16.9329  17.1980  17.4276  17.5960  17.6794  17.8659  18.1930  18.2598
    18.4014  18.5245  18.7662  18.8088  18.8389  18.9299  19.0086  19.3408
    19.6401  20.1952  20.3554  20.4447  20.8730  20.9958  21.4930  21.8551
    22.8051  23.2734  23.4644  23.5042  23.8575  23.8659  24.1020  24.3364
    24.6243  24.6290  25.0076  25.1926  25.2821  25.6015  25.8375  25.9147
    26.1299

          k = 0.0000 0.1179 0.0000 ( 17803 PWs)   bands (ev):

   -10.3876  -9.9178  -7.6434  -6.5785  -3.1575  -1.2930   0.6667   0.7474
     2.2279   2.8304   3.6588   4.1828   5.1288   5.5835   6.9185   7.7811
     8.0015   8.0607   8.2495   8.3515   8.8003   8.9799   9.4128   9.4905
     9.7988  10.0125  10.2596  10.3041  10.4641  10.5381  10.5641  10.7580
    10.8018  10.9361  11.0702  11.0855  11.1495  11.2037  11.2734  11.3832
    11.4003  11.4716  11.5249  11.5450  11.6567  11.6646  11.6899  11.7393
    11.8384  11.8606  11.9107  11.9154  11.9972  12.0012  12.1216  12.1318
    12.2230  12.2329  12.2425  12.2766  12.3792  12.4916  12.5366  12.5491
    12.6392  12.6750  12.6948  12.7066  12.7346  12.7997  12.9537  12.9631
    13.0186  13.0619  13.0755  13.0973  13.2263  13.2908  13.2966  13.3689
    13.4302  13.4622  13.5403  13.5983  13.6109  13.6239  13.7442  13.9138
    13.9151  13.9372  13.9683  13.9780  14.0507  14.1841  14.2210  14.2747
    14.3748  14.4186  14.4281  14.4393  14.5139  14.5774  14.6427  14.7180
    14.7218  14.7557  14.7642  14.9361  14.9494  14.9908  15.0250  15.0467
    15.0795  15.0927  15.1708  15.2664  15.3337  15.3507  15.3886  15.4456
    15.4522  15.5253  15.5950  15.6014  15.6358  15.7438  15.7538  15.8044
    15.8118  15.8130  15.8374  15.9501  15.9808  16.0006  16.0632  16.1177
    16.1953  16.3033  16.3594  16.3880  16.4395  16.5279  16.5754  16.7797
    16.7917  16.8761  16.9288  17.0005  17.1109  17.8033  17.9369  18.1376
    18.1694  18.8799  18.9516  19.0601  19.2712  19.4289  19.8057  20.1584
    20.3478  20.5393  20.6406  20.7344  20.9575  21.0743  21.4898  21.8857
    22.8908  23.2044  23.4082  23.4247  23.6127  23.9959  24.1632  24.2732
    24.2991  24.6239  24.7823  24.8757  25.5811  25.5956  25.6080  25.7930
    25.8380

          k = 0.0000 0.1768 0.0000 ( 17795 PWs)   bands (ev):

   -10.5414  -9.5548  -7.6240  -6.4275  -4.4313   0.1819   0.8207   0.9107
     2.0612   3.0519   3.4086   4.0904   4.4836   6.2965   7.2654   7.8022
     7.9761   8.1983   8.2136   8.4650   8.9485   9.2884   9.4948   9.5569
     9.8756   9.9037  10.0725  10.3460  10.4017  10.5465  10.6539  10.7778
    10.7812  10.9037  10.9635  11.0439  11.1237  11.1903  11.2124  11.2892
    11.3621  11.4317  11.4994  11.5713  11.5892  11.6110  11.6244  11.7427
    11.7545  11.8767  11.9268  11.9989  12.0382  12.0493  12.0969  12.1175
    12.2110  12.2541  12.2805  12.3846  12.3931  12.4213  12.4765  12.5055
    12.5471  12.5903  12.7089  12.7170  12.7566  12.8404  12.8705  12.9075
    12.9748  12.9949  13.0520  13.1194  13.1747  13.1760  13.2744  13.3487
    13.4347  13.5085  13.5227  13.5313  13.6176  13.6533  13.7031  13.8453
    13.9104  13.9798  14.0369  14.0651  14.0926  14.1681  14.1696  14.2104
    14.2290  14.3089  14.3750  14.4421  14.4452  14.5264  14.5539  14.6010
    14.6711  14.6904  14.8370  14.8891  14.9211  14.9418  15.0210  15.0637
    15.0772  15.1153  15.1412  15.1973  15.2378  15.2801  15.2922  15.3872
    15.4434  15.4616  15.4775  15.5315  15.5953  15.6296  15.7033  15.7239
    15.7745  15.8035  15.8108  15.8377  15.8431  15.9246  16.0029  16.0781
    16.1104  16.1845  16.2824  16.3024  16.3607  16.4404  16.4899  16.5435
    16.5644  16.6165  16.7595  16.7703  16.9511  17.4142  17.5944  17.7251
    18.2643  18.9027  19.0620  19.7348  19.8766  20.0273  20.3534  20.5796
    20.7012  20.7504  20.8930  21.0667  21.2276  21.4153  21.7405  22.0319
    22.9556  22.9833  23.2647  23.6103  23.7899  24.1194  24.1252  24.1520
    24.3399  24.6169  24.6588  24.8201  25.1626  25.2239  25.5741  25.6669
    25.7682

          k = 0.0000 0.2357 0.0000 ( 17822 PWs)   bands (ev):

   -10.5002  -9.0445  -8.5265  -5.6065  -5.0210   1.0360   1.0685   1.1439
     1.6484   2.5181   3.1361   4.4581   4.9216   6.5095   7.0086   7.4968
     8.3484   8.4624   8.4825   8.5988   8.7549   8.9518   9.1228   9.5645
     9.9019  10.0022  10.2653  10.3259  10.3736  10.4979  10.5337  10.6323
    10.7539  10.7925  10.9396  11.0693  11.1765  11.1901  11.2113  11.2960
    11.3238  11.3488  11.5323  11.5701  11.6431  11.6955  11.7352  11.7996
    11.8620  11.8713  11.9853  11.9882  12.1321  12.1569  12.1846  12.1882
    12.2532  12.2830  12.3503  12.3567  12.3767  12.4001  12.4693  12.5309
    12.5929  12.6072  12.7055  12.7138  12.8082  12.8314  12.8348  12.8572
    12.8963  12.9370  13.0105  13.0871  13.1436  13.2423  13.2486  13.3072
    13.3880  13.4783  13.4838  13.5946  13.6453  13.6762  13.6884  13.8944
    13.9109  13.9471  13.9733  14.0282  14.0788  14.1266  14.1428  14.1652
    14.1844  14.2714  14.2815  14.3403  14.4361  14.4730  14.5363  14.5526
    14.6324  14.6378  14.7396  14.7954  14.8879  14.8882  14.9064  15.0474
    15.0526  15.0592  15.0796  15.1092  15.1665  15.1676  15.1961  15.2589
    15.3547  15.3764  15.4668  15.4707  15.4847  15.5162  15.6116  15.6694
    15.7125  15.7397  15.7795  15.7994  15.8669  15.9323  15.9476  15.9549
    16.0448  16.0803  16.1700  16.2753  16.2875  16.3502  16.3938  16.5521
    16.5894  16.6251  16.7269  16.7297  16.7425  17.1814  17.3031  17.4370
    18.1679  18.4143  19.3020  19.8894  20.3574  20.4036  20.5225  20.6293
    20.8657  20.9500  21.2697  21.8445  21.9021  21.9072  22.1130  22.2418
    22.7754  23.0035  23.5545  23.8329  23.9589  24.0383  24.0503  24.2716
    24.4540  24.5492  24.6247  24.7800  24.9014  24.9540  25.0525  25.3305
    25.4800

          k = 0.0000 0.2946 0.0000 ( 17818 PWs)   bands (ev):

   -10.2700  -9.2746  -8.3904  -6.6652  -3.4647  -0.2634   1.3126   1.4546
     2.0523   2.3971   3.0614   5.3823   5.5185   5.5350   6.8995   7.3341
     7.6891   8.4385   8.7477   8.8097   8.9954   9.0559   9.1072   9.2742
     9.8671   9.9521  10.1079  10.2655  10.4520  10.5531  10.6038  10.6565
    10.6673  10.8213  10.9202  10.9640  11.0937  11.1474  11.2454  11.3270
    11.3754  11.4168  11.6311  11.6992  11.7590  11.7991  11.8393  11.8549
    11.8593  11.8756  11.9381  11.9835  12.1112  12.1329  12.1773  12.2006
    12.2289  12.3159  12.3274  12.3973  12.4074  12.4784  12.5648  12.5943
    12.6451  12.6639  12.6893  12.7296  12.7660  12.7834  12.8713  12.9164
    12.9859  13.0018  13.0730  13.1307  13.1564  13.2267  13.2768  13.3970
    13.4195  13.4588  13.5707  13.5732  13.5966  13.6764  13.7924  13.8535
    13.9038  13.9214  13.9642  14.0028  14.0300  14.0536  14.1032  14.1612
    14.1797  14.1952  14.2442  14.3406  14.3437  14.4323  14.4689  14.5339
    14.5510  14.6606  14.6881  14.6903  14.7117  14.7177  14.7758  14.8516
    14.9223  14.9984  15.0230  15.0919  15.1135  15.1561  15.2051  15.2990
    15.3052  15.3393  15.3675  15.3786  15.4750  15.4928  15.5198  15.5524
    15.6515  15.7006  15.7017  15.7590  15.7760  15.8350  15.9381  15.9928
    16.0155  16.0942  16.2080  16.3426  16.3494  16.3559  16.3861  16.5805
    16.6303  16.6540  16.6549  16.7000  16.7337  16.9197  16.9548  17.4039
    17.6307  18.0378  19.5943  19.9902  20.2634  20.3515  20.5633  20.9441
    21.0151  21.1203  21.7388  22.3286  22.4332  22.4983  22.5327  22.7510
    22.8546  23.2058  23.4760  23.6672  23.8479  24.0857  24.2516  24.2664
    24.3286  24.3926  24.5686  24.7867  24.8092  24.8194  24.9274  25.0309
    25.1461

          k = 0.0000-0.3536 0.0000 ( 17844 PWs)   bands (ev):

    -9.8587  -9.8587  -7.5957  -7.5957  -1.8350  -1.8350   1.6511   1.6511
     1.8594   1.8594   4.3723   4.3723   6.1939   6.1939   6.3088   6.3088
     8.2435   8.2435   8.8712   8.8712   8.9937   8.9937   9.4045   9.4045
     9.5270   9.5270  10.3232  10.3232  10.4418  10.4418  10.6828  10.6828
    10.8125  10.8125  10.8610  10.8610  11.0553  11.0553  11.3021  11.3021
    11.4932  11.4932  11.6964  11.6964  11.7641  11.7641  11.8867  11.8867
    11.9576  11.9576  11.9937  11.9937  12.0452  12.0452  12.0868  12.0868
    12.2529  12.2529  12.4028  12.4028  12.5038  12.5038  12.5390  12.5390
    12.6422  12.6422  12.7014  12.7014  12.8093  12.8093  12.9366  12.9366
    12.9921  12.9921  13.1562  13.1562  13.2282  13.2282  13.3691  13.3691
    13.4167  13.4167  13.5212  13.5212  13.7831  13.7831  13.9128  13.9128
    13.9520  13.9520  13.9967  13.9967  14.0608  14.0608  14.1039  14.1039
    14.1681  14.1681  14.1789  14.1789  14.2800  14.2800  14.4870  14.4870
    14.6128  14.6128  14.6350  14.6350  14.7350  14.7350  14.8054  14.8054
    14.8397  14.8397  15.1157  15.1157  15.1487  15.1487  15.1944  15.1944
    15.2730  15.2730  15.3621  15.3621  15.5069  15.5069  15.5145  15.5145
    15.5713  15.5713  15.6741  15.6741  15.8558  15.8558  15.9361  15.9361
    16.0245  16.0245  16.1865  16.1866  16.3550  16.3550  16.4743  16.4743
    16.6594  16.6594  16.6717  16.6717  16.7752  16.7752  17.1960  17.1960
    17.6624  17.6624  19.9256  19.9256  20.1629  20.1629  20.7427  20.7427
    21.1981  21.1981  22.3081  22.3081  22.5864  22.5864  23.0322  23.0322
    23.1926  23.1926  23.3094  23.3094  23.9701  23.9701  24.1088  24.1089
    24.3473  24.3474  24.6955  24.6955  24.7395  24.7395  24.9628  24.9629
    25.1657

          k = 0.1250 0.0000 0.0000 ( 17777 PWs)   bands (ev):

   -10.2241  -9.4905  -9.3873  -4.1120  -4.1116  -0.4328  -0.4319   0.5296
     0.6410   4.0864   4.2131   4.2160   5.1210   5.1230   7.1503   7.1520
     7.8328   8.0964   8.1810   8.2472   8.6326   9.0402   9.3822   9.6572
     9.9927   9.9983  10.0490  10.1869  10.1871  10.3180  10.5804  10.6516
    10.6541  11.0248  11.1060  11.1064  11.1107  11.2340  11.3763  11.3767
    11.4532  11.4675  11.5374  11.6577  11.6819  11.7020  11.7105  11.7772
    11.8488  11.8620  11.8975  11.9615  11.9762  12.0230  12.1383  12.1809
    12.1954  12.2770  12.4233  12.4294  12.5327  12.5463  12.6220  12.6261
    12.6730  12.7118  12.8314  12.8547  12.9151  12.9801  13.0463  13.1614
    13.1691  13.2074  13.2759  13.2935  13.3147  13.3457  13.3746  13.4747
    13.5762  13.5812  13.5998  13.6153  13.6244  13.6710  13.7196  13.8305
    13.8756  13.8828  13.9046  13.9759  13.9761  14.1490  14.1983  14.2166
    14.2956  14.3766  14.4706  14.5020  14.5745  14.5776  14.5956  14.6311
    14.7096  14.7905  14.8426  14.8799  14.8976  14.9673  14.9862  15.0613
    15.1430  15.1525  15.1676  15.1966  15.2837  15.3273  15.3610  15.3828
    15.4096  15.4985  15.6275  15.6633  15.6825  15.6945  15.7395  15.7911
    15.8054  15.9091  15.9476  16.0454  16.0770  16.1280  16.1322  16.1457
    16.2367  16.2416  16.3629  16.4374  16.5235  16.6143  16.6202  16.7552
    17.2498  17.5497  17.5513  17.7157  17.7225  18.0956  18.1155  18.4033
    18.5085  18.5791  18.7206  18.7618  18.8975  18.9098  19.0600  19.1786
    19.3783  19.5245  19.6516  20.3960  20.4178  21.2160  21.4763  21.9301
    22.0110  22.3855  23.1620  23.1663  23.4869  23.7913  24.0220  24.0372
    24.0681  24.4864  24.5957  24.9954  25.0665  25.3548  25.3791  25.6161
    25.9334

          k = 0.1250 0.0589 0.0000 ( 17791 PWs)   bands (ev):

   -10.1651  -9.9993  -8.6480  -5.4004  -2.7315  -1.8125   0.5603   0.6736
     0.9322   3.5410   4.1440   4.3286   4.9154   5.9867   6.2066   7.8759
     8.0232   8.0822   8.1557   8.2700   8.5567   9.0250   9.4163   9.6937
     9.7444  10.0548  10.1923  10.2113  10.2548  10.3379  10.6071  10.6135
    10.7096  11.0452  11.1119  11.1175  11.1384  11.2249  11.3635  11.3745
    11.4478  11.5017  11.5464  11.6272  11.6636  11.6976  11.7185  11.7856
    11.7975  11.8674  11.9184  11.9631  11.9942  12.0285  12.0703  12.1442
    12.2212  12.2682  12.3880  12.4014  12.5149  12.5155  12.5915  12.6300
    12.6519  12.6980  12.8072  12.8334  12.9147  12.9778  13.0355  13.0533
    13.1619  13.2035  13.2402  13.2982  13.3453  13.3600  13.4169  13.4490
    13.5535  13.5549  13.5874  13.6044  13.6642  13.7039  13.7710  13.7739
    13.8737  13.9283  13.9292  13.9608  13.9939  14.0838  14.2231  14.2249
    14.2665  14.3104  14.4354  14.4811  14.5159  14.5724  14.5938  14.6470
    14.6598  14.7700  14.8156  14.8340  14.9497  14.9780  15.0012  15.0269
    15.0684  15.1613  15.1634  15.1998  15.2499  15.2990  15.3584  15.3883
    15.4315  15.5512  15.6164  15.6461  15.6784  15.6937  15.7182  15.7972
    15.8247  15.8668  15.9417  16.0041  16.0169  16.0986  16.1159  16.1253
    16.1797  16.2609  16.3233  16.4085  16.4873  16.5603  16.5996  16.7404
    16.9396  17.0338  17.2312  17.4427  17.7781  17.9019  18.2816  18.3627
    18.5818  18.7984  18.9142  18.9183  18.9758  19.0012  19.2756  19.3177
    19.4483  19.5866  19.9115  20.5444  20.8541  21.2482  21.4178  21.7399
    22.0787  22.4235  22.5023  23.4487  23.5236  23.7402  23.8070  24.0020
    24.0394  24.3685  24.5587  24.7384  25.2895  25.4328  25.5889  25.8911
    25.9573

          k = 0.1250 0.1179 0.0000 ( 17815 PWs)   bands (ev):

   -10.3870  -9.9185  -7.6425  -6.5762  -3.1585  -1.2864   0.6523   0.7716
     2.2237   2.8533   3.6455   4.3188   5.1893   5.6142   6.9247   7.8096
     8.0039   8.2421   8.3159   8.4017   8.7987   8.9931   9.5135   9.5136
     9.7834  10.0667  10.2400  10.2730  10.3931  10.4627  10.5264  10.6810
    10.7905  11.0992  11.1271  11.1528  11.1966  11.2143  11.2880  11.3292
    11.4002  11.4867  11.4985  11.5609  11.6607  11.6637  11.6786  11.7569
    11.8566  11.8945  11.8970  11.9532  11.9952  12.0571  12.0716  12.0869
    12.1452  12.2492  12.3422  12.3492  12.4431  12.4587  12.5645  12.5955
    12.6566  12.6889  12.7444  12.8027  12.8557  12.9353  12.9671  13.0689
    13.1123  13.1536  13.1840  13.2837  13.3422  13.3633  13.4110  13.4429
    13.4692  13.5553  13.5870  13.6055  13.6349  13.6389  13.7697  13.8419
    13.9135  13.9245  13.9320  13.9858  13.9927  14.0470  14.0520  14.1983
    14.2239  14.2687  14.3495  14.3611  14.5247  14.5408  14.5554  14.5749
    14.6577  14.7043  14.7337  14.8138  14.8653  14.8920  14.9582  15.0152
    15.0854  15.1034  15.1947  15.2086  15.2425  15.2640  15.4060  15.4170
    15.4552  15.5263  15.5642  15.6202  15.6428  15.6627  15.6818  15.7831
    15.7985  15.8401  15.8682  15.9132  15.9227  15.9778  16.0525  16.0627
    16.0934  16.2162  16.2556  16.3287  16.4439  16.4730  16.5278  16.5302
    16.6399  16.8927  17.0752  17.1423  17.2414  17.2440  18.0424  18.3786
    18.5990  18.9596  19.1192  19.1957  19.2483  19.3776  19.5596  19.6619
    19.8399  20.3677  20.6179  20.9288  20.9384  21.1014  21.3891  21.7223
    22.1055  22.1957  22.7162  23.1329  23.4723  23.5899  23.6259  23.8440
    23.8982  24.0504  24.5221  25.0170  25.3142  25.4181  25.5944  25.9255
    25.9998

          k = 0.1250 0.1768 0.0000 ( 17796 PWs)   bands (ev):

   -10.5408  -9.5555  -7.6223  -6.4262  -4.4323   0.1903   0.8057   0.9367
     2.0752   3.0381   3.4107   4.1491   4.6165   6.3260   7.2937   7.8192
     7.9591   8.2119   8.4140   8.5708   8.9689   9.3132   9.4293   9.6430
     9.8486   9.9662  10.1068  10.3222  10.3493  10.4651  10.5636  10.7822
    10.8104  10.9063  11.0744  11.1107  11.1712  11.2030  11.2397  11.3005
    11.3897  11.4087  11.5037  11.5410  11.6118  11.6572  11.7063  11.7257
    11.8471  11.8580  11.9606  12.0075  12.0591  12.1052  12.1336  12.1577
    12.1723  12.2270  12.2874  12.3342  12.4212  12.4290  12.5238  12.5637
    12.6627  12.6812  12.6992  12.8009  12.8361  12.8733  12.9650  13.0178
    13.0915  13.0948  13.1277  13.1636  13.1852  13.2635  13.3521  13.4337
    13.4520  13.5403  13.5439  13.6058  13.6168  13.6309  13.7481  13.8260
    13.8911  13.8945  13.9532  13.9655  14.0036  14.0202  14.0517  14.1514
    14.1784  14.2182  14.2682  14.3017  14.4450  14.4707  14.4750  14.5357
    14.5777  14.6707  14.7262  14.7816  14.8269  14.8655  14.9550  14.9893
    14.9902  15.0536  15.0999  15.1830  15.1855  15.2929  15.3114  15.3831
    15.3875  15.4789  15.4792  15.5450  15.5655  15.6084  15.6700  15.7573
    15.7838  15.8047  15.8123  15.8471  15.9192  15.9427  15.9840  16.0252
    16.0702  16.1390  16.1490  16.3058  16.3733  16.3991  16.4390  16.4687
    16.4801  16.5883  16.7682  16.8157  16.9602  17.3723  17.7932  17.9610
    18.1083  18.9783  19.3191  19.5087  19.8144  19.8627  19.9375  19.9949
    20.3415  20.4412  20.8617  21.1720  21.2933  21.4095  21.5703  21.8707
    22.2515  22.3864  22.9226  22.9758  23.1717  23.2867  23.7434  23.7747
    23.8973  24.0770  24.6427  24.8616  25.0519  25.1676  25.5597  25.7577
    26.0135

          k = 0.1250 0.2357 0.0000 ( 17785 PWs)   bands (ev):

   -10.4995  -9.0453  -8.5251  -5.6074  -5.0190   1.0205   1.0800   1.1722
     1.6592   2.5037   3.1877   4.4582   5.0482   6.5382   7.0422   7.4862
     8.4154   8.4851   8.5652   8.7645   8.8468   8.9757   9.1490   9.5725
     9.9322   9.9447  10.2273  10.2945  10.3656  10.4606  10.5316  10.5675
    10.7878  10.8848  11.0101  11.0386  11.2100  11.2719  11.3250  11.3399
    11.3790  11.3865  11.4602  11.5665  11.6443  11.7174  11.7937  11.8181
    11.8813  11.9678  12.0400  12.0728  12.1284  12.1360  12.1677  12.2256
    12.2344  12.2695  12.3117  12.3633  12.4544  12.4750  12.5156  12.5711
    12.6362  12.6655  12.7422  12.7721  12.8264  12.8521  12.9428  12.9841
    12.9950  13.0482  13.0633  13.0885  13.1308  13.1960  13.2260  13.3724
    13.4251  13.4991  13.5037  13.5897  13.5900  13.6400  13.7001  13.8386
    13.8835  13.8874  13.9430  13.9474  13.9835  14.0214  14.0743  14.0840
    14.1454  14.1522  14.2767  14.2815  14.3439  14.3528  14.4523  14.5392
    14.5624  14.6541  14.6544  14.7270  14.7329  14.7769  14.8356  14.9006
    14.9371  15.0261  15.0376  15.0510  15.1170  15.1251  15.2456  15.2911
    15.3327  15.4016  15.4456  15.4953  15.5449  15.5632  15.5927  15.6623
    15.6932  15.7306  15.7939  15.8194  15.8495  15.9266  15.9638  15.9874
    16.0155  16.1259  16.2259  16.2489  16.2946  16.3246  16.4453  16.4535
    16.4862  16.6278  16.6596  16.6723  16.7610  17.4036  17.5627  17.6568
    17.7541  18.4790  19.4241  19.5789  19.6382  20.0876  20.3236  20.5486
    20.5872  20.7170  21.0025  21.3018  21.7981  21.8040  22.0917  22.1692
    22.4061  22.6874  22.7297  23.0432  23.2152  23.2465  23.8997  23.9586
    23.9664  24.1161  24.6476  24.7371  24.8249  25.0391  25.4041  25.5663
    25.8428

          k = 0.1250 0.2946 0.0000 ( 17801 PWs)   bands (ev):

   -10.2692  -9.2735  -8.3912  -6.6661  -3.4613  -0.2546   1.2969   1.4857
     2.0370   2.4353   3.0799   5.3794   5.5233   5.6734   6.8975   7.4219
     7.7392   8.6349   8.7645   8.8901   9.0228   9.0663   9.1787   9.2702
     9.8644   9.9885  10.1442  10.1668  10.3434  10.5887  10.6133  10.6579
    10.6994  10.9040  10.9048  10.9830  11.1421  11.2407  11.3201  11.3802
    11.4630  11.4982  11.5483  11.6135  11.7962  11.8183  11.8303  11.9003
    11.9319  11.9488  12.0201  12.0495  12.0987  12.1435  12.1531  12.2787
    12.3035  12.3227  12.4026  12.4417  12.4611  12.5405  12.5824  12.6569
    12.6581  12.6912  12.7428  12.7976  12.8250  12.8414  12.8698  12.9480
    13.0031  13.0139  13.0574  13.0797  13.1665  13.2119  13.2738  13.3708
    13.3863  13.4419  13.5021  13.5030  13.6208  13.6584  13.6721  13.8022
    13.8740  13.9094  13.9365  13.9575  13.9710  13.9807  14.0162  14.1077
    14.1229  14.1363  14.1631  14.2791  14.3201  14.3455  14.3891  14.4287
    14.4917  14.5907  14.5976  14.6542  14.6943  14.7124  14.8348  14.8460
    14.8767  14.9418  14.9903  15.0472  15.0955  15.1032  15.1490  15.1588
    15.2517  15.3040  15.3574  15.3977  15.4512  15.5172  15.5196  15.5580
    15.5790  15.6404  15.7119  15.8088  15.9087  15.9477  15.9497  16.0199
    16.1053  16.1188  16.1924  16.2833  16.3095  16.3661  16.4179  16.4697
    16.5289  16.6020  16.6210  16.7372  16.7685  17.0061  17.3485  17.4334
    17.6866  17.9777  19.3116  19.3182  19.9145  20.2303  20.4831  20.5789
    20.6674  20.9539  21.4161  21.6421  21.8903  22.0392  22.1940  22.3589
    22.7562  22.8453  22.9616  23.2851  23.4313  23.4480  23.8354  24.0807
    24.1690  24.3210  24.4420  24.5193  24.7196  24.9617  24.9791  25.4087
    25.5636

          k = 0.1250-0.3536 0.0000 ( 17808 PWs)   bands (ev):

    -9.8577  -9.8577  -7.5965  -7.5965  -1.8294  -1.8294   1.6354   1.6354
     1.8942   1.8942   4.3909   4.3909   6.1671   6.1671   6.4464   6.4464
     8.3488   8.3488   8.9007   8.9007   9.0365   9.0365   9.4053   9.4053
     9.5943   9.5943  10.2391  10.2391  10.4842  10.4842  10.7012  10.7012
    10.7892  10.7892  10.8817  10.8817  11.1655  11.1655  11.3703  11.3703
    11.5237  11.5237  11.6792  11.6792  11.8033  11.8033  11.9189  11.9189
    11.9329  11.9329  12.0147  12.0147  12.0998  12.0998  12.1963  12.1963
    12.3263  12.3263  12.4298  12.4298  12.5304  12.5304  12.6455  12.6455
    12.6861  12.6861  12.7332  12.7332  12.8506  12.8506  12.9045  12.9045
    13.0053  13.0053  13.1461  13.1461  13.1743  13.1743  13.2547  13.2547
    13.4394  13.4394  13.5164  13.5164  13.7361  13.7361  13.7899  13.7899
    13.8648  13.8648  13.9439  13.9439  13.9945  13.9945  14.0456  14.0456
    14.0728  14.0728  14.1726  14.1726  14.2145  14.2145  14.4686  14.4686
    14.6020  14.6020  14.6283  14.6283  14.7453  14.7453  14.8034  14.8034
    14.8338  14.8338  15.0169  15.0169  15.0846  15.0846  15.1534  15.1534
    15.2157  15.2157  15.3503  15.3503  15.3829  15.3829  15.5034  15.5034
    15.5669  15.5669  15.7560  15.7560  15.9685  15.9685  16.0124  16.0124
    16.0835  16.0835  16.1722  16.1722  16.3078  16.3078  16.4216  16.4217
    16.5517  16.5517  16.6280  16.6280  16.9975  16.9975  17.2422  17.2422
    17.7780  17.7780  19.2162  19.2162  20.2212  20.2212  20.3632  20.3632
    21.0541  21.0541  21.4383  21.4383  22.2367  22.2367  22.3981  22.3981
    22.7016  22.7016  23.1663  23.1663  23.8309  23.8309  23.9735  23.9735
    24.2192  24.2192  24.4619  24.4620  24.6595  24.6595  25.0222  25.0222
    25.6976

          k = 0.2500 0.0000 0.0000 ( 17793 PWs)   bands (ev):

   -10.2259  -9.4854  -9.3895  -4.1027  -4.1023  -0.4353  -0.4344   0.4705
     0.7260   4.2625   4.2655   4.4771   5.1123   5.1144   7.2739   7.2755
     7.8367   8.2002   8.3768   8.5776   8.8673   9.0321   9.2032   9.8398
    10.0260  10.0272  10.1408  10.1428  10.1918  10.3063  10.5982  10.5992
    10.6315  10.9484  11.1279  11.2052  11.2107  11.2157  11.3752  11.3884
    11.5000  11.5467  11.5747  11.5877  11.6229  11.7049  11.7531  11.7623
    11.8187  11.8341  11.9101  12.1234  12.1426  12.1704  12.1968  12.2426
    12.3039  12.4087  12.4889  12.5263  12.5264  12.5431  12.6695  12.7298
    12.8509  12.8538  12.8765  13.0466  13.0496  13.0693  13.0745  13.1051
    13.2507  13.2953  13.3598  13.4011  13.4275  13.4615  13.4959  13.5105
    13.5343  13.6241  13.6806  13.7341  13.8001  13.8332  13.8781  13.8853
    13.9238  13.9503  13.9827  14.0401  14.0466  14.1066  14.1463  14.1499
    14.2046  14.2079  14.2376  14.2516  14.3920  14.5295  14.5330  14.5684
    14.5984  14.6311  14.6349  14.7891  14.8278  14.8718  14.9034  14.9332
    14.9905  15.0028  15.1015  15.1978  15.2024  15.2197  15.3069  15.3175
    15.3209  15.4089  15.4658  15.4962  15.5522  15.5890  15.6295  15.7109
    15.7142  15.7197  15.7440  15.8038  15.8075  15.9935  16.0172  16.1130
    16.1684  16.1866  16.2607  16.3253  16.3481  16.4515  16.5150  16.5805
    17.0812  17.3110  17.4268  17.4495  17.5168  17.8328  17.8615  18.1998
    18.3124  18.4932  18.7809  18.8991  19.0276  19.2276  19.2943  19.3819
    19.4661  19.6154  19.8101  20.5699  20.6631  20.9296  20.9525  21.7066
    21.8148  21.8698  22.3867  22.3882  22.8993  22.9110  23.2721  23.2814
    23.3216  23.5450  23.5882  23.6683  23.7242  23.9152  24.8996  25.0248
    25.1503

          k = 0.2500 0.0589 0.0000 ( 17783 PWs)   bands (ev):

   -10.1666  -9.9979  -8.6466  -5.3933  -2.7194  -1.8150   0.5016   0.7586
     0.9296   3.5923   4.3004   4.5335   4.9789   5.9842   6.3601   7.8798
     8.0896   8.1208   8.4172   8.5042   8.8864   9.0276   9.2218   9.7905
     9.8731  10.1459  10.1644  10.2191  10.2640  10.3214  10.5496  10.6558
    10.6792  10.9617  11.1509  11.1941  11.2125  11.2566  11.3630  11.3955
    11.5146  11.5286  11.5666  11.6031  11.6263  11.6810  11.7044  11.7891
    11.8409  11.8444  11.9124  12.0693  12.1217  12.1736  12.1776  12.2501
    12.3203  12.3662  12.4680  12.4722  12.5560  12.5744  12.6784  12.6793
    12.8174  12.8657  12.9110  12.9572  13.0330  13.0574  13.0785  13.1115
    13.2073  13.2403  13.3500  13.4040  13.4558  13.5076  13.5308  13.5407
    13.5581  13.6424  13.6957  13.7328  13.7783  13.8152  13.8475  13.8559
    13.9150  13.9580  13.9748  14.0067  14.0595  14.0797  14.0847  14.1168
    14.1692  14.1763  14.2201  14.2776  14.3601  14.4718  14.5010  14.5335
    14.5516  14.6359  14.6454  14.7320  14.7890  14.8213  14.8998  14.9202
    14.9691  15.0142  15.0470  15.1467  15.1930  15.2122  15.2316  15.3173
    15.3598  15.3794  15.4489  15.4742  15.5466  15.5933  15.6447  15.6796
    15.6853  15.7673  15.7902  15.8330  15.8902  15.9753  16.0458  16.0949
    16.1542  16.1609  16.2458  16.2993  16.3965  16.4214  16.4701  16.5430
    16.7628  17.0883  17.1109  17.4169  17.4701  17.5872  18.0585  18.2235
    18.3592  18.6433  18.7935  18.9250  19.1088  19.1428  19.4390  19.5489
    19.7406  19.8322  20.0861  20.2203  20.3455  21.0796  21.4504  21.6457
    21.7411  21.7427  21.8389  22.0122  22.6002  22.7819  22.8365  23.3723
    23.5349  23.6330  23.8816  24.0516  24.3164  24.4573  25.0186  25.1675
    25.1700

          k = 0.2500 0.1179 0.0000 ( 17763 PWs)   bands (ev):

   -10.3856  -9.9201  -7.6403  -6.5707  -3.1609  -1.2704   0.5948   0.8571
     2.2189   2.9028   3.6171   4.7043   5.3465   5.6762   6.9428   7.8535
     8.0081   8.2725   8.5527   8.7724   8.9428   9.0281   9.2756   9.5687
     9.9660  10.1882  10.2192  10.2655  10.3750  10.4405  10.4817  10.7281
    10.8145  10.9868  11.1307  11.2003  11.2606  11.2631  11.3144  11.3597
    11.5008  11.5062  11.5760  11.6113  11.6345  11.6400  11.7241  11.7413
    11.8395  11.9277  11.9455  11.9528  12.1229  12.1261  12.1782  12.2554
    12.3052  12.3508  12.4044  12.4407  12.5555  12.5801  12.6599  12.6715
    12.8007  12.8361  12.9206  12.9235  13.0121  13.0141  13.0563  13.1043
    13.1648  13.1767  13.3085  13.3571  13.4715  13.5172  13.5282  13.5817
    13.5882  13.6476  13.6645  13.7160  13.7443  13.7735  13.7838  13.8391
    13.8649  13.8725  13.9365  13.9417  13.9838  14.0060  14.0241  14.0439
    14.0513  14.1665  14.1768  14.2369  14.2875  14.3533  14.3790  14.4437
    14.4907  14.5801  14.6272  14.6495  14.6591  14.7530  14.8325  14.8409
    14.9276  14.9629  15.0347  15.1179  15.1248  15.1719  15.1833  15.3022
    15.3257  15.3771  15.4135  15.5157  15.5293  15.6189  15.6433  15.6821
    15.7670  15.8057  15.8216  15.8610  15.9083  15.9767  16.0183  16.0677
    16.1009  16.1736  16.2175  16.2543  16.2836  16.3600  16.4171  16.4435
    16.5727  16.6426  16.8496  17.0773  17.6228  17.6545  17.7865  17.7896
    18.1017  18.5795  19.1802  19.2870  19.3614  19.6080  19.6110  19.6605
    19.7201  19.8762  19.8929  20.5318  20.9176  21.0328  21.1353  21.5903
    21.6686  21.8197  21.9120  21.9688  22.0723  22.2436  22.6246  23.5793
    23.7275  23.7747  24.1434  24.6184  24.7834  25.1194  25.1900  25.2972
    25.3239

          k = 0.2500 0.1768 0.0000 ( 17751 PWs)   bands (ev):

   -10.5393  -9.5573  -7.6180  -6.4230  -4.4346   0.2112   0.7503   1.0231
     2.1117   3.0067   3.4116   4.2986   4.9942   6.3839   7.3495   7.8783
     7.9231   8.2169   8.7611   8.9778   9.0972   9.2633   9.3443   9.3744
    10.0506  10.0708  10.2507  10.2653  10.2891  10.4958  10.5506  10.8281
    10.8400  10.9863  10.9905  11.0239  11.2633  11.3371  11.3679  11.3832
    11.4250  11.5207  11.5564  11.5837  11.6715  11.6829  11.7388  11.8003
    11.8145  11.8987  12.0302  12.0532  12.1377  12.1420  12.2028  12.2551
    12.2740  12.3658  12.4089  12.4390  12.5486  12.5549  12.6379  12.7172
    12.7799  12.7894  12.9066  12.9199  12.9410  12.9670  13.0177  13.0422
    13.0819  13.1558  13.2589  13.3185  13.3401  13.4058  13.4563  13.5361
    13.5783  13.6217  13.6276  13.6559  13.6853  13.6962  13.7188  13.7385
    13.7673  13.7908  13.8729  13.8964  13.9203  13.9298  13.9924  14.0482
    14.0890  14.0973  14.1164  14.1374  14.2238  14.2709  14.2742  14.3654
    14.4055  14.5091  14.5253  14.6200  14.6361  14.6744  14.7268  14.7526
    14.8241  14.8328  14.9845  15.0198  15.1280  15.1534  15.2337  15.2655
    15.3241  15.3247  15.4353  15.4388  15.5708  15.5994  15.6662  15.6839
    15.7152  15.8110  15.8231  15.8824  15.8987  15.9530  15.9861  16.0360
    16.1166  16.1381  16.1795  16.2069  16.2072  16.2493  16.3252  16.3931
    16.4019  16.4958  16.7949  16.9964  17.1807  17.3380  17.7011  18.0178
    18.1779  18.3053  18.8426  19.0745  19.2954  19.5149  19.7642  19.8869
    20.0812  20.3388  20.4316  20.6844  20.7453  20.9519  21.3690  21.4252
    21.7475  21.9246  21.9892  22.0463  22.2143  22.4403  22.6948  23.5930
    23.7784  24.0342  24.1142  24.7577  25.1230  25.1924  25.3592  25.7148
    25.7803

          k = 0.2500 0.2357 0.0000 ( 17768 PWs)   bands (ev):

   -10.4978  -9.0471  -8.5217  -5.6096  -5.0140   0.9681   1.1091   1.2602
     1.6860   2.4685   3.3176   4.4565   5.4097   6.6009   7.0997   7.4603
     8.4946   8.5006   8.9914   8.9924   9.0441   9.2115   9.2125   9.3452
     9.7409   9.9811  10.2707  10.3419  10.3531  10.4000  10.5701  10.6381
    10.9134  10.9249  10.9694  11.1798  11.3361  11.3590  11.3941  11.4230
    11.4473  11.4962  11.5779  11.6052  11.7170  11.7278  11.8237  11.8999
    11.9521  11.9958  12.0501  12.1177  12.1803  12.2332  12.2441  12.3047
    12.3336  12.4271  12.4610  12.4995  12.5110  12.6034  12.6421  12.7060
    12.7142  12.7741  12.8531  12.8702  12.9142  12.9401  12.9494  12.9967
    13.0501  13.1624  13.1657  13.2068  13.2806  13.3331  13.3785  13.3974
    13.4114  13.4771  13.5493  13.5970  13.6045  13.6426  13.6815  13.7155
    13.7301  13.7480  13.8117  13.8133  13.8946  13.8972  13.9703  13.9838
    14.0491  14.0663  14.1026  14.1221  14.1499  14.1688  14.2810  14.3086
    14.4176  14.4296  14.4703  14.4888  14.6473  14.6602  14.6741  14.7143
    14.7351  14.8091  14.8682  14.9694  15.0954  15.1175  15.1316  15.2109
    15.2530  15.3701  15.3741  15.4495  15.4706  15.4996  15.5405  15.5778
    15.6997  15.7411  15.7903  15.8192  15.8643  15.9311  15.9346  15.9998
    16.0866  16.1082  16.1759  16.2100  16.2344  16.2573  16.3064  16.4238
    16.4586  16.4986  16.8007  16.9060  17.0460  17.0718  17.4759  18.1052
    18.2559  18.4784  18.5437  18.5928  18.8818  19.4720  19.9048  19.9807
    20.0433  20.4011  20.4032  20.8294  20.8609  20.9045  21.4323  21.7408
    22.0575  22.1190  22.2270  22.3586  22.4807  22.8095  22.9119  23.6116
    23.9396  24.2744  24.3865  25.0587  25.1523  25.3912  25.5415  25.6649
    25.7392

          k = 0.2500 0.2946 0.0000 ( 17790 PWs)   bands (ev):

   -10.2673  -9.2707  -8.3931  -6.6682  -3.4531  -0.2332   1.2482   1.5766
     1.9975   2.5394   3.1200   5.3733   5.5809   6.0118   6.8889   7.6518
     7.8409   8.7913   9.0262   9.0759   9.0937   9.1536   9.2877   9.4120
     9.8547   9.8787   9.9063  10.0791  10.5140  10.5291  10.6332  10.7325
    10.8541  10.8840  11.0047  11.0946  11.3290  11.4121  11.4794  11.5353
    11.5366  11.5752  11.6587  11.6587  11.7683  11.8290  11.8742  11.9473
    11.9910  12.0242  12.0852  12.1559  12.2297  12.2352  12.2996  12.3702
    12.4242  12.4821  12.5441  12.5662  12.5800  12.6418  12.6573  12.6910
    12.7293  12.7483  12.8143  12.8538  12.8717  12.9607  12.9681  12.9973
    13.0426  13.0533  13.1142  13.1545  13.1927  13.2436  13.2812  13.3173
    13.3512  13.3528  13.4509  13.5188  13.5278  13.5961  13.6537  13.6571
    13.7475  13.7480  13.7872  13.8070  13.8435  13.8634  13.8805  13.9131
    13.9706  14.0401  14.0788  14.1276  14.1499  14.1697  14.1901  14.3309
    14.4304  14.4845  14.5076  14.5422  14.5628  14.6787  14.7172  14.7185
    14.7914  14.8164  14.8905  14.9289  14.9769  15.0250  15.0742  15.1228
    15.1403  15.1947  15.2168  15.2708  15.4008  15.4102  15.5279  15.5341
    15.5560  15.5865  15.7481  15.8393  15.9152  15.9546  16.0025  16.0414
    16.0740  16.1285  16.1314  16.2404  16.3027  16.3252  16.3458  16.4298
    16.5126  16.5383  16.6363  16.7166  16.8879  16.9515  17.4242  18.0747
    18.1338  18.1840  18.3911  18.8293  18.9775  19.2996  19.5748  19.9626
    20.0662  20.1424  20.5079  20.5694  20.7814  21.1930  21.6445  21.9483
    22.2109  22.3123  22.4302  22.6620  22.8426  22.9067  23.5398  23.9759
    24.3470  24.3634  24.8914  24.9066  25.2211  25.3803  25.4782  25.6387
    25.8407

          k = 0.2500-0.3536 0.0000 ( 17788 PWs)   bands (ev):

    -9.8555  -9.8555  -7.5985  -7.5985  -1.8157  -1.8157   1.5912   1.5912
     1.9906   1.9906   4.4336   4.4336   6.1593   6.1593   6.7672   6.7672
     8.4772   8.4772   8.9660   8.9660   9.2964   9.2964   9.4117   9.4117
     9.7421   9.7421   9.9238   9.9238  10.6185  10.6185  10.7189  10.7189
    10.8083  10.8083  11.0262  11.0262  11.3676  11.3676  11.5589  11.5589
    11.6312  11.6312  11.6614  11.6614  11.8684  11.8684  11.9464  11.9464
    12.0246  12.0246  12.0663  12.0663  12.2426  12.2426  12.3528  12.3528
    12.4670  12.4670  12.5218  12.5218  12.6148  12.6148  12.7253  12.7253
    12.8203  12.8203  12.8466  12.8466  12.8768  12.8768  12.9729  12.9729
    13.0579  13.0579  13.0832  13.0832  13.1434  13.1434  13.2383  13.2383
    13.3607  13.3607  13.4747  13.4747  13.5672  13.5672  13.6341  13.6341
    13.7279  13.7279  13.8139  13.8139  13.8580  13.8580  13.9158  13.9159
    13.9329  13.9329  14.0276  14.0276  14.1223  14.1223  14.3161  14.3161
    14.4405  14.4405  14.6337  14.6337  14.7248  14.7248  14.7748  14.7748
    14.8543  14.8543  14.9047  14.9047  14.9256  14.9256  15.0066  15.0066
    15.1135  15.1135  15.1411  15.1411  15.3571  15.3571  15.4981  15.4981
    15.6013  15.6013  15.7097  15.7097  15.9693  15.9693  16.0329  16.0329
    16.0732  16.0732  16.1706  16.1706  16.3445  16.3445  16.4030  16.4030
    16.4937  16.4938  16.5911  16.5911  16.7958  16.7958  17.7420  17.7420
    18.1079  18.1079  18.7248  18.7248  19.1858  19.1858  19.5242  19.5242
    20.2549  20.2549  20.3096  20.3096  21.2242  21.2242  21.5793  21.5793
    22.3658  22.3658  22.6436  22.6436  23.4768  23.4768  23.5935  23.5935
    24.3878  24.3878  25.2554  25.2554  25.3770  25.3771  25.4607  25.4607
    25.7046

          k = 0.3750 0.0000 0.0000 ( 17794 PWs)   bands (ev):

   -10.2276  -9.4803  -9.3917  -4.0934  -4.0930  -0.4377  -0.4368   0.4093
     0.8189   4.3211   4.3241   5.0059   5.0920   5.0941   7.3996   7.4013
     7.8395   8.1928   8.4369   8.6083   8.6749   9.0241   9.7296  10.0361
    10.0409  10.1058  10.1106  10.3425  10.4227  10.5375  10.5422  10.6099
    10.7200  10.8002  10.9617  11.1985  11.2252  11.2362  11.3523  11.4018
    11.4079  11.5285  11.5521  11.6624  11.7096  11.7523  11.8718  11.8786
    11.9428  12.0162  12.0420  12.1055  12.3348  12.3434  12.3902  12.4261
    12.5024  12.5128  12.5351  12.6195  12.6679  12.7109  12.8006  12.8811
    12.9076  12.9242  12.9291  12.9709  13.0565  13.0965  13.0994  13.1309
    13.1783  13.1906  13.2691  13.3014  13.3969  13.4366  13.5008  13.5231
    13.5757  13.6404  13.6561  13.6993  13.7139  13.7389  13.7671  13.8535
    13.8539  13.9109  13.9201  13.9395  13.9631  13.9911  14.0721  14.1527
    14.1791  14.2449  14.2462  14.2644  14.3425  14.3672  14.3757  14.5401
    14.5575  14.6013  14.6372  14.6787  14.8175  14.8330  14.8904  14.9597
    14.9742  14.9819  15.0283  15.1103  15.1112  15.1874  15.2498  15.2707
    15.3343  15.3568  15.3866  15.3890  15.5409  15.5603  15.5909  15.5958
    15.6235  15.7745  15.7892  15.8344  15.8859  15.9310  16.0010  16.0488
    16.0717  16.1489  16.1897  16.2784  16.2942  16.3615  16.4104  16.4548
    16.4752  16.5154  16.9386  17.0880  17.1487  17.4838  17.7240  17.9460
    18.0183  18.3241  18.5052  18.5669  18.8253  19.4203  19.4489  19.6535
    20.0755  20.0778  20.1341  20.4703  20.9185  21.1222  21.3390  21.4008
    21.4172  21.6082  21.7715  21.8145  21.9982  22.0978  22.2354  22.3503
    22.5086  22.6001  23.2468  23.3160  23.3925  23.5969  24.1206  24.1865
    24.7293

          k = 0.3750 0.0589 0.0000 ( 17796 PWs)   bands (ev):

   -10.1681  -9.9966  -8.6451  -5.3863  -2.7072  -1.8176   0.4408   0.8518
     0.9278   3.6444   4.2870   5.0236   5.0613   5.9818   6.5223   7.8826
     8.1166   8.1405   8.4136   8.6156   8.6721   9.0219   9.7549   9.8313
    10.0923  10.1327  10.2557  10.3779  10.4579  10.5090  10.6012  10.6335
    10.7408  10.8023  10.9868  11.1377  11.2182  11.3111  11.3551  11.3758
    11.4671  11.5290  11.5606  11.6374  11.7454  11.7575  11.8449  11.8741
    11.9523  12.0204  12.0484  12.0735  12.3085  12.3205  12.3732  12.3842
    12.5187  12.5225  12.6122  12.6180  12.6424  12.7182  12.8027  12.8519
    12.8529  12.9113  12.9402  12.9498  12.9797  13.0651  13.1186  13.1275
    13.1776  13.2053  13.3065  13.3246  13.4052  13.4546  13.5009  13.5299
    13.5836  13.6049  13.6636  13.6887  13.6892  13.7383  13.7400  13.8343
    13.8492  13.8862  13.8976  13.9416  13.9459  14.0143  14.0470  14.0589
    14.1734  14.1932  14.2575  14.2684  14.3049  14.3410  14.3828  14.4996
    14.5314  14.5883  14.6259  14.6763  14.7610  14.7812  14.8734  14.9271
    14.9993  15.0232  15.0326  15.0564  15.1045  15.1976  15.2282  15.2309
    15.2934  15.3065  15.3811  15.3906  15.4408  15.4464  15.5372  15.6205
    15.6340  15.7125  15.8432  15.8548  15.9413  15.9523  16.0001  16.0411
    16.0732  16.1599  16.1945  16.2514  16.3162  16.3179  16.4188  16.4465
    16.4644  16.5976  16.5987  17.0114  17.1997  17.5199  17.5655  17.8143
    17.8729  18.3686  18.5499  18.7777  18.9759  19.1975  19.4493  19.5844
    20.0272  20.0973  20.4124  20.5040  20.5044  20.9370  21.0277  21.2509
    21.4029  21.4998  21.6086  21.6857  21.8546  22.2407  22.4128  22.6416
    22.9589  23.2149  23.3066  23.4597  23.6152  23.6572  23.8826  24.4810
    24.7731

          k = 0.3750 0.1179 0.0000 ( 17793 PWs)   bands (ev):

   -10.3843  -9.9218  -7.6382  -6.5653  -3.1634  -1.2543   0.5353   0.9508
     2.2202   2.9453   3.5934   5.2290   5.5222   5.7210   6.9649   7.8626
     8.0108   8.2344   8.6314   8.7104   8.7889   9.0184   9.6231   9.8238
    10.1300  10.1948  10.3972  10.4469  10.4776  10.5540  10.6567  10.7252
    10.7908  10.8249  11.0305  11.0541  11.2378  11.2740  11.3918  11.4235
    11.4648  11.5063  11.5921  11.6423  11.7477  11.8082  11.8311  11.9019
    11.9712  12.0276  12.0539  12.0851  12.2334  12.2633  12.3502  12.4258
    12.4836  12.4927  12.6064  12.6370  12.6583  12.7391  12.7512  12.8005
    12.8209  12.8625  12.9300  12.9352  12.9809  13.0673  13.1044  13.1459
    13.1806  13.2067  13.3052  13.3261  13.3870  13.4025  13.4409  13.5323
    13.5424  13.6015  13.6144  13.6408  13.6518  13.6968  13.7253  13.7757
    13.8087  13.8327  13.8868  13.8882  13.9085  13.9632  13.9843  14.0643
    14.0873  14.1257  14.1705  14.1955  14.2837  14.3054  14.3083  14.4414
    14.4439  14.5480  14.5806  14.6375  14.6691  14.7376  14.7883  14.8442
    14.9246  14.9362  15.0064  15.0136  15.0580  15.0889  15.1445  15.1540
    15.2020  15.2934  15.3088  15.3584  15.3752  15.4414  15.5377  15.5680
    15.6252  15.6714  15.8196  15.8345  15.8784  15.8889  16.0050  16.0122
    16.1193  16.1269  16.1826  16.1923  16.2330  16.2914  16.3595  16.3618
    16.4615  16.6242  16.8558  16.8719  17.1555  17.1899  17.4461  17.7223
    18.0203  18.0768  18.2894  18.6353  19.0282  19.3497  19.4721  19.6872
    19.8473  20.1659  20.2797  20.3969  20.5708  20.6244  20.9263  20.9289
    21.1955  21.2804  21.3800  21.8467  21.9449  22.7961  23.0963  23.2076
    23.4278  23.6045  23.6134  23.6729  23.7896  24.1283  24.3055  24.6275
    24.8870

          k = 0.3750 0.1768 0.0000 ( 17788 PWs)   bands (ev):

   -10.5379  -9.5591  -7.6137  -6.4199  -4.4370   0.2325   0.6928   1.1178
     2.1520   2.9780   3.4066   4.4597   5.5127   6.4238   7.3774   7.8888
     7.9614   8.2200   8.7154   8.9903   9.0234   9.0776   9.4355   9.9118
    10.0820  10.2069  10.2841  10.4529  10.4872  10.6394  10.7228  10.7901
    10.8471  10.9122  10.9299  11.0940  11.1397  11.3348  11.3782  11.4548
    11.4897  11.5557  11.6762  11.6940  11.7798  11.7933  11.8563  11.8817
    12.0054  12.0837  12.0923  12.1535  12.1953  12.2127  12.3129  12.4466
    12.4496  12.5305  12.6029  12.6049  12.6447  12.7592  12.7680  12.7912
    12.8153  12.8289  12.9014  12.9123  13.0095  13.0510  13.0726  13.1138
    13.1486  13.1736  13.2183  13.2765  13.3515  13.3637  13.3948  13.4449
    13.4807  13.5136  13.5181  13.5781  13.6054  13.6678  13.6727  13.7265
    13.7478  13.7893  13.7975  13.8658  13.9096  13.9371  13.9580  13.9856
    14.0493  14.0527  14.0615  14.1353  14.1962  14.2274  14.2471  14.3752
    14.3920  14.4269  14.4667  14.5096  14.5893  14.6345  14.6979  14.7392
    14.7574  14.8263  14.8525  14.8789  14.9843  15.0027  15.0791  15.0840
    15.1158  15.2450  15.2920  15.3214  15.3569  15.4405  15.5329  15.6256
    15.6538  15.6738  15.6882  15.7823  15.8021  15.8942  15.9126  15.9384
    15.9884  16.0292  16.0445  16.1333  16.1654  16.3358  16.3429  16.4617
    16.6620  16.7131  16.8126  16.9052  17.0657  17.2205  17.3246  17.7343
    17.8463  18.0558  18.1183  18.3374  18.8310  19.1104  19.6811  19.7090
    19.8332  19.8438  20.0142  20.2781  20.2836  20.4059  20.9146  21.0948
    21.2438  21.4344  21.9153  22.0923  22.3241  22.9768  23.2996  23.5648
    23.7556  23.7893  23.8949  24.1983  24.3914  24.7217  25.0000  25.0538
    25.3088

          k = 0.3750 0.2357 0.0000 ( 17756 PWs)   bands (ev):

   -10.4962  -9.0490  -8.5183  -5.6119  -5.0091   0.9136   1.1400   1.3567
     1.7137   2.4344   3.4540   4.4519   5.9140   6.6442   7.1281   7.4302
     8.4996   8.7311   8.8023   9.0467   9.1266   9.2600   9.2759   9.5015
     9.9486  10.1095  10.2902  10.3078  10.3645  10.5127  10.7845  10.8390
    10.8689  11.0173  11.0770  11.2295  11.2487  11.3718  11.4009  11.4974
    11.5492  11.5889  11.7090  11.7727  11.8126  11.8478  11.8872  11.9631
    12.0467  12.1336  12.1488  12.2308  12.2677  12.2893  12.3409  12.4573
    12.4617  12.5169  12.5438  12.6165  12.6672  12.7643  12.7700  12.7883
    12.8308  12.8577  12.8721  12.9059  12.9892  13.0227  13.0441  13.0723
    13.1020  13.1513  13.1542  13.1760  13.2589  13.2679  13.3479  13.3739
    13.4395  13.4435  13.4873  13.5193  13.5384  13.5515  13.5826  13.6547
    13.7033  13.7576  13.8000  13.8170  13.8552  13.8667  13.9082  13.9620
    14.0088  14.0222  14.0571  14.1230  14.1356  14.1526  14.1981  14.2172
    14.2835  14.2867  14.4012  14.4839  14.5054  14.5094  14.5409  14.5964
    14.6526  14.7019  14.7456  14.8670  14.9020  15.0003  15.0316  15.0396
    15.0848  15.1734  15.1946  15.2263  15.3477  15.3629  15.4177  15.5178
    15.5265  15.6452  15.7048  15.7465  15.7913  15.7927  15.8999  15.9064
    15.9557  16.0003  16.0502  16.1106  16.2456  16.3207  16.4203  16.4576
    16.5641  16.5894  16.7720  17.0496  17.2305  17.2470  17.5376  17.5407
    17.7480  17.9115  18.3557  18.4981  18.6342  18.7136  19.0646  19.3736
    19.4786  19.5479  19.8283  20.0047  20.4394  20.5750  21.1866  21.3776
    21.4765  21.7120  21.8869  22.4172  22.8286  23.2684  23.4268  23.9097
    23.9380  23.9549  24.3137  24.7681  24.9227  25.0171  25.4392  25.6123
    25.7734

          k = 0.3750 0.2946 0.0000 ( 17761 PWs)   bands (ev):

   -10.2654  -9.2680  -8.3950  -6.6703  -3.4450  -0.2116   1.1976   1.6765
     1.9574   2.6599   3.1502   5.3674   5.6397   6.4787   6.8726   7.7829
     8.1130   8.7784   8.8113   9.1328   9.1418   9.3760   9.5590   9.5739
     9.6505   9.8527   9.9988  10.1646  10.4553  10.5894  10.7520  10.7917
    10.9830  11.1161  11.1460  11.2907  11.3959  11.4790  11.5134  11.6119
    11.6137  11.6834  11.7100  11.8519  11.9165  11.9536  11.9848  12.0563
    12.0634  12.1387  12.1960  12.2211  12.2686  12.3716  12.3917  12.4333
    12.4741  12.4988  12.5662  12.5917  12.7055  12.7230  12.7286  12.7734
    12.8357  12.8444  12.8921  12.9438  12.9538  12.9697  13.0276  13.0587
    13.0797  13.1217  13.1385  13.1768  13.2088  13.2195  13.3005  13.3061
    13.3564  13.3833  13.3955  13.4527  13.4840  13.4903  13.5696  13.5785
    13.6633  13.7011  13.7200  13.7836  13.8285  13.8629  13.8638  13.9100
    13.9117  13.9855  14.0093  14.0475  14.0744  14.1008  14.1241  14.2202
    14.2979  14.3757  14.4329  14.4386  14.4880  14.5172  14.5494  14.5683
    14.6398  14.6654  14.7066  14.7542  14.8437  14.8664  14.8978  15.0045
    15.0183  15.0746  15.1571  15.1765  15.2246  15.3072  15.3532  15.4470
    15.5486  15.5574  15.6344  15.6773  15.7259  15.8847  15.8884  15.9567
    15.9981  16.0148  16.0785  16.2022  16.2248  16.2728  16.3169  16.3379
    16.4766  16.5266  16.8141  17.1213  17.1243  17.2780  17.4634  17.6159
    17.7961  18.1995  18.2371  18.4888  18.5727  18.6581  18.9802  19.0358
    19.1018  19.2066  19.6187  19.7003  20.6463  20.7987  21.2210  21.3774
    21.5607  21.7762  22.0902  22.4901  23.2860  23.5190  23.9993  24.0242
    24.1353  24.5548  24.5559  24.7119  25.2378  25.4064  25.5620  25.9204
    26.1774

          k = 0.3750-0.3536 0.0000 ( 17776 PWs)   bands (ev):

    -9.8532  -9.8532  -7.6006  -7.6006  -1.8020  -1.8020   1.5454   1.5454
     2.0970   2.0970   4.4730   4.4730   6.1607   6.1607   7.2047   7.2047
     8.4328   8.4328   9.0185   9.0185   9.4056   9.4056   9.4506   9.4506
     9.8462   9.8462   9.9053   9.9053  10.6090  10.6091  10.6975  10.6975
    11.0838  11.0838  11.2361  11.2361  11.5139  11.5139  11.6139  11.6139
    11.6964  11.6964  11.8284  11.8284  11.9399  11.9399  12.0796  12.0796
    12.1781  12.1781  12.1993  12.1993  12.2287  12.2287  12.4241  12.4241
    12.4641  12.4641  12.5817  12.5817  12.7217  12.7217  12.7598  12.7598
    12.8260  12.8260  12.8945  12.8945  12.9727  12.9727  13.0802  13.0802
    13.1231  13.1231  13.1525  13.1525  13.1805  13.1805  13.2720  13.2720
    13.3289  13.3289  13.4338  13.4338  13.4585  13.4585  13.4975  13.4975
    13.6476  13.6476  13.7495  13.7495  13.8224  13.8224  13.8416  13.8416
    13.9175  13.9175  13.9947  13.9947  14.0625  14.0625  14.1973  14.1973
    14.3707  14.3707  14.4546  14.4546  14.5383  14.5383  14.5913  14.5913
    14.6911  14.6911  14.7466  14.7466  14.7982  14.7982  14.8393  14.8393
    15.0135  15.0135  15.1712  15.1712  15.2760  15.2760  15.4265  15.4265
    15.5302  15.5302  15.6531  15.6531  15.7605  15.7605  15.9272  15.9272
    16.0301  16.0301  16.0924  16.0924  16.1431  16.1431  16.3450  16.3450
    16.4424  16.4424  16.9683  16.9683  17.0786  17.0786  17.6451  17.6451
    17.9218  17.9218  18.5233  18.5233  18.7509  18.7509  18.8164  18.8164
    19.0971  19.0971  19.4545  19.4545  20.9059  20.9059  21.0610  21.0610
    21.9748  21.9748  22.0945  22.0946  23.6746  23.6746  24.2878  24.2878
    24.4381  24.4381  24.6349  24.6349  25.2144  25.2144  26.0398  26.0404
    26.1738

          k =-0.5000 0.0000 0.0000 ( 17814 PWs)   bands (ev):

   -10.2283  -9.4782  -9.3927  -4.0896  -4.0892  -0.4387  -0.4377   0.3846
     0.8584   4.3489   4.3519   5.0792   5.0812   5.3078   7.4528   7.4544
     7.8403   8.0959   8.2038   8.6238   8.6953   9.0209  10.0300  10.0359
    10.1005  10.1037  10.3086  10.4299  10.5040  10.5142  10.5863  10.6985
    10.8016  10.9830  11.0737  11.1075  11.1668  11.1893  11.1939  11.2410
    11.4378  11.4392  11.7251  11.7392  11.7402  11.8246  11.9719  12.0523
    12.0637  12.0973  12.1319  12.2087  12.2520  12.3943  12.4553  12.4952
    12.5155  12.6140  12.6238  12.7414  12.7448  12.7854  12.7910  12.8278
    12.8555  12.9039  12.9504  12.9749  12.9845  13.0358  13.1270  13.1346
    13.2126  13.2406  13.2554  13.2641  13.2755  13.3228  13.4069  13.4071
    13.4350  13.5130  13.6327  13.6563  13.6578  13.6711  13.7077  13.7503
    13.8270  13.8434  13.8548  13.8607  13.9396  13.9521  14.0048  14.0470
    14.1105  14.2412  14.2887  14.3003  14.3020  14.3586  14.4883  14.5162
    14.5510  14.5941  14.6644  14.7517  14.8236  14.9077  14.9142  14.9163
    14.9324  14.9574  15.0162  15.0266  15.0343  15.0810  15.1048  15.2052
    15.3021  15.3549  15.4198  15.5666  15.5978  15.6417  15.6831  15.7381
    15.7427  15.8600  15.8788  15.9195  15.9518  15.9977  16.0503  16.1657
    16.2157  16.2186  16.2611  16.2670  16.3013  16.3587  16.3808  16.4381
    16.4505  16.4573  16.4642  16.5823  16.7891  16.7919  16.8729  18.0029
    18.0847  18.4403  18.5943  18.6163  18.8398  18.9339  19.3766  19.8045
    19.8699  20.4181  20.5634  20.8104  21.0447  21.0490  21.1199  21.2238
    21.4005  21.4532  21.4956  21.5199  21.5985  21.7928  21.8760  22.0444
    22.6897  22.7145  22.7438  23.1049  23.4324  23.5065  23.8358  23.8829
    24.0193

          k =-0.5000 0.0589 0.0000 ( 17814 PWs)   bands (ev):

   -10.1687  -9.9961  -8.6445  -5.3833  -2.7021  -1.8186   0.4162   0.8913
     0.9272   3.6663   4.2850   5.0372   5.3634   5.9802   6.5940   7.8834
     8.0625   8.1559   8.1782   8.5471   8.7381   9.0205   9.8463  10.0690
    10.1260  10.2426  10.3276  10.4719  10.4916  10.5527  10.6216  10.7171
    10.8161  11.0183  11.0916  11.0922  11.1289  11.2038  11.2394  11.3037
    11.3777  11.5254  11.6894  11.7090  11.7768  11.8085  11.8980  12.0375
    12.0704  12.0779  12.1359  12.2441  12.2529  12.3966  12.4476  12.5162
    12.5727  12.6141  12.6406  12.7214  12.7301  12.7766  12.7929  12.8350
    12.8448  12.8916  12.9279  12.9296  12.9628  12.9674  13.0414  13.1501
    13.1900  13.1989  13.2444  13.2953  13.3020  13.3395  13.4243  13.4341
    13.4732  13.5164  13.6436  13.6472  13.6585  13.6631  13.7038  13.7087
    13.7883  13.8080  13.8358  13.8675  13.9248  13.9471  14.0117  14.0557
    14.0802  14.2142  14.2682  14.2839  14.2993  14.4038  14.4611  14.4688
    14.5411  14.5835  14.6739  14.7373  14.7403  14.8000  14.8369  14.8741
    14.9368  15.0069  15.0324  15.0434  15.1219  15.1368  15.1381  15.2032
    15.2859  15.3168  15.4161  15.4552  15.5464  15.5544  15.5781  15.7269
    15.7356  15.8113  15.8200  15.8561  15.9021  15.9493  15.9971  16.0748
    16.1647  16.2139  16.2159  16.2411  16.2990  16.3241  16.3313  16.3781
    16.4064  16.5261  16.5870  16.5914  16.8408  17.0705  17.1261  17.7879
    17.8321  18.1487  18.2811  18.7963  18.9876  19.1757  19.3826  19.4664
    19.7244  20.0199  20.1152  20.8083  20.8881  21.0984  21.2750  21.2803
    21.3586  21.4983  21.5517  21.6989  21.8207  22.0049  22.0976  22.3318
    22.7437  22.7963  22.7993  22.9200  23.2596  23.4019  23.8872  24.3733
    24.8052

          k =-0.5000 0.1179 0.0000 ( 17794 PWs)   bands (ev):

   -10.3837  -9.9225  -7.6374  -6.5630  -3.1645  -1.2476   0.5112   0.9906
     2.2223   2.9611   3.5850   5.5316   5.6031   5.7331   6.9750   7.8366
     8.0115   8.1481   8.3829   8.6731   8.8652   9.0215   9.6456  10.1041
    10.1980  10.3652  10.3672  10.4303  10.5933  10.6612  10.7180  10.7703
    10.8341  11.0036  11.1128  11.1174  11.1719  11.2341  11.2570  11.3129
    11.4261  11.5112  11.6159  11.6761  11.8132  11.8620  11.8938  12.0300
    12.0559  12.0836  12.1566  12.2194  12.3661  12.4048  12.4414  12.5245
    12.5348  12.6446  12.6664  12.6866  12.7057  12.7297  12.7541  12.7664
    12.7885  12.7972  12.9160  12.9168  12.9227  12.9759  12.9987  13.1388
    13.1774  13.2097  13.2190  13.2703  13.2949  13.3129  13.4316  13.4393
    13.4993  13.5076  13.6116  13.6507  13.6516  13.6714  13.6842  13.6923
    13.7152  13.7211  13.7926  13.8574  13.9114  13.9311  13.9467  13.9621
    14.1176  14.1275  14.1783  14.2295  14.2948  14.3896  14.4372  14.4427
    14.5355  14.5968  14.6140  14.6206  14.6436  14.6850  14.7615  14.7643
    14.9182  14.9668  15.0196  15.0469  15.0512  15.0987  15.1504  15.1684
    15.2281  15.2849  15.3657  15.3741  15.4110  15.4520  15.4831  15.5440
    15.6133  15.6771  15.6866  15.7108  15.7395  15.9267  15.9354  16.0026
    16.0371  16.0708  16.0763  16.1915  16.2435  16.2737  16.3915  16.5391
    16.5401  16.5870  16.6105  16.8310  16.9141  17.3001  17.4070  17.4850
    17.6090  17.8305  17.8725  18.5547  19.1874  19.3133  19.3613  19.3896
    19.4160  19.4534  19.5820  20.0827  20.9154  21.0116  21.2774  21.3557
    21.4298  21.6434  21.7854  22.0520  22.1888  22.4280  22.4880  22.7832
    22.9218  22.9991  23.0398  23.2313  23.5641  23.9820  24.6661  24.7531
    25.0889

          k =-0.5000 0.1768 0.0000 ( 17756 PWs)   bands (ev):

   -10.5373  -9.5598  -7.6120  -6.4186  -4.4380   0.2414   0.6696   1.1581
     2.1699   2.9670   3.4027   4.5301   5.8171   6.4356   7.3663   7.8661
     8.0020   8.2207   8.3992   8.9956   9.0308   9.0685   9.4614  10.0871
    10.1837  10.3047  10.3351  10.4337  10.7268  10.7703  10.7718  10.8111
    10.8599  10.9140  11.0623  11.1507  11.1554  11.2802  11.2873  11.4779
    11.4866  11.5098  11.6623  11.7292  11.8638  11.8899  11.9981  12.0338
    12.0902  12.1019  12.1387  12.1776  12.3502  12.3942  12.4190  12.4948
    12.5116  12.5196  12.5636  12.6561  12.6568  12.6940  12.7558  12.8093
    12.8199  12.8449  12.8791  12.9326  12.9632  12.9884  13.0849  13.0960
    13.1345  13.1595  13.1640  13.2439  13.2670  13.2921  13.3621  13.4320
    13.4371  13.4707  13.5202  13.5314  13.6171  13.6440  13.6473  13.6950
    13.7401  13.7631  13.7741  13.7931  13.8231  13.8586  13.9446  13.9607
    14.0372  14.0514  14.1102  14.1690  14.2804  14.3079  14.3292  14.3852
    14.4070  14.4479  14.4965  14.5009  14.6212  14.6214  14.6880  14.7863
    14.8513  14.8744  14.8841  14.9176  14.9254  14.9495  14.9650  14.9807
    15.0825  15.0845  15.2215  15.2916  15.3534  15.3889  15.4440  15.5267
    15.5334  15.5950  15.6333  15.6601  15.7450  15.7871  15.8404  15.9371
    16.0140  16.0529  16.0669  16.0754  16.1362  16.2718  16.4373  16.4628
    16.5827  16.7463  16.8092  16.8642  17.0702  17.2252  17.2311  17.4061
    17.7563  17.8462  18.0864  18.0883  18.6849  18.8705  18.9536  19.4226
    19.4583  19.6251  19.7707  19.8399  20.0945  20.5843  21.1724  21.5262
    21.5607  21.6721  21.7980  22.4074  22.7393  22.8569  23.0401  23.1034
    23.2800  23.7933  23.9771  24.0203  24.4374  24.4843  24.6211  24.7025
    24.9483

          k =-0.5000 0.2357 0.0000 ( 17778 PWs)   bands (ev):

   -10.4955  -9.0497  -8.5169  -5.6128  -5.0071   0.8915   1.1533   1.3981
     1.7254   2.4207   3.5125   4.4490   6.2284   6.6354   7.1332   7.4120
     8.4901   8.5063   8.8949   9.0608   9.1878   9.3022   9.3276   9.3334
    10.0285  10.2823  10.3117  10.3856  10.4496  10.5902  10.8128  10.9483
    11.0007  11.1135  11.1340  11.2000  11.2049  11.3572  11.4640  11.4752
    11.6185  11.6814  11.7224  11.8096  11.8572  11.9499  11.9994  12.0193
    12.1204  12.1960  12.2030  12.2271  12.3218  12.3735  12.4331  12.4911
    12.4980  12.5074  12.5184  12.5387  12.5426  12.7525  12.8133  12.8463
    12.8539  12.9145  12.9213  12.9378  12.9584  12.9911  13.0218  13.0723
    13.0962  13.1191  13.1841  13.1860  13.1957  13.2896  13.2902  13.3326
    13.3872  13.4299  13.4418  13.5170  13.5257  13.5799  13.5934  13.6849
    13.7208  13.7524  13.8299  13.8447  13.8534  13.9078  13.9359  13.9632
    13.9856  13.9865  14.0044  14.1092  14.1126  14.1799  14.1907  14.2468
    14.2524  14.3675  14.3896  14.4388  14.4436  14.5439  14.5646  14.6150
    14.7100  14.7573  14.7844  14.7999  14.8571  14.8761  14.8808  14.9412
    14.9440  14.9607  15.0767  15.2367  15.2649  15.2890  15.3118  15.3734
    15.4428  15.5850  15.6061  15.7179  15.7373  15.7945  15.8725  15.9210
    15.9607  16.0014  16.0703  16.0938  16.1570  16.2103  16.3559  16.5226
    16.6007  16.6822  16.8564  16.9626  17.0542  17.0779  17.3877  17.5440
    17.6668  17.8719  18.2933  18.3235  18.3837  18.4605  18.6300  18.9805
    19.3626  19.4868  19.7338  19.9576  19.9794  20.1993  20.9297  21.2215
    21.4474  21.8779  21.9683  22.9798  23.1608  23.1983  23.6485  23.8203
    24.0549  24.2264  24.2350  24.3697  24.4409  24.9198  25.2262  25.3672
    25.6611

          k =-0.5000 0.2946 0.0000 ( 17762 PWs)   bands (ev):

   -10.2646  -9.2669  -8.3958  -6.6712  -3.4416  -0.2026   1.1771   1.7196
     1.9411   2.7159   3.1581   5.3647   5.6633   6.7796   6.8426   7.7963
     8.3617   8.5376   8.8168   9.1470   9.1511   9.1719   9.5624   9.6424
     9.6830   9.8497  10.2043  10.4205  10.4341  10.5632  10.7713  10.7850
    11.1819  11.2670  11.2917  11.3445  11.3479  11.3849  11.4898  11.6392
    11.7571  11.7744  11.8655  11.8974  11.9153  11.9494  12.0439  12.0859
    12.1426  12.1883  12.2959  12.3374  12.3564  12.3881  12.4330  12.4443
    12.4544  12.4661  12.4914  12.5479  12.5908  12.6096  12.6939  12.7501
    12.8750  12.9279  12.9478  12.9915  13.0034  13.0209  13.0232  13.0363
    13.0857  13.0997  13.1091  13.1106  13.2132  13.3041  13.3060  13.3471
    13.3479  13.3931  13.4054  13.4311  13.4949  13.5556  13.5574  13.6276
    13.7279  13.7457  13.7497  13.8111  13.8306  13.8923  13.9090  13.9341
    13.9479  13.9928  14.0044  14.0282  14.0510  14.0939  14.1459  14.1868
    14.1961  14.2550  14.3696  14.3736  14.4248  14.4286  14.4597  14.5551
    14.5948  14.6313  14.6766  14.6874  14.7399  14.7965  14.8093  14.9408
    15.0013  15.0582  15.0695  15.0790  15.1051  15.2100  15.3371  15.3454
    15.3966  15.4660  15.6354  15.6756  15.7791  15.8000  15.8600  15.8663
    15.8851  16.0260  16.0393  16.1716  16.1832  16.2251  16.2713  16.4895
    16.5497  16.7052  16.7809  16.7826  17.0431  17.3521  17.3611  17.5987
    17.7552  17.8708  18.0132  18.0570  18.1319  18.5766  18.6768  18.8633
    19.4673  19.6042  19.7871  19.8668  19.8694  19.9686  20.3240  20.6393
    21.9827  22.2454  22.3196  23.1548  23.3005  23.3266  23.6465  23.6753
    24.0198  24.4903  24.7398  24.9933  25.2788  25.4135  25.8699  26.2711
    26.3265

          k =-0.5000-0.3536 0.0000 ( 17712 PWs)   bands (ev):

    -9.8523  -9.8523  -7.6014  -7.6014  -1.7964  -1.7964   1.5268   1.5268
     2.1434   2.1434   4.4882   4.4882   6.1605   6.1605   7.4884   7.4885
     8.3305   8.3305   9.0379   9.0379   9.2465   9.2465   9.4160   9.4160
     9.9439   9.9439  10.1333  10.1333  10.6003  10.6003  10.6833  10.6833
    11.3055  11.3055  11.3404  11.3404  11.3986  11.3986  11.6577  11.6577
    11.8213  11.8213  11.8943  11.8943  11.9582  11.9582  12.0943  12.0943
    12.2177  12.2177  12.2578  12.2578  12.4018  12.4018  12.4483  12.4483
    12.4551  12.4551  12.5027  12.5027  12.6264  12.6264  12.6875  12.6875
    12.7851  12.7851  13.0088  13.0088  13.0214  13.0214  13.0657  13.0657
    13.1089  13.1089  13.1440  13.1440  13.2209  13.2209  13.2660  13.2660
    13.3930  13.3930  13.4446  13.4446  13.5099  13.5099  13.5571  13.5571
    13.6895  13.6895  13.7501  13.7501  13.8013  13.8013  13.8384  13.8384
    13.9313  13.9313  14.0742  14.0742  14.0815  14.0815  14.1095  14.1095
    14.3261  14.3261  14.3728  14.3728  14.3976  14.3976  14.4322  14.4322
    14.5357  14.5357  14.6919  14.6919  14.7599  14.7599  14.8824  14.8824
    15.0194  15.0194  15.0834  15.0835  15.1654  15.1654  15.3654  15.3654
    15.4368  15.4368  15.7000  15.7000  15.7722  15.7722  15.8646  15.8646
    15.8829  15.8829  15.9357  15.9357  16.3104  16.3104  16.4042  16.4042
    16.4937  16.4937  16.7815  16.7815  17.0784  17.0784  17.6384  17.6384
    17.8014  17.8014  17.8839  17.8839  18.2465  18.2465  18.9992  18.9992
    19.6688  19.6688  19.8087  19.8087  19.8866  19.8866  20.0878  20.0878
    22.3322  22.3322  22.8246  22.8246  23.3781  23.3781  23.4728  23.4728
    24.1325  24.1325  25.3837  25.3837  26.1638  26.1640  26.2528  26.2535
    26.4102

     the Fermi energy is    18.4404 ev

!    total energy              =  -21686.95171510 Ry

     total all-electron energy =  -1064654.642264 Ry
     estimated scf accuracy    <       0.00000088 Ry
     smearing contrib. (-TS)   =      -0.02062564 Ry
     internal energy E=F+TS    =  -21686.93108946 Ry

     The total energy is F=E-TS. E is the sum of the following terms:
     one-electron contribution =      25.70353376 Ry
     hartree contribution      =     406.19132767 Ry
     xc contribution           =    -908.28572900 Ry
     ewald contribution        =   -1816.56174369 Ry
     one-center paw contrib.   =  -19393.97847820 Ry

     convergence has been achieved in  22 iterations

     negative rho (up, down):  9.460E-02 0.000E+00

     Forces acting on atoms (cartesian axes, Ry/au):

     atom    1 type  1   force =     1.54074652    0.00000989    0.08597093
     atom    2 type  1   force =     1.54074652   -0.00000989    0.08597093
     atom    3 type  1   force =    -0.14825265    0.00000000    0.28912395
     atom    4 type  1   force =    -0.14825161    0.00000000    0.28911945
     atom    5 type  1   force =     0.00834172   -0.00000203    0.05516208
     atom    6 type  1   force =     0.00834172    0.00000203    0.05516208
     atom    7 type  1   force =     0.00096603    0.00000000    0.01075494
     atom    8 type  1   force =     0.00096327    0.00000000    0.01075709
     atom    9 type  1   force =    -0.00020789    0.00000124    0.00178094
     atom   10 type  1   force =    -0.00020789   -0.00000124    0.00178094
     atom   11 type  1   force =    -0.00037054    0.00000000   -0.00312663
     atom   12 type  1   force =    -0.00037188    0.00000000   -0.00312444
     atom   13 type  1   force =    -0.00479716    0.00000138   -0.00572689
     atom   14 type  1   force =    -0.00479716   -0.00000138   -0.00572689
     atom   15 type  1   force =     0.16552700    0.00000000   -1.11672022
     atom   16 type  1   force =     0.16552874    0.00000000   -1.11671600
     atom   17 type  1   force =    -0.16452509    0.00000478    1.11620063
     atom   18 type  1   force =    -0.16452509   -0.00000478    1.11620063
     atom   19 type  1   force =     0.00498109    0.00000000    0.00189283
     atom   20 type  1   force =     0.00498217    0.00000000    0.00189152
     atom   21 type  1   force =    -0.00086097   -0.00000027   -0.00601201
     atom   22 type  1   force =    -0.00086097    0.00000027   -0.00601201
     atom   23 type  1   force =    -0.00835504    0.00000000   -0.05405609
     atom   24 type  1   force =    -0.00835351    0.00000000   -0.05405161
     atom   25 type  1   force =     0.14776999    0.00000392   -0.28974677
     atom   26 type  1   force =     0.14776999   -0.00000392   -0.28974677
     atom   27 type  1   force =    -1.54096199    0.00000000   -0.08550188
     atom   28 type  1   force =    -1.54096532    0.00000000   -0.08550076

     Total force =     3.880288     Total SCF correction =     0.002164

     Writing all to output data dir ./pwscf.save/
 
     init_run     :     15.12s CPU     15.56s WALL (       1 calls)
     electrons    :    904.23s CPU    912.17s WALL (       1 calls)
     forces       :      6.53s CPU      6.59s WALL (       1 calls)

     Called by init_run:
     wfcinit      :     14.41s CPU     14.72s WALL (       1 calls)
     potinit      :      0.44s CPU      0.49s WALL (       1 calls)
     hinit0       :      0.12s CPU      0.16s WALL (       1 calls)

     Called by electrons:
     c_bands      :    815.62s CPU    822.67s WALL (      22 calls)
     sum_band     :     80.53s CPU     81.23s WALL (      22 calls)
     v_of_rho     :      0.42s CPU      0.50s WALL (      23 calls)
     newd         :      0.80s CPU      0.89s WALL (      23 calls)
     PAW_pot      :      7.20s CPU      7.22s WALL (      23 calls)
     mix_rho      :      0.09s CPU      0.09s WALL (      22 calls)

     Called by c_bands:
     init_us_2    :      4.25s CPU      4.28s WALL (    1610 calls)
     init_us_2:cp :      4.25s CPU      4.28s WALL (    1610 calls)
     cegterg      :    779.09s CPU    785.85s WALL (     770 calls)

     Called by *egterg:
     cdiaghg      :     98.23s CPU     99.12s WALL (    4582 calls)
     h_psi        :    366.53s CPU    370.34s WALL (    4617 calls)
     s_psi        :     74.08s CPU     74.46s WALL (    4617 calls)
     g_psi        :      1.13s CPU      1.13s WALL (    3812 calls)

     Called by h_psi:
     h_psi:calbec :     84.39s CPU     84.67s WALL (    4617 calls)
     vloc_psi     :    200.39s CPU    202.75s WALL (    4617 calls)
     add_vuspsi   :     80.52s CPU     80.77s WALL (    4617 calls)

     General routines
     calbec       :    120.56s CPU    120.95s WALL (    5527 calls)
     fft          :      0.41s CPU      0.54s WALL (     264 calls)
     ffts         :      0.02s CPU      0.02s WALL (      22 calls)
     fftw         :    222.72s CPU    225.02s WALL (  839110 calls)
 
     Parallel routines
 
     PWSCF        :  15m33.19s CPU  15m48.24s WALL

 
   This run was terminated on:  10:22:20   2Mar2024            

=------------------------------------------------------------------------------=
   JOB DONE.
=------------------------------------------------------------------------------=
