MPI startup(): Warning: I_MPI_PMI_LIBRARY will be ignored since the hydra process manager was found
MPI startup(): Warning: I_MPI_PMI_LIBRARY will be ignored since the hydra process manager was found
MPI startup(): Warning: I_MPI_PMI_LIBRARY will be ignored since the hydra process manager was found
MPI startup(): Warning: I_MPI_PMI_LIBRARY will be ignored since the hydra process manager was found
MPI startup(): Warning: I_MPI_PMI_LIBRARY will be ignored since the hydra process manager was found
MPI startup(): Warning: I_MPI_PMI_LIBRARY will be ignored since the hydra process manager was found
MPI startup(): Warning: I_MPI_PMI_LIBRARY will be ignored since the hydra process manager was found
MPI startup(): Warning: I_MPI_PMI_LIBRARY will be ignored since the hydra process manager was found
MPI startup(): Warning: I_MPI_PMI_LIBRARY will be ignored since the hydra process manager was found
MPI startup(): Warning: I_MPI_PMI_LIBRARY will be ignored since the hydra process manager was found

     Program PWSCF v.7.0 starts on 14Mar2024 at  4:24: 8 

     This program is part of the open-source Quantum ESPRESSO suite
     for quantum simulation of materials; please cite
         "P. Giannozzi et al., J. Phys.:Condens. Matter 21 395502 (2009);
         "P. Giannozzi et al., J. Phys.:Condens. Matter 29 465901 (2017);
         "P. Giannozzi et al., J. Chem. Phys. 152 154105 (2020);
          URL http://www.quantum-espresso.org", 
     in publications or presentations arising from this work. More details at
     http://www.quantum-espresso.org/quote

     Parallel version (MPI), running on    10 processors

     MPI processes distributed on     1 nodes
     R & G space division:  proc/nbgrp/npool/nimage =      10
     121534 MiB available memory on the printing compute node when the environment starts
 
     Reading input from GSF110R_0.35.in
Warning: card &CELL ignored
Warning: card / ignored

     Current dimensions of program PWSCF are:
     Max number of different atomic species (ntypx) = 10
     Max number of k-points (npk) =  40000
     Max angular momentum in pseudopotentials (lmaxx) =  4

     File ./pwscf.update deleted, as requested

     File ./pwscf.bfgs deleted, as requested
     file Au.pbe-n-kjpaw_psl.1.0.0.UPF: wavefunction(s)  6S 5D renormalized
     Found identity + (  0.0000 -0.5000  0.0000) symmetry
     This is a supercell, fractional translations are disabled

     Subspace diagonalization in iterative solution of the eigenvalue problem:
     one sub-group per band group will be used
     scalapack distributed-memory algorithm (size of sub-group:  3*  3 procs)

 
     Parallelization info
     --------------------
     sticks:   dense  smooth     PW     G-vecs:    dense   smooth      PW
     Min         133     133     38                14227    14227    2178
     Max         134     134     39                14242    14242    2183
     Sum        1339    1339    389               142317   142317   21821
 
     Using Slab Decomposition
 


     bravais-lattice index     =            0
     lattice parameter (alat)  =       7.7101  a.u.
     unit-cell volume          =    2979.1368 (a.u.)^3
     number of atoms/cell      =           28
     number of atomic types    =            1
     number of electrons       =       308.00
     number of Kohn-Sham states=          185
     kinetic-energy cutoff     =      50.0000  Ry
     charge density cutoff     =     200.0000  Ry
     scf convergence threshold =      1.0E-06
     mixing beta               =       0.1000
     number of iterations used =            8  plain     mixing
     energy convergence thresh.=      1.0E-04
     force convergence thresh. =      1.0E-03
     Exchange-correlation= SLA  PW   PBX  PBC
                           (   1   4   3   4   0   0   0)
     nstep                     =           50


     celldm(1)=   7.710083  celldm(2)=   0.000000  celldm(3)=   0.000000
     celldm(4)=   0.000000  celldm(5)=   0.000000  celldm(6)=   0.000000

     crystal axes: (cart. coord. in units of alat)
               a(1) = (   1.000000   0.000000   0.000000 )  
               a(2) = (   0.000000   1.414214   0.000000 )  
               a(3) = (   0.000000   0.000000   4.596194 )  

     reciprocal axes: (cart. coord. in units 2 pi/alat)
               b(1) = (  1.000000  0.000000  0.000000 )  
               b(2) = (  0.000000  0.707107  0.000000 )  
               b(3) = (  0.000000  0.000000  0.217571 )  


     PseudoPot. # 1 for Au read from file:
     ./Au.pbe-n-kjpaw_psl.1.0.0.UPF
     MD5 check sum: 4db85c736373c707a97ce4c36c2a9d23
     Pseudo is Projector augmented-wave + core cor, Zval = 11.0
     Generated using &quot;atomic&quot; code by A. Dal Corso  v.6.3
     Shape of augmentation charge: PSQ
     Using radial grid of 1279 points,  6 beta functions with: 
                l(1) =   0
                l(2) =   0
                l(3) =   1
                l(4) =   1
                l(5) =   2
                l(6) =   2
     Q(r) pseudized with 0 coefficients 


     atomic species   valence    mass     pseudopotential
        Au            11.00   196.96657     Au( 1.00)

     No symmetry found



   Cartesian axes

     site n.     atom                  positions (alat units)
         1           Au  tau(   1) = (   0.5000000   0.3535534   0.0000000  )
         2           Au  tau(   2) = (   0.5000000   1.0606602   0.0000000  )
         3           Au  tau(   3) = (   0.0000000   0.0000000   0.3535534  )
         4           Au  tau(   4) = (   0.0000000   0.7071068   0.3535534  )
         5           Au  tau(   5) = (   0.5000000   0.3535534   0.7071068  )
         6           Au  tau(   6) = (   0.5000000   1.0606602   0.7071068  )
         7           Au  tau(   7) = (   0.0000000   0.0000000   1.0606602  )
         8           Au  tau(   8) = (   0.0000000   0.7071068   1.0606602  )
         9           Au  tau(   9) = (   0.5000000   0.3535534   1.4142136  )
        10           Au  tau(  10) = (   0.5000000   1.0606602   1.4142136  )
        11           Au  tau(  11) = (   0.0000000   0.0000000   1.7677670  )
        12           Au  tau(  12) = (   0.0000000   0.7071068   1.7677670  )
        13           Au  tau(  13) = (   0.5000000   0.3535534   2.1213203  )
        14           Au  tau(  14) = (   0.5000000   1.0606602   2.1213203  )
        15           Au  tau(  15) = (   0.0000000   0.0000000   2.4748737  )
        16           Au  tau(  16) = (   0.0000000   0.7071068   2.4748737  )
        17           Au  tau(  17) = (   0.8500000   0.3535534   2.8284271  )
        18           Au  tau(  18) = (   0.8500000   1.0606602   2.8284271  )
        19           Au  tau(  19) = (   0.3500000   0.0000000   3.1819805  )
        20           Au  tau(  20) = (   0.3500000   0.7071068   3.1819805  )
        21           Au  tau(  21) = (   0.8500000   0.3535534   3.5355339  )
        22           Au  tau(  22) = (   0.8500000   1.0606602   3.5355339  )
        23           Au  tau(  23) = (   0.3500000   0.0000000   3.8890873  )
        24           Au  tau(  24) = (   0.3500000   0.7071068   3.8890873  )
        25           Au  tau(  25) = (   0.8500000   0.3535534   4.2426407  )
        26           Au  tau(  26) = (   0.8500000   1.0606602   4.2426407  )
        27           Au  tau(  27) = (   0.3500000   0.0000000   4.5961941  )
        28           Au  tau(  28) = (   0.3500000   0.7071068   4.5961941  )

     number of k points=    50  Gaussian smearing, width (Ry)=  0.2000
                       cart. coord. in units 2pi/alat
        k(    1) = (   0.0000000   0.0000000   0.0000000), wk =   0.0208333
        k(    2) = (   0.0000000   0.0589256   0.0000000), wk =   0.0416667
        k(    3) = (   0.0000000   0.1178511   0.0000000), wk =   0.0416667
        k(    4) = (   0.0000000   0.1767767   0.0000000), wk =   0.0416667
        k(    5) = (   0.0000000   0.2357023   0.0000000), wk =   0.0416667
        k(    6) = (   0.0000000   0.2946278   0.0000000), wk =   0.0416667
        k(    7) = (   0.0000000  -0.3535534   0.0000000), wk =   0.0208333
        k(    8) = (   0.1250000   0.0000000   0.0000000), wk =   0.0416667
        k(    9) = (   0.1250000   0.0589256   0.0000000), wk =   0.0416667
        k(   10) = (   0.1250000   0.1178511   0.0000000), wk =   0.0416667
        k(   11) = (   0.1250000   0.1767767   0.0000000), wk =   0.0416667
        k(   12) = (   0.1250000   0.2357023   0.0000000), wk =   0.0416667
        k(   13) = (   0.1250000   0.2946278   0.0000000), wk =   0.0416667
        k(   14) = (   0.1250000  -0.3535534   0.0000000), wk =   0.0416667
        k(   15) = (   0.1250000  -0.2946278   0.0000000), wk =   0.0416667
        k(   16) = (   0.1250000  -0.2357023   0.0000000), wk =   0.0416667
        k(   17) = (   0.1250000  -0.1767767   0.0000000), wk =   0.0416667
        k(   18) = (   0.1250000  -0.1178511   0.0000000), wk =   0.0416667
        k(   19) = (   0.1250000  -0.0589256   0.0000000), wk =   0.0416667
        k(   20) = (   0.2500000   0.0000000   0.0000000), wk =   0.0416667
        k(   21) = (   0.2500000   0.0589256   0.0000000), wk =   0.0416667
        k(   22) = (   0.2500000   0.1178511   0.0000000), wk =   0.0416667
        k(   23) = (   0.2500000   0.1767767   0.0000000), wk =   0.0416667
        k(   24) = (   0.2500000   0.2357023   0.0000000), wk =   0.0416667
        k(   25) = (   0.2500000   0.2946278   0.0000000), wk =   0.0416667
        k(   26) = (   0.2500000  -0.3535534   0.0000000), wk =   0.0416667
        k(   27) = (   0.2500000  -0.2946278   0.0000000), wk =   0.0416667
        k(   28) = (   0.2500000  -0.2357023   0.0000000), wk =   0.0416667
        k(   29) = (   0.2500000  -0.1767767   0.0000000), wk =   0.0416667
        k(   30) = (   0.2500000  -0.1178511   0.0000000), wk =   0.0416667
        k(   31) = (   0.2500000  -0.0589256   0.0000000), wk =   0.0416667
        k(   32) = (   0.3750000   0.0000000   0.0000000), wk =   0.0416667
        k(   33) = (   0.3750000   0.0589256   0.0000000), wk =   0.0416667
        k(   34) = (   0.3750000   0.1178511   0.0000000), wk =   0.0416667
        k(   35) = (   0.3750000   0.1767767   0.0000000), wk =   0.0416667
        k(   36) = (   0.3750000   0.2357023   0.0000000), wk =   0.0416667
        k(   37) = (   0.3750000   0.2946278   0.0000000), wk =   0.0416667
        k(   38) = (   0.3750000  -0.3535534   0.0000000), wk =   0.0416667
        k(   39) = (   0.3750000  -0.2946278   0.0000000), wk =   0.0416667
        k(   40) = (   0.3750000  -0.2357023   0.0000000), wk =   0.0416667
        k(   41) = (   0.3750000  -0.1767767   0.0000000), wk =   0.0416667
        k(   42) = (   0.3750000  -0.1178511   0.0000000), wk =   0.0416667
        k(   43) = (   0.3750000  -0.0589256   0.0000000), wk =   0.0416667
        k(   44) = (  -0.5000000   0.0000000   0.0000000), wk =   0.0208333
        k(   45) = (  -0.5000000   0.0589256   0.0000000), wk =   0.0416667
        k(   46) = (  -0.5000000   0.1178511   0.0000000), wk =   0.0416667
        k(   47) = (  -0.5000000   0.1767767   0.0000000), wk =   0.0416667
        k(   48) = (  -0.5000000   0.2357023   0.0000000), wk =   0.0416667
        k(   49) = (  -0.5000000   0.2946278   0.0000000), wk =   0.0416667
        k(   50) = (  -0.5000000  -0.3535534   0.0000000), wk =   0.0208333

     Dense  grid:   142317 G-vectors     FFT dimensions: (  36,  50, 160)

     Estimated max dynamical RAM per process >     337.14 MB

     Estimated total dynamical RAM >       3.29 GB

     Initial potential from superposition of free atoms

     starting charge     307.9969, renormalised to     308.0000
     Starting wfcs are  252 randomized atomic wfcs
     Checking if some PAW data can be deallocated... 

     total cpu time spent up to now is       25.2 secs

     Self-consistent Calculation

     iteration #  1     ecut=    50.00 Ry     beta= 0.10
     Davidson diagonalization with overlap
     ethr =  1.00E-02,  avg # of iterations =  4.0

     total cpu time spent up to now is       89.4 secs

     total energy              =  -21690.34935292 Ry
     estimated scf accuracy    <      14.80371978 Ry

     iteration #  2     ecut=    50.00 Ry     beta= 0.10
     Davidson diagonalization with overlap
     ethr =  4.81E-03,  avg # of iterations =  7.3

     total cpu time spent up to now is      151.4 secs

     total energy              =  -21689.48990292 Ry
     estimated scf accuracy    <     149.58132258 Ry

     iteration #  3     ecut=    50.00 Ry     beta= 0.10
     Davidson diagonalization with overlap
     ethr =  4.81E-03,  avg # of iterations =  3.0

     total cpu time spent up to now is      202.5 secs

     total energy              =  -21692.63614956 Ry
     estimated scf accuracy    <       2.09641504 Ry

     iteration #  4     ecut=    50.00 Ry     beta= 0.10
     Davidson diagonalization with overlap
     ethr =  6.81E-04,  avg # of iterations =  6.2

     total cpu time spent up to now is      261.6 secs

     total energy              =  -21692.57513836 Ry
     estimated scf accuracy    <       1.04054844 Ry

     iteration #  5     ecut=    50.00 Ry     beta= 0.10
     Davidson diagonalization with overlap
     ethr =  3.38E-04,  avg # of iterations =  5.7

     total cpu time spent up to now is      320.9 secs

     total energy              =  -21692.51253910 Ry
     estimated scf accuracy    <       2.94298133 Ry

     iteration #  6     ecut=    50.00 Ry     beta= 0.10
     Davidson diagonalization with overlap
     ethr =  3.38E-04,  avg # of iterations =  1.7

     total cpu time spent up to now is      369.6 secs

     total energy              =  -21692.51168196 Ry
     estimated scf accuracy    <       0.32254876 Ry

     iteration #  7     ecut=    50.00 Ry     beta= 0.10
     Davidson diagonalization with overlap
     ethr =  1.05E-04,  avg # of iterations =  7.0

     total cpu time spent up to now is      450.5 secs

     total energy              =  -21692.59723021 Ry
     estimated scf accuracy    <       0.09953775 Ry

     iteration #  8     ecut=    50.00 Ry     beta= 0.10
     Davidson diagonalization with overlap
     c_bands:  1 eigenvalues not converged
     c_bands:  1 eigenvalues not converged
     c_bands:  1 eigenvalues not converged
     ethr =  3.23E-05,  avg # of iterations =  9.4

     total cpu time spent up to now is      523.3 secs

     total energy              =  -21692.60513200 Ry
     estimated scf accuracy    <       0.05270330 Ry

     iteration #  9     ecut=    50.00 Ry     beta= 0.10
     Davidson diagonalization with overlap
     c_bands:  1 eigenvalues not converged
     c_bands:  1 eigenvalues not converged
     ethr =  1.71E-05,  avg # of iterations =  6.6

     total cpu time spent up to now is      583.9 secs

     total energy              =  -21692.61371432 Ry
     estimated scf accuracy    <       0.03098004 Ry

     iteration # 10     ecut=    50.00 Ry     beta= 0.10
     Davidson diagonalization with overlap
     c_bands:  1 eigenvalues not converged
     ethr =  1.01E-05,  avg # of iterations =  5.4

     total cpu time spent up to now is      645.5 secs

     total energy              =  -21692.61707185 Ry
     estimated scf accuracy    <       0.01201536 Ry

     iteration # 11     ecut=    50.00 Ry     beta= 0.10
     Davidson diagonalization with overlap
     c_bands:  2 eigenvalues not converged
     ethr =  3.90E-06,  avg # of iterations =  8.1

     total cpu time spent up to now is      711.7 secs

     total energy              =  -21692.61923438 Ry
     estimated scf accuracy    <       0.00178146 Ry

     iteration # 12     ecut=    50.00 Ry     beta= 0.10
     Davidson diagonalization with overlap
     c_bands:  1 eigenvalues not converged
     ethr =  5.78E-07,  avg # of iterations =  6.8

     total cpu time spent up to now is      799.8 secs

     total energy              =  -21692.61972344 Ry
     estimated scf accuracy    <       0.00072973 Ry

     iteration # 13     ecut=    50.00 Ry     beta= 0.10
     Davidson diagonalization with overlap
     c_bands:  1 eigenvalues not converged
     c_bands:  1 eigenvalues not converged
     ethr =  2.37E-07,  avg # of iterations =  5.4

     total cpu time spent up to now is      877.1 secs

     total energy              =  -21692.61983273 Ry
     estimated scf accuracy    <       0.00056437 Ry

     iteration # 14     ecut=    50.00 Ry     beta= 0.10
     Davidson diagonalization with overlap
     c_bands:  1 eigenvalues not converged
     c_bands:  1 eigenvalues not converged
     ethr =  1.83E-07,  avg # of iterations =  3.4

     total cpu time spent up to now is      928.7 secs

     total energy              =  -21692.61984801 Ry
     estimated scf accuracy    <       0.00149066 Ry

     iteration # 15     ecut=    50.00 Ry     beta= 0.10
     Davidson diagonalization with overlap
     ethr =  1.83E-07,  avg # of iterations =  1.7

     total cpu time spent up to now is      976.4 secs

     total energy              =  -21692.61985616 Ry
     estimated scf accuracy    <       0.00017000 Ry

     iteration # 16     ecut=    50.00 Ry     beta= 0.10
     Davidson diagonalization with overlap
     ethr =  5.52E-08,  avg # of iterations =  2.4

     total cpu time spent up to now is     1028.5 secs

     total energy              =  -21692.61985575 Ry
     estimated scf accuracy    <       0.00011153 Ry

     iteration # 17     ecut=    50.00 Ry     beta= 0.10
     Davidson diagonalization with overlap
     ethr =  3.62E-08,  avg # of iterations =  2.0

     total cpu time spent up to now is     1079.3 secs

     total energy              =  -21692.61985641 Ry
     estimated scf accuracy    <       0.00001877 Ry

     iteration # 18     ecut=    50.00 Ry     beta= 0.10
     Davidson diagonalization with overlap
     ethr =  6.09E-09,  avg # of iterations =  6.2

     total cpu time spent up to now is     1168.6 secs

     total energy              =  -21692.61986034 Ry
     estimated scf accuracy    <       0.00000723 Ry

     iteration # 19     ecut=    50.00 Ry     beta= 0.10
     Davidson diagonalization with overlap
     ethr =  2.35E-09,  avg # of iterations =  4.4

     total cpu time spent up to now is     1237.3 secs

     total energy              =  -21692.61985967 Ry
     estimated scf accuracy    <       0.00000298 Ry

     iteration # 20     ecut=    50.00 Ry     beta= 0.10
     Davidson diagonalization with overlap
     ethr =  9.66E-10,  avg # of iterations =  4.2

     total cpu time spent up to now is     1300.8 secs

     total energy              =  -21692.61985893 Ry
     estimated scf accuracy    <       0.00000156 Ry

     iteration # 21     ecut=    50.00 Ry     beta= 0.10
     Davidson diagonalization with overlap
     ethr =  5.08E-10,  avg # of iterations =  3.0

     total cpu time spent up to now is     1359.2 secs

     End of self-consistent calculation

          k = 0.0000 0.0000 0.0000 ( 17807 PWs)   bands (ev):

    -4.4542  -4.4542  -2.9312   0.1714   0.8318   0.8318   2.8258   3.9623
     4.3974   5.1738   6.1453   6.1453   6.5208   6.8081   7.0401   7.8616
     8.1873   8.2656   8.7455   8.7460   9.1247   9.4444   9.4752   9.7615
     9.7656  10.0390  10.0410  10.0470  10.2278  10.2317  10.4031  10.6792
    10.7528  10.7600  10.7858  10.9988  11.0241  11.0577  11.1906  11.1933
    11.2689  11.2751  11.3188  11.3736  11.4486  11.4692  11.5415  11.5748
    11.6589  11.6984  11.7177  11.7243  11.8175  11.8326  11.8655  11.9788
    11.9888  12.1600  12.1965  12.2260  12.2386  12.2472  12.3413  12.3520
    12.5812  12.6003  12.6406  12.6941  12.7189  12.7357  12.7694  12.8766
    12.9626  12.9809  13.0237  13.0389  13.0498  13.0778  13.1462  13.2002
    13.2282  13.2920  13.3625  13.3695  13.4648  13.4839  13.5196  13.5651
    13.6055  13.7214  13.7848  13.8031  13.9101  13.9950  14.1113  14.1285
    14.1324  14.1628  14.2126  14.2690  14.3018  14.4041  14.4643  14.5008
    14.5340  14.5873  14.6009  14.6836  14.6854  14.7533  14.7715  14.7918
    14.7980  14.8258  14.8750  14.9476  14.9920  15.0421  15.0583  15.1664
    15.2069  15.2103  15.3046  15.3156  15.3370  15.4723  15.4907  15.5752
    15.5942  15.6118  15.6456  15.6812  15.7287  15.7295  15.8554  15.8601
    15.9178  15.9283  16.0794  16.0829  16.0929  16.1186  16.1528  16.1581
    16.5084  17.4608  17.4628  17.5224  17.5468  17.5727  17.8634  17.9544
    18.0515  18.1508  18.1551  18.1851  18.5064  18.7288  18.7595  18.8696
    19.6635  19.6713  20.0245  20.3635  21.2390  21.2408  21.2413  21.7890
    22.5346  22.9354  23.5546  24.0202  24.3093  24.3407  24.3664  24.5739
    24.6013  24.7470  24.9906  25.0074  25.3492  25.6613  25.9618  26.0176
    26.1445

          k = 0.0000 0.0589 0.0000 ( 17795 PWs)   bands (ev):

    -4.5560  -4.2355  -2.9065   0.0211   0.2624   1.4355   2.5355   3.9524
     4.1209   5.2352   5.6867   6.6076   6.6992   7.0861   7.3403   7.9051
     8.2225   8.3086   8.3382   9.0408   9.1509   9.3765   9.5697   9.5697
     9.6196   9.9655  10.0640  10.2363  10.2444  10.3300  10.4328  10.6915
    10.7118  10.7949  10.8415  11.0086  11.0207  11.0852  11.1849  11.2145
    11.2939  11.3017  11.3370  11.4087  11.4544  11.4743  11.5320  11.5810
    11.6183  11.6397  11.7041  11.7289  11.7529  11.8244  11.9172  11.9944
    12.0360  12.1656  12.1664  12.1847  12.2893  12.3080  12.3239  12.3267
    12.5615  12.5996  12.6176  12.6440  12.7153  12.7250  12.8158  12.8577
    12.9343  12.9422  12.9975  13.0661  13.0820  13.0973  13.1592  13.1650
    13.1651  13.2709  13.3728  13.4228  13.4425  13.4853  13.5133  13.5420
    13.6066  13.7058  13.8196  13.8322  13.8759  14.0023  14.0937  14.1009
    14.1676  14.2172  14.2182  14.2856  14.3163  14.3808  14.4388  14.4674
    14.4964  14.5799  14.6275  14.6496  14.6738  14.7096  14.7765  14.7910
    14.7970  14.8102  14.8646  14.9624  15.0141  15.0725  15.1057  15.1312
    15.2010  15.2286  15.2752  15.3368  15.3453  15.4011  15.4488  15.5156
    15.5606  15.6286  15.6505  15.6911  15.6974  15.7036  15.7649  15.8172
    15.9267  15.9533  15.9864  16.0141  16.1278  16.1289  16.1460  16.3942
    16.4920  16.8923  16.9489  17.1345  17.2551  17.4513  17.9528  18.0295
    18.1978  18.2624  18.3850  18.4764  18.5634  18.9569  19.0281  19.0802
    19.8015  20.0352  20.1054  20.4426  21.1328  21.3016  21.3813  21.8399
    22.5664  22.9678  23.5675  23.7858  23.9747  24.0073  24.3614  24.5591
    24.7546  24.8239  25.0310  25.2129  25.3502  25.5696  25.6611  25.7812
    26.1570

          k = 0.0000 0.1179 0.0000 ( 17803 PWs)   bands (ev):

    -4.5368  -3.9046  -2.8334  -0.4139  -0.2671   1.8382   2.0666   3.5990
     4.1793   5.2414   5.3811   6.4921   7.0619   7.8344   7.9020   8.0357
     8.2056   8.3373   8.4381   9.0856   9.2016   9.2341   9.3464   9.4060
     9.7044  10.1176  10.1441  10.2793  10.2897  10.4849  10.5182  10.6631
    10.7746  10.8489  10.9189  10.9958  11.0787  11.1162  11.1949  11.2582
    11.2878  11.3417  11.3702  11.3712  11.4194  11.4649  11.5269  11.5766
    11.5939  11.6535  11.6798  11.7098  11.8045  11.8807  11.9586  12.0070
    12.0334  12.1193  12.1599  12.1785  12.2604  12.3431  12.4040  12.4163
    12.4801  12.5316  12.6020  12.6204  12.6443  12.7349  12.8075  12.8264
    12.8720  12.8781  12.9515  13.0411  13.0724  13.0761  13.1221  13.1631
    13.2199  13.2815  13.3768  13.4212  13.4389  13.4831  13.5441  13.5773
    13.6036  13.7055  13.7305  13.9011  13.9215  13.9859  14.0616  14.1093
    14.2034  14.2044  14.2488  14.2834  14.3453  14.3540  14.3871  14.3931
    14.4952  14.5216  14.5642  14.6277  14.6386  14.7006  14.7051  14.7824
    14.7919  14.8175  14.9122  14.9293  15.0186  15.0399  15.0768  15.1437
    15.1846  15.2397  15.2463  15.2554  15.3663  15.3953  15.4042  15.4132
    15.5222  15.5402  15.5886  15.6256  15.6659  15.6843  15.7259  15.7507
    15.8899  15.9022  15.9506  16.0528  16.1149  16.1327  16.1550  16.2914
    16.4239  16.4315  16.4519  16.5483  16.7762  17.2921  17.6261  17.8106
    18.0023  18.5051  18.7030  18.9528  19.1129  19.3840  19.6766  19.9615
    20.2075  20.3195  20.3317  20.6744  21.0433  21.4726  21.5347  21.9783
    22.6498  23.0627  23.4765  23.5685  23.6030  23.9638  24.1093  24.3389
    24.3431  24.7184  24.7761  25.2307  25.3463  25.5288  25.6529  25.9802
    26.1085

          k = 0.0000 0.1768 0.0000 ( 17795 PWs)   bands (ev):

    -4.3934  -3.4665  -2.7173  -1.0484  -0.7523   0.9794   2.7164   3.3962
     4.4052   4.8183   5.6115   6.1770   7.2706   7.4944   8.2360   8.3295
     8.4998   8.6119   8.6510   9.1935   9.2631   9.3458   9.3594   9.4518
     9.8617  10.1933  10.2157  10.3419  10.3893  10.5234  10.6499  10.6588
    10.7889  10.9648  10.9825  11.0061  11.0270  11.1275  11.1482  11.1751
    11.2439  11.2530  11.3339  11.4519  11.4806  11.5309  11.5474  11.6397
    11.6509  11.6913  11.7595  11.7778  11.8076  11.8941  11.9900  12.0515
    12.0613  12.1343  12.1901  12.2077  12.2720  12.3427  12.3972  12.4462
    12.4800  12.5003  12.5393  12.6159  12.6265  12.6876  12.7560  12.7574
    12.7846  12.8329  12.8705  12.9646  13.0465  13.0668  13.1383  13.1661
    13.2836  13.3446  13.3826  13.4282  13.4594  13.5146  13.5769  13.6064
    13.6681  13.6727  13.7455  13.8255  13.9712  13.9970  14.0442  14.0709
    14.0883  14.1648  14.1890  14.2960  14.3274  14.3383  14.3851  14.3895
    14.4359  14.5269  14.5469  14.5963  14.6118  14.6377  14.7059  14.7458
    14.8063  14.8104  14.8575  14.8889  14.8896  14.9623  15.0341  15.0788
    15.0996  15.1315  15.2101  15.2658  15.2834  15.2977  15.3555  15.4060
    15.4549  15.5065  15.5281  15.5386  15.6501  15.6675  15.7199  15.7512
    15.7943  15.8324  15.8748  15.9407  15.9690  16.0235  16.0248  16.0776
    16.1120  16.1579  16.2051  16.3164  17.0265  17.1057  17.1837  17.7265
    17.7785  18.8132  18.9092  19.6563  19.8118  19.8784  20.1001  20.2066
    20.6606  20.6920  20.7307  21.0451  21.1161  21.7227  21.7341  22.1574
    22.7407  23.0750  23.2132  23.3810  23.6517  23.8856  23.8901  24.0470
    24.2940  24.3669  24.8019  24.8385  25.1406  25.3120  25.5000  25.5230
    25.6520

          k = 0.0000 0.2357 0.0000 ( 17822 PWs)   bands (ev):

    -4.1249  -2.9269  -2.5891  -1.7232  -1.1887   0.0900   3.3741   3.3966
     4.4258   4.7217   5.7532   5.9275   6.6873   7.8875   7.9030   8.4733
     8.5566   8.9048   8.9404   9.1638   9.1907   9.4167   9.6247   9.9940
    10.0173  10.2245  10.3859  10.3940  10.4117  10.5278  10.6428  10.7016
    10.7749  10.8108  10.8781  10.9993  11.0530  11.1228  11.1774  11.2169
    11.3090  11.3309  11.3940  11.4261  11.5725  11.5839  11.6292  11.6838
    11.7405  11.7614  11.7907  11.8381  11.9166  12.0429  12.0446  12.0541
    12.0589  12.1392  12.2220  12.2296  12.3154  12.3327  12.3392  12.3912
    12.4678  12.4895  12.5527  12.5575  12.5937  12.6152  12.6505  12.7697
    12.8025  12.8277  12.8618  12.9505  13.0078  13.0079  13.1380  13.1486
    13.3262  13.3514  13.4495  13.4791  13.5344  13.5607  13.5864  13.6478
    13.6562  13.6908  13.7651  13.8561  13.8773  13.9217  13.9622  14.0565
    14.0822  14.1408  14.1537  14.1662  14.2213  14.3183  14.3346  14.4180
    14.4297  14.4547  14.4952  14.5748  14.6352  14.6511  14.6544  14.7013
    14.7248  14.7408  14.7828  14.8511  14.8671  14.8881  14.9513  14.9530
    15.0300  15.0673  15.0930  15.1482  15.2033  15.2467  15.3181  15.3282
    15.3601  15.4252  15.5060  15.5118  15.5373  15.5690  15.5785  15.6604
    15.7269  15.7635  15.7684  15.8904  15.9061  15.9827  16.0452  16.0866
    16.1241  16.1592  16.2100  16.2917  16.8475  16.9210  17.0679  17.7016
    17.7513  19.1484  19.1865  19.4197  20.2015  20.2615  20.4851  20.6935
    20.7433  20.9027  21.0345  21.5242  21.9103  22.0497  22.3028  22.3253
    22.6129  22.7495  22.7782  23.3955  23.6321  23.8618  23.9664  24.1645
    24.1898  24.3887  24.5169  24.6784  24.7777  24.7793  25.0467  25.1939
    25.3262

          k = 0.0000 0.2946 0.0000 ( 17818 PWs)   bands (ev):

    -3.7343  -2.7147  -2.2919  -2.0702  -1.5715  -0.7695   3.5366   4.0256
     4.0728   5.1196   5.2377   6.1183   6.3248   7.3271   8.2184   8.5519
     8.8834   9.0134   9.0953   9.2276   9.3386   9.4146   9.6791   9.8062
    10.1602  10.1634  10.1970  10.5005  10.5045  10.5631  10.6888  10.7235
    10.7928  10.8056  10.9613  10.9990  11.0997  11.1118  11.1378  11.2058
    11.4113  11.4298  11.4797  11.5209  11.6657  11.6825  11.7311  11.7472
    11.7856  11.7902  11.8258  11.9195  11.9766  12.0305  12.0721  12.0736
    12.1280  12.1309  12.1639  12.1808  12.2593  12.2993  12.3465  12.3618
    12.4303  12.4603  12.5385  12.5696  12.6025  12.6460  12.6786  12.7326
    12.7581  12.8551  12.8557  12.9655  12.9800  13.0635  13.1963  13.2546
    13.3029  13.3352  13.4335  13.4689  13.5390  13.5642  13.6177  13.6652
    13.6784  13.7403  13.7524  13.8477  13.8700  13.8824  13.9370  13.9878
    14.0047  14.0396  14.1077  14.1490  14.2306  14.2317  14.2957  14.3026
    14.3072  14.3520  14.3760  14.4652  14.5177  14.5610  14.5708  14.6564
    14.6673  14.7216  14.7454  14.8572  14.8865  14.9257  14.9369  14.9991
    15.0279  15.0384  15.0870  15.0943  15.1092  15.1247  15.1849  15.2290
    15.3475  15.3513  15.4008  15.4723  15.4896  15.5894  15.6302  15.6860
    15.7356  15.8015  15.8517  15.9090  16.0070  16.0672  16.0787  16.1157
    16.1370  16.2130  16.3032  16.4878  16.6151  16.7527  16.8914  17.7121
    17.7584  18.4302  19.4649  19.5653  20.1495  20.3767  20.7245  20.8328
    21.3793  21.3876  21.6519  21.8639  21.8725  22.2477  22.2516  22.5810
    22.6025  23.0788  23.1235  23.3372  23.5699  23.6674  23.8146  23.9983
    24.0474  24.0636  24.4212  24.5956  24.6530  24.7875  24.8649  24.9013
    24.9266

          k = 0.0000-0.3536 0.0000 ( 17844 PWs)   bands (ev):

    -3.2366  -3.2366  -1.8890  -1.8889  -1.5691  -1.5691   3.7709   3.7709
     4.6538   4.6538   5.5896   5.5896   6.7953   6.7953   8.4551   8.4551
     9.0518   9.0518   9.2569   9.2569   9.3703   9.3703   9.7362   9.7362
     9.9786   9.9786  10.3393  10.3393  10.6135  10.6135  10.6990  10.6990
    10.9330  10.9330  10.9451  10.9451  11.0696  11.0696  11.1591  11.1591
    11.4755  11.4755  11.5914  11.5914  11.6939  11.6939  11.7580  11.7580
    11.8803  11.8803  11.9117  11.9117  11.9568  11.9568  11.9995  11.9995
    12.0929  12.0929  12.2147  12.2147  12.2604  12.2604  12.3213  12.3213
    12.4693  12.4693  12.5532  12.5532  12.6608  12.6608  12.6786  12.6786
    12.7928  12.7928  12.9055  12.9055  13.0982  13.0982  13.2267  13.2267
    13.3095  13.3095  13.4946  13.4946  13.5922  13.5922  13.6157  13.6158
    13.7319  13.7319  13.7973  13.7973  13.8454  13.8454  13.8895  13.8895
    13.9343  13.9343  14.0993  14.0993  14.1916  14.1916  14.2430  14.2430
    14.3928  14.3928  14.4022  14.4022  14.4364  14.4364  14.5190  14.5190
    14.7482  14.7482  14.7987  14.7987  14.8995  14.8995  14.9932  14.9932
    15.0295  15.0295  15.0624  15.0624  15.1176  15.1176  15.2208  15.2208
    15.2440  15.2440  15.4060  15.4060  15.5795  15.5795  15.6147  15.6147
    15.7995  15.7995  15.9502  15.9502  16.0244  16.0244  16.1047  16.1047
    16.3296  16.3297  16.5120  16.5120  16.6204  16.6204  17.3160  17.3160
    17.7370  17.7370  19.8019  19.8019  19.9835  19.9835  21.1934  21.1934
    21.4869  21.4869  21.6238  21.6238  22.2578  22.2578  22.4417  22.4417
    22.9901  22.9901  23.2468  23.2468  23.5785  23.5785  23.8995  23.8995
    24.1077  24.1077  24.3369  24.3369  24.5704  24.5705  24.6895  24.6899
    25.1662

          k = 0.1250 0.0000 0.0000 ( 17777 PWs)   bands (ev):

    -4.4475  -4.4475  -2.9340   0.1827   0.8325   0.8326   2.8314   4.0186
     4.3835   5.2474   6.1879   6.1880   6.5480   6.8159   7.0631   7.9772
     8.2596   8.4215   8.7367   8.7372   9.2403   9.4398   9.5455   9.7744
     9.7768  10.0138  10.0149  10.0696  10.2266  10.2307  10.3835  10.5577
    10.6567  10.6661  10.8137  10.9749  11.0383  11.1410  11.1769  11.2805
    11.2870  11.2905  11.3702  11.3843  11.4051  11.4561  11.4876  11.5217
    11.5602  11.5782  11.6401  11.7265  11.8444  11.8767  12.0566  12.0921
    12.1532  12.1677  12.2722  12.3050  12.3437  12.3765  12.3823  12.5566
    12.6229  12.6873  12.7140  12.7816  12.8416  12.8951  12.8988  12.9223
    13.0128  13.0202  13.0595  13.1101  13.1566  13.1678  13.2023  13.2846
    13.2864  13.3144  13.3442  13.3521  13.3854  13.4812  13.4864  13.5092
    13.5560  13.6412  13.6657  13.8365  13.8422  13.8619  13.9484  14.0187
    14.0503  14.1035  14.1498  14.2830  14.3416  14.3432  14.3481  14.4350
    14.4598  14.5468  14.5741  14.6054  14.6161  14.6859  14.7163  14.7866
    14.8017  14.8053  14.9149  14.9446  14.9510  14.9545  15.1397  15.1783
    15.1804  15.1807  15.2351  15.2894  15.3016  15.4162  15.4529  15.5098
    15.5616  15.5626  15.6123  15.6602  15.6860  15.7087  15.7200  15.8100
    15.8128  15.8709  15.9708  15.9721  15.9934  16.0447  16.2035  16.2043
    16.4583  17.1933  17.5059  17.5209  17.5556  17.5906  17.6317  17.9854
    18.1132  18.1546  18.4251  18.4300  18.5441  18.6555  19.0241  19.2217
    19.2323  19.4399  19.7310  19.7387  21.0154  21.1468  21.1473  21.4650
    22.2310  22.5480  23.5936  23.7253  23.9611  23.9654  24.0257  24.2299
    24.2716  24.3504  24.3668  24.8663  24.8744  25.0102  25.0257  25.3324
    25.7943

          k = 0.1250 0.0589 0.0000 ( 17791 PWs)   bands (ev):

    -4.5501  -4.2280  -2.9093   0.0299   0.2624   1.4369   2.5433   4.0133
     4.1213   5.3085   5.7324   6.6466   6.6759   7.1006   7.3799   8.0204
     8.3039   8.3483   8.4545   9.0131   9.2650   9.3988   9.5804   9.6047
     9.6161   9.9698  10.0932  10.2333  10.2444  10.3435  10.4152  10.5892
    10.6088  10.7223  10.8201  11.0023  11.0577  11.1430  11.1788  11.2618
    11.3073  11.3130  11.3798  11.4020  11.4121  11.4383  11.4984  11.5442
    11.5774  11.5925  11.6813  11.7257  11.7987  11.9168  12.0110  12.0958
    12.1174  12.1995  12.2163  12.2975  12.3354  12.3873  12.4052  12.5489
    12.5690  12.7060  12.7165  12.7783  12.7897  12.8299  12.8978  12.9599
    12.9761  13.0205  13.0641  13.0993  13.1531  13.1633  13.1984  13.2423
    13.2624  13.3006  13.3091  13.3623  13.3982  13.4691  13.5135  13.5151
    13.5803  13.6318  13.6977  13.7621  13.8520  13.8968  13.9350  14.0103
    14.0426  14.1358  14.1472  14.2620  14.2869  14.3513  14.3638  14.3704
    14.4775  14.5169  14.5583  14.5914  14.6394  14.6815  14.7338  14.7527
    14.8284  14.8548  14.9070  14.9370  14.9793  14.9866  15.0858  15.1551
    15.1699  15.1975  15.2029  15.2890  15.3072  15.3855  15.4594  15.5008
    15.5209  15.5679  15.6112  15.6342  15.6617  15.6964  15.7404  15.7478
    15.8273  15.8322  15.9089  15.9269  15.9813  16.0455  16.0814  16.4683
    16.4828  16.9097  16.9613  17.2452  17.3766  17.4927  17.4956  17.9516
    18.2592  18.3423  18.6425  18.7240  18.7470  18.9082  19.0874  19.1057
    19.3226  19.5139  19.8531  20.1410  21.0566  21.0903  21.3670  21.5015
    22.2846  22.6112  23.4118  23.5320  23.6053  23.6632  23.7400  24.0313
    24.0494  24.2070  24.5999  24.9250  25.1064  25.3196  25.4232  25.6947
    25.8546

          k = 0.1250 0.1179 0.0000 ( 17815 PWs)   bands (ev):

    -4.5317  -3.8963  -2.8363  -0.4099  -0.2680   1.8492   2.0683   3.6396
     4.2199   5.2898   5.4531   6.4760   7.0959   7.8630   7.8668   8.1480
     8.2438   8.4357   8.5584   9.0465   9.2398   9.2810   9.4109   9.4237
     9.7501  10.1245  10.1608  10.2852  10.2974  10.5095  10.5100  10.6351
    10.6774  10.7674  10.8391  11.0721  11.1179  11.1368  11.1706  11.2472
    11.2967  11.3271  11.3745  11.4028  11.4768  11.4924  11.5229  11.5959
    11.6327  11.6393  11.7082  11.7475  11.8266  11.9079  11.9796  12.0474
    12.1052  12.1360  12.2154  12.2778  12.2962  12.3987  12.4511  12.5113
    12.5169  12.6532  12.6923  12.7100  12.7692  12.8010  12.8732  12.9120
    12.9214  12.9824  13.0567  13.0693  13.1159  13.1348  13.1459  13.2370
    13.2581  13.2965  13.3174  13.3394  13.4110  13.4999  13.5147  13.5480
    13.6027  13.6345  13.7087  13.7652  13.8246  13.8440  13.8898  14.0072
    14.0732  14.1081  14.1358  14.2174  14.2177  14.3216  14.3303  14.3979
    14.4284  14.4675  14.5377  14.5586  14.6582  14.6897  14.7003  14.8021
    14.8147  14.8501  14.8682  14.9359  14.9459  15.0047  15.0364  15.1196
    15.1446  15.1898  15.2132  15.2750  15.3068  15.3500  15.3980  15.4541
    15.4782  15.5595  15.5750  15.5788  15.6208  15.6338  15.6951  15.7206
    15.8063  15.8149  15.8399  15.9341  15.9522  15.9820  16.1213  16.3593
    16.4130  16.4396  16.6806  16.7987  16.8588  17.2607  17.4495  17.9577
    18.1382  18.4444  18.8425  18.9959  19.0358  19.2143  19.3366  19.6591
    19.7201  20.1943  20.2335  20.3738  21.1752  21.2067  21.5990  21.5998
    22.4364  22.7645  22.7956  23.1062  23.1799  23.4283  23.5586  23.6344
    23.7875  24.0453  24.6528  24.9830  25.2390  25.5647  25.7389  25.8229
    25.9864

          k = 0.1250 0.1768 0.0000 ( 17796 PWs)   bands (ev):

    -4.3892  -3.4574  -2.7203  -1.0474  -0.7537   0.9920   2.7177   3.4432
     4.4516   4.8694   5.6803   6.1655   7.3025   7.5342   8.3440   8.3704
     8.5106   8.6505   8.7215   9.2288   9.2780   9.3403   9.3408   9.5541
     9.9140  10.1531  10.2651  10.3562  10.4085  10.4797  10.6685  10.7653
    10.7663  10.8015  10.9118  11.0483  11.0875  11.1570  11.1707  11.2286
    11.2373  11.3448  11.4157  11.4446  11.5291  11.5717  11.5818  11.6406
    11.6793  11.7343  11.7700  11.7994  11.8962  11.9294  11.9508  12.0361
    12.1144  12.1645  12.2180  12.2467  12.2811  12.3942  12.4067  12.4853
    12.4981  12.5868  12.6259  12.6631  12.7112  12.7907  12.8215  12.8523
    12.8803  12.9213  12.9430  13.0072  13.0579  13.1327  13.1604  13.2151
    13.2348  13.3236  13.3435  13.4106  13.4440  13.4932  13.5480  13.5788
    13.6030  13.6461  13.6677  13.7522  13.7710  13.8788  13.8798  13.9396
    13.9889  14.0225  14.1354  14.1457  14.2470  14.2748  14.2951  14.3195
    14.4295  14.4953  14.5061  14.5580  14.5898  14.5918  14.6778  14.7315
    14.7589  14.8084  14.8703  14.8775  14.9495  14.9583  14.9926  15.0657
    15.1001  15.1331  15.1788  15.2288  15.2322  15.3256  15.3415  15.4187
    15.4262  15.4707  15.5306  15.5472  15.5996  15.6428  15.6753  15.6942
    15.7644  15.8240  15.8671  15.8685  15.9237  15.9436  15.9625  15.9912
    16.1525  16.2320  16.3877  16.4524  16.9934  17.1094  17.5536  17.6950
    18.0819  18.1425  19.0964  19.3303  19.5746  19.6784  19.9071  20.0229
    20.0534  20.2454  20.8977  21.0484  21.2977  21.3596  21.6601  21.7367
    22.1435  22.6474  22.7061  22.8008  23.0795  23.1762  23.2939  23.6707
    23.8678  24.0555  24.5038  24.8402  24.9710  25.4614  25.5947  25.8064
    25.9533

          k = 0.1250 0.2357 0.0000 ( 17785 PWs)   bands (ev):

    -4.1216  -2.9169  -2.5921  -1.7229  -1.1907   0.1029   3.3727   3.4461
     4.4806   4.7722   5.7473   5.9918   6.7350   7.8773   7.9748   8.5790
     8.6425   8.9190   8.9598   9.1838   9.2223   9.3948   9.7020  10.0154
    10.0541  10.1739  10.3774  10.4103  10.4144  10.5451  10.6999  10.7337
    10.7641  10.8726  10.9515  10.9758  11.0719  11.0870  11.2477  11.2863
    11.3455  11.4074  11.4629  11.4702  11.5406  11.5954  11.6550  11.7300
    11.7682  11.8453  11.8495  11.9177  11.9575  12.0053  12.0059  12.0992
    12.1239  12.1590  12.2368  12.2521  12.2979  12.3481  12.3881  12.4265
    12.4876  12.5491  12.5735  12.6042  12.6336  12.7130  12.7847  12.8071
    12.8071  12.8666  12.8942  12.9815  13.0660  13.0995  13.1272  13.1389
    13.2630  13.3086  13.3572  13.4554  13.4706  13.5304  13.5445  13.5976
    13.6116  13.6566  13.7155  13.7342  13.7682  13.7762  13.8794  13.8823
    13.9749  14.0036  14.0634  14.0880  14.1235  14.2290  14.3115  14.3324
    14.3778  14.4156  14.4548  14.4927  14.5290  14.6100  14.6455  14.6630
    14.7079  14.7423  14.8143  14.8342  14.8797  14.9132  14.9528  15.0041
    15.0061  15.1126  15.1331  15.1411  15.2155  15.2551  15.2731  15.3072
    15.3413  15.4308  15.4604  15.5022  15.5105  15.5962  15.6050  15.6673
    15.7201  15.7214  15.8399  15.8660  15.9124  15.9486  15.9737  15.9998
    16.0542  16.1408  16.3197  16.4455  16.9593  16.9859  17.3263  17.6727
    18.0011  18.3127  19.2204  19.3923  19.7023  20.0231  20.0914  20.3854
    20.6208  20.7735  20.9636  21.0780  21.4462  21.5904  21.9065  22.0295
    22.1193  22.3550  22.6170  22.8020  23.0906  23.3203  23.3983  23.7019
    23.9433  24.0310  24.5387  24.5513  24.7697  25.0944  25.1033  25.6625
    25.8540

          k = 0.1250 0.2946 0.0000 ( 17801 PWs)   bands (ev):

    -3.7320  -2.7156  -2.2810  -2.0715  -1.5738  -0.7570   3.5858   3.9883
     4.1638   5.1719   5.2391   6.1718   6.3828   7.3663   8.2534   8.6181
     8.9599   9.0571   9.1171   9.2482   9.3507   9.4041   9.7263   9.8622
    10.1789  10.2149  10.2267  10.5424  10.5450  10.5974  10.6371  10.7173
    10.7391  10.8962  11.0075  11.0269  11.0928  11.1500  11.2273  11.2371
    11.4462  11.4681  11.5459  11.5706  11.6648  11.6879  11.7496  11.7515
    11.8340  11.9051  11.9178  11.9548  12.0112  12.0422  12.0829  12.1281
    12.1668  12.1952  12.2060  12.2269  12.2971  12.3818  12.3859  12.3966
    12.4652  12.4906  12.5418  12.6055  12.6337  12.6601  12.6898  12.7244
    12.7580  12.8408  12.9125  12.9728  13.0235  13.0814  13.1100  13.1639
    13.2435  13.2671  13.3302  13.3883  13.5139  13.5669  13.5692  13.5883
    13.6448  13.6462  13.6817  13.7006  13.7701  13.7848  13.8496  13.8799
    13.9273  13.9494  13.9944  14.0234  14.1145  14.1555  14.2324  14.2349
    14.3044  14.4356  14.4419  14.5095  14.5157  14.5570  14.5882  14.6565
    14.6737  14.7158  14.7163  14.7539  14.7796  14.8412  14.9010  14.9483
    14.9949  15.0227  15.0815  15.1087  15.1114  15.1727  15.2349  15.2444
    15.3007  15.4051  15.4336  15.5456  15.5658  15.6092  15.6666  15.7159
    15.7320  15.8308  15.8405  15.9454  15.9519  15.9649  15.9806  16.0318
    16.0397  16.1649  16.3365  16.6646  16.8166  16.8547  17.0119  17.7962
    17.8769  18.4036  18.6494  19.6874  19.7192  20.0770  20.4230  20.5442
    20.7159  20.7758  21.1175  21.4281  21.7223  21.8296  21.9155  22.1073
    22.1257  22.6315  22.7025  22.7910  23.3664  23.3893  23.6442  23.7651
    23.8706  24.0707  24.3480  24.5402  24.5667  24.7265  24.7973  25.2520
    25.5575

          k = 0.1250-0.3536 0.0000 ( 17808 PWs)   bands (ev):

    -3.2355  -3.2355  -1.8913  -1.8913  -1.5573  -1.5573   3.8165   3.8166
     4.6605   4.6605   5.6448   5.6448   6.8455   6.8455   8.4962   8.4962
     9.0750   9.0750   9.3149   9.3149   9.4042   9.4042   9.7457   9.7457
    10.0242  10.0242  10.4057  10.4057  10.6336  10.6336  10.7260  10.7260
    10.8580  10.8580  10.9951  10.9951  11.1196  11.1196  11.2222  11.2222
    11.4822  11.4822  11.6590  11.6590  11.7334  11.7334  11.7682  11.7682
    11.8877  11.8877  11.9407  11.9407  12.0409  12.0409  12.0969  12.0969
    12.1345  12.1345  12.2990  12.2991  12.3152  12.3152  12.3684  12.3684
    12.4929  12.4929  12.5558  12.5558  12.6366  12.6366  12.7057  12.7057
    12.8164  12.8164  12.8898  12.8898  13.0533  13.0533  13.1377  13.1377
    13.1941  13.1941  13.4562  13.4562  13.5122  13.5123  13.5964  13.5964
    13.6349  13.6349  13.6783  13.6783  13.7535  13.7535  13.8187  13.8187
    13.8908  13.8908  13.9653  13.9653  14.1047  14.1047  14.2861  14.2861
    14.3775  14.3775  14.4482  14.4482  14.5222  14.5222  14.6063  14.6063
    14.6589  14.6589  14.7081  14.7081  14.8098  14.8098  14.8695  14.8695
    14.9353  14.9353  15.0124  15.0124  15.2006  15.2006  15.2519  15.2519
    15.3160  15.3160  15.4910  15.4910  15.6548  15.6548  15.6817  15.6817
    15.7775  15.7775  15.9228  15.9229  15.9788  15.9788  16.0209  16.0209
    16.3002  16.3002  16.5345  16.5345  16.7869  16.7869  17.2878  17.2878
    17.9319  17.9319  19.1173  19.1173  20.0681  20.0681  20.4304  20.4304
    20.9983  20.9983  21.1469  21.1469  21.9487  21.9487  22.1154  22.1154
    22.3225  22.3225  22.9420  22.9420  23.2902  23.2902  23.7950  23.7950
    24.0247  24.0247  24.3493  24.3494  24.6764  24.6764  24.9019  24.9020
    25.4781

          k = 0.1250-0.2946 0.0000 ( 17801 PWs)   bands (ev):

    -3.7320  -2.7156  -2.2810  -2.0715  -1.5738  -0.7570   3.5858   3.9883
     4.1638   5.1719   5.2391   6.1718   6.3828   7.3663   8.2534   8.6181
     8.9599   9.0571   9.1171   9.2482   9.3507   9.4041   9.7263   9.8622
    10.1789  10.2149  10.2267  10.5424  10.5450  10.5974  10.6371  10.7173
    10.7391  10.8962  11.0075  11.0269  11.0928  11.1500  11.2273  11.2371
    11.4462  11.4681  11.5459  11.5706  11.6648  11.6879  11.7496  11.7515
    11.8340  11.9051  11.9178  11.9548  12.0112  12.0422  12.0829  12.1281
    12.1668  12.1952  12.2060  12.2269  12.2971  12.3818  12.3859  12.3966
    12.4652  12.4906  12.5418  12.6055  12.6337  12.6601  12.6898  12.7244
    12.7580  12.8408  12.9125  12.9728  13.0235  13.0814  13.1100  13.1639
    13.2435  13.2671  13.3302  13.3883  13.5139  13.5669  13.5692  13.5883
    13.6448  13.6462  13.6817  13.7006  13.7701  13.7848  13.8496  13.8799
    13.9273  13.9494  13.9944  14.0234  14.1145  14.1555  14.2324  14.2349
    14.3044  14.4356  14.4419  14.5095  14.5157  14.5570  14.5882  14.6565
    14.6737  14.7158  14.7163  14.7539  14.7796  14.8412  14.9010  14.9483
    14.9949  15.0227  15.0815  15.1087  15.1114  15.1727  15.2349  15.2444
    15.3007  15.4051  15.4336  15.5456  15.5658  15.6093  15.6666  15.7159
    15.7320  15.8308  15.8405  15.9454  15.9519  15.9649  15.9806  16.0318
    16.0397  16.1649  16.3365  16.6646  16.8166  16.8547  17.0119  17.7962
    17.8769  18.4036  18.6494  19.6874  19.7192  20.0770  20.4230  20.5442
    20.7159  20.7758  21.1174  21.4281  21.7223  21.8296  21.9155  22.1073
    22.1257  22.6315  22.7025  22.7910  23.3664  23.3893  23.6442  23.7651
    23.8707  24.0707  24.3480  24.5402  24.5667  24.7265  24.7973  25.2521
    25.5575

          k = 0.1250-0.2357 0.0000 ( 17785 PWs)   bands (ev):

    -4.1216  -2.9169  -2.5921  -1.7229  -1.1907   0.1029   3.3727   3.4461
     4.4806   4.7722   5.7473   5.9918   6.7350   7.8773   7.9748   8.5790
     8.6425   8.9190   8.9598   9.1838   9.2223   9.3948   9.7020  10.0154
    10.0541  10.1739  10.3774  10.4103  10.4144  10.5451  10.6999  10.7337
    10.7641  10.8726  10.9515  10.9758  11.0719  11.0870  11.2477  11.2863
    11.3455  11.4074  11.4629  11.4702  11.5406  11.5954  11.6550  11.7300
    11.7682  11.8453  11.8495  11.9177  11.9575  12.0053  12.0059  12.0992
    12.1239  12.1590  12.2368  12.2521  12.2979  12.3481  12.3881  12.4265
    12.4876  12.5491  12.5735  12.6042  12.6336  12.7130  12.7847  12.8071
    12.8071  12.8666  12.8942  12.9815  13.0660  13.0995  13.1272  13.1389
    13.2630  13.3086  13.3572  13.4554  13.4706  13.5304  13.5445  13.5976
    13.6116  13.6566  13.7155  13.7342  13.7682  13.7762  13.8794  13.8823
    13.9749  14.0036  14.0634  14.0880  14.1235  14.2290  14.3115  14.3324
    14.3778  14.4156  14.4548  14.4927  14.5290  14.6100  14.6455  14.6630
    14.7079  14.7423  14.8143  14.8342  14.8797  14.9132  14.9528  15.0041
    15.0061  15.1126  15.1331  15.1411  15.2155  15.2551  15.2731  15.3072
    15.3413  15.4308  15.4604  15.5022  15.5105  15.5962  15.6050  15.6673
    15.7201  15.7214  15.8399  15.8660  15.9124  15.9486  15.9737  15.9998
    16.0542  16.1408  16.3197  16.4455  16.9593  16.9859  17.3263  17.6727
    18.0011  18.3127  19.2204  19.3923  19.7023  20.0231  20.0914  20.3854
    20.6208  20.7735  20.9636  21.0780  21.4462  21.5904  21.9065  22.0295
    22.1193  22.3550  22.6170  22.8021  23.0906  23.3203  23.3983  23.7019
    23.9433  24.0310  24.5387  24.5513  24.7697  25.0945  25.1033  25.6624
    25.8541

          k = 0.1250-0.1768 0.0000 ( 17796 PWs)   bands (ev):

    -4.3892  -3.4574  -2.7203  -1.0474  -0.7537   0.9920   2.7177   3.4432
     4.4516   4.8694   5.6803   6.1655   7.3025   7.5342   8.3440   8.3704
     8.5106   8.6505   8.7215   9.2288   9.2780   9.3403   9.3408   9.5541
     9.9140  10.1531  10.2651  10.3562  10.4085  10.4797  10.6685  10.7653
    10.7663  10.8015  10.9118  11.0483  11.0875  11.1570  11.1707  11.2286
    11.2373  11.3448  11.4157  11.4446  11.5291  11.5717  11.5818  11.6406
    11.6793  11.7343  11.7700  11.7994  11.8962  11.9294  11.9508  12.0361
    12.1144  12.1645  12.2180  12.2467  12.2811  12.3942  12.4067  12.4853
    12.4981  12.5868  12.6259  12.6631  12.7112  12.7907  12.8215  12.8523
    12.8803  12.9213  12.9430  13.0072  13.0579  13.1327  13.1604  13.2151
    13.2348  13.3236  13.3435  13.4106  13.4440  13.4932  13.5480  13.5788
    13.6030  13.6461  13.6677  13.7523  13.7710  13.8788  13.8798  13.9396
    13.9889  14.0225  14.1354  14.1457  14.2470  14.2748  14.2951  14.3195
    14.4295  14.4953  14.5061  14.5580  14.5898  14.5918  14.6778  14.7315
    14.7589  14.8084  14.8703  14.8775  14.9495  14.9583  14.9926  15.0657
    15.1001  15.1331  15.1788  15.2288  15.2322  15.3256  15.3415  15.4187
    15.4262  15.4707  15.5306  15.5472  15.5996  15.6428  15.6753  15.6942
    15.7644  15.8240  15.8671  15.8685  15.9237  15.9436  15.9625  15.9912
    16.1525  16.2320  16.3877  16.4524  16.9934  17.1094  17.5536  17.6950
    18.0819  18.1425  19.0964  19.3303  19.5746  19.6784  19.9071  20.0229
    20.0534  20.2454  20.8977  21.0484  21.2977  21.3596  21.6601  21.7367
    22.1435  22.6474  22.7061  22.8008  23.0795  23.1762  23.2939  23.6706
    23.8678  24.0555  24.5038  24.8402  24.9710  25.4614  25.5949  25.8066
    25.9535

          k = 0.1250-0.1179 0.0000 ( 17815 PWs)   bands (ev):

    -4.5317  -3.8963  -2.8363  -0.4099  -0.2680   1.8492   2.0683   3.6396
     4.2199   5.2898   5.4531   6.4760   7.0959   7.8630   7.8668   8.1480
     8.2438   8.4357   8.5584   9.0465   9.2398   9.2810   9.4109   9.4237
     9.7501  10.1245  10.1608  10.2852  10.2974  10.5095  10.5100  10.6351
    10.6774  10.7674  10.8391  11.0721  11.1179  11.1368  11.1706  11.2472
    11.2967  11.3271  11.3745  11.4028  11.4768  11.4924  11.5229  11.5959
    11.6327  11.6393  11.7082  11.7475  11.8266  11.9079  11.9796  12.0474
    12.1052  12.1360  12.2154  12.2778  12.2962  12.3987  12.4511  12.5113
    12.5169  12.6532  12.6923  12.7100  12.7692  12.8010  12.8732  12.9120
    12.9214  12.9824  13.0567  13.0693  13.1159  13.1348  13.1459  13.2370
    13.2581  13.2965  13.3174  13.3394  13.4110  13.4999  13.5147  13.5480
    13.6027  13.6345  13.7087  13.7652  13.8246  13.8440  13.8898  14.0072
    14.0732  14.1081  14.1358  14.2174  14.2177  14.3216  14.3303  14.3979
    14.4284  14.4675  14.5377  14.5586  14.6582  14.6897  14.7003  14.8021
    14.8147  14.8501  14.8682  14.9359  14.9459  15.0047  15.0364  15.1196
    15.1446  15.1898  15.2132  15.2750  15.3068  15.3500  15.3980  15.4541
    15.4782  15.5595  15.5750  15.5788  15.6208  15.6338  15.6951  15.7206
    15.8063  15.8149  15.8399  15.9341  15.9522  15.9820  16.1213  16.3593
    16.4130  16.4396  16.6806  16.7987  16.8588  17.2607  17.4495  17.9577
    18.1382  18.4444  18.8425  18.9959  19.0358  19.2143  19.3366  19.6591
    19.7201  20.1943  20.2335  20.3738  21.1752  21.2067  21.5990  21.5998
    22.4364  22.7645  22.7956  23.1062  23.1799  23.4283  23.5586  23.6344
    23.7875  24.0453  24.6528  24.9830  25.2390  25.5647  25.7389  25.8230
    25.9861

          k = 0.1250-0.0589 0.0000 ( 17791 PWs)   bands (ev):

    -4.5501  -4.2280  -2.9093   0.0299   0.2624   1.4369   2.5433   4.0133
     4.1213   5.3085   5.7324   6.6466   6.6759   7.1006   7.3799   8.0204
     8.3039   8.3483   8.4545   9.0131   9.2650   9.3988   9.5804   9.6047
     9.6161   9.9698  10.0932  10.2333  10.2444  10.3435  10.4152  10.5892
    10.6088  10.7223  10.8201  11.0023  11.0577  11.1430  11.1788  11.2618
    11.3073  11.3130  11.3798  11.4020  11.4121  11.4383  11.4984  11.5442
    11.5774  11.5925  11.6813  11.7257  11.7987  11.9168  12.0110  12.0958
    12.1174  12.1995  12.2163  12.2975  12.3354  12.3873  12.4052  12.5489
    12.5690  12.7060  12.7165  12.7783  12.7897  12.8299  12.8978  12.9599
    12.9761  13.0205  13.0641  13.0993  13.1531  13.1633  13.1984  13.2423
    13.2624  13.3006  13.3091  13.3623  13.3982  13.4691  13.5135  13.5151
    13.5803  13.6318  13.6977  13.7621  13.8520  13.8968  13.9350  14.0103
    14.0426  14.1358  14.1472  14.2620  14.2869  14.3513  14.3638  14.3704
    14.4775  14.5169  14.5584  14.5914  14.6394  14.6815  14.7338  14.7527
    14.8284  14.8548  14.9070  14.9370  14.9793  14.9866  15.0858  15.1551
    15.1699  15.1975  15.2029  15.2890  15.3072  15.3855  15.4594  15.5008
    15.5209  15.5679  15.6112  15.6342  15.6617  15.6964  15.7404  15.7478
    15.8273  15.8322  15.9089  15.9269  15.9813  16.0455  16.0814  16.4683
    16.4828  16.9097  16.9613  17.2452  17.3766  17.4927  17.4956  17.9516
    18.2592  18.3423  18.6425  18.7240  18.7470  18.9082  19.0874  19.1057
    19.3226  19.5139  19.8531  20.1410  21.0566  21.0903  21.3670  21.5015
    22.2846  22.6112  23.4118  23.5320  23.6053  23.6632  23.7400  24.0313
    24.0494  24.2070  24.5999  24.9250  25.1064  25.3194  25.4231  25.6947
    25.8572

          k = 0.2500 0.0000 0.0000 ( 17793 PWs)   bands (ev):

    -4.4314  -4.4313  -2.9408   0.2105   0.8345   0.8346   2.8464   4.1021
     4.3506   5.5617   6.2912   6.2914   6.6007   6.8666   7.1182   8.2356
     8.2823   8.7153   8.7159   9.0327   9.4287   9.4442   9.6710   9.7860
     9.7898   9.8813   9.8886  10.1234  10.2260  10.2296  10.2677  10.4169
    10.6585  10.6617  10.7466  10.9677  11.0034  11.2150  11.2225  11.2684
    11.2847  11.3146  11.3621  11.3639  11.4462  11.4600  11.5589  11.5733
    11.6008  11.7294  11.7674  11.8233  11.9904  12.0425  12.1129  12.2317
    12.2837  12.3162  12.4088  12.4307  12.4435  12.5355  12.5691  12.6393
    12.7600  12.8492  12.8581  12.8684  12.9697  12.9900  13.0324  13.0563
    13.1559  13.1621  13.1683  13.1814  13.2167  13.2234  13.2512  13.2979
    13.3312  13.3401  13.3793  13.4123  13.4863  13.5246  13.5252  13.5603
    13.5872  13.6226  13.6875  13.7449  13.7591  13.7830  13.8437  13.8868
    13.8944  13.9744  14.0234  14.0996  14.1258  14.1802  14.2485  14.2774
    14.2984  14.3748  14.3825  14.4676  14.5337  14.5626  14.6464  14.6921
    14.7153  14.8257  14.8339  14.8458  14.9021  14.9646  14.9712  15.0942
    15.1081  15.1171  15.1821  15.2228  15.2710  15.2749  15.2940  15.3901
    15.4052  15.4134  15.4418  15.5653  15.6718  15.7024  15.7041  15.7249
    15.7806  15.7891  15.8276  15.8927  15.9960  16.0118  16.0654  16.2954
    16.3000  16.5441  17.1237  17.3549  17.4874  17.5085  17.6225  17.7017
    17.7248  17.8399  18.5165  18.5689  18.8074  18.8547  19.0038  19.0965
    19.3175  19.5446  19.6387  19.7072  20.3831  20.4556  21.3759  21.3816
    21.5329  22.0446  22.6979  22.7009  22.9259  22.9366  23.2295  23.2514
    23.2930  23.4248  23.4819  23.5665  24.0227  24.0500  24.8099  24.8573
    25.0854

          k = 0.2500 0.0589 0.0000 ( 17783 PWs)   bands (ev):

    -4.5359  -4.2099  -2.9161   0.0513   0.2624   1.4407   2.5633   4.0887
     4.1495   5.6140   5.8448   6.6246   6.7379   7.1621   7.4565   8.2789
     8.3258   8.3662   8.9544   9.0620   9.4057   9.4996   9.5457   9.6203
     9.7184   9.9613  10.1363  10.1590  10.2421  10.2579  10.2880  10.4598
    10.5717  10.7589  10.7799  10.9831  11.0366  11.1801  11.2529  11.3006
    11.3166  11.3235  11.3645  11.3981  11.4625  11.4840  11.5286  11.5826
    11.6389  11.7345  11.7877  11.8277  11.9751  12.0578  12.1116  12.2088
    12.2721  12.2917  12.3910  12.3942  12.4567  12.5070  12.5951  12.6268
    12.7626  12.7825  12.8586  12.8587  12.9530  12.9762  13.0215  13.0283
    13.0457  13.1091  13.1215  13.1350  13.2168  13.2549  13.2968  13.3032
    13.3524  13.3767  13.4105  13.4126  13.4795  13.4816  13.5035  13.5981
    13.6057  13.6391  13.6701  13.7090  13.7179  13.7789  13.8076  13.8881
    13.8972  13.9336  13.9942  14.0529  14.1258  14.1731  14.1979  14.2328
    14.3030  14.3454  14.3963  14.4570  14.4893  14.5894  14.6259  14.7158
    14.7515  14.7690  14.8437  14.8582  14.9003  14.9414  14.9899  15.0670
    15.0908  15.0967  15.1890  15.2092  15.2532  15.3123  15.3254  15.3922
    15.3931  15.4623  15.4674  15.5781  15.6201  15.6802  15.6913  15.7567
    15.7713  15.8082  15.8300  15.8645  15.9594  15.9794  16.0105  16.1443
    16.5426  16.5947  16.8716  16.9973  17.1982  17.3521  17.6224  17.8312
    17.8515  18.0398  18.1845  18.5939  18.8864  19.0615  19.1674  19.2949
    19.3900  19.6889  19.7276  19.9893  20.1849  20.3848  21.5532  21.6016
    21.6866  21.9899  22.0626  22.1963  22.5300  22.6630  23.3056  23.4764
    23.5335  23.6186  23.8436  24.1143  24.2027  24.3626  24.6080  25.0488
    25.1038

          k = 0.2500 0.1179 0.0000 ( 17763 PWs)   bands (ev):

    -4.5195  -3.8762  -2.8433  -0.4004  -0.2698   1.8764   2.0735   3.7269
     4.2937   5.4094   5.7495   6.4364   7.1699   7.7762   7.9203   8.3265
     8.4066   8.4551   8.9839   9.1397   9.2670   9.3686   9.4620   9.6487
     9.8534  10.0791  10.2338  10.2597  10.3189  10.3426  10.3772  10.5502
    10.5906  10.7892  10.8964  11.0273  11.1399  11.1460  11.2858  11.3330
    11.3516  11.3840  11.4042  11.4924  11.5040  11.5168  11.5451  11.6140
    11.6812  11.7554  11.8337  11.8406  11.9536  12.0580  12.0718  12.1539
    12.2574  12.2659  12.3640  12.3932  12.4649  12.4675  12.5715  12.5878
    12.6837  12.7306  12.7779  12.8202  12.9106  12.9408  12.9653  12.9726
    12.9996  12.9997  13.0965  13.1084  13.2255  13.2609  13.2864  13.3034
    13.3524  13.3893  13.4006  13.4324  13.4649  13.4823  13.5088  13.5661
    13.5764  13.6222  13.6399  13.6570  13.6952  13.7324  13.7614  13.8246
    13.8347  13.9030  13.9499  14.0045  14.0488  14.0781  14.1628  14.1898
    14.2616  14.3272  14.3671  14.4019  14.4614  14.4989  14.5791  14.6933
    14.7467  14.7641  14.7937  14.8359  14.9185  14.9878  14.9911  15.0109
    15.0496  15.1114  15.1692  15.2005  15.2618  15.3351  15.3669  15.4216
    15.4410  15.5119  15.5163  15.5449  15.6294  15.6363  15.6530  15.7010
    15.7205  15.7531  15.8202  15.8233  15.8713  15.9020  15.9888  16.2731
    16.3254  16.4239  16.5341  16.7953  17.2190  17.2864  17.4468  17.4793
    17.7563  17.9094  18.4098  18.9006  19.0802  19.2758  19.3218  19.5197
    19.6086  19.8216  19.8417  20.0518  20.6614  20.8901  21.3096  21.4402
    21.6123  21.7222  22.0536  22.1128  22.1362  22.4179  23.1479  23.4642
    23.7754  23.7789  24.0603  24.6063  24.8421  24.9198  25.1209  25.1542
    25.3683

          k = 0.2500 0.1768 0.0000 ( 17751 PWs)   bands (ev):

    -4.3791  -3.4353  -2.7276  -1.0451  -0.7572   1.0227   2.7230   3.5563
     4.5344   4.9949   5.9655   6.1362   7.3656   7.6124   8.2052   8.5758
     8.6113   8.6653   9.2108   9.2952   9.2955   9.3458   9.3824   9.8202
    10.0637  10.1058  10.3168  10.3262  10.3770  10.4467  10.5759  10.6321
    10.7633  10.8664  10.9350  11.1153  11.1213  11.1826  11.2988  11.3400
    11.4231  11.4269  11.4918  11.5116  11.5673  11.6305  11.6321  11.7135
    11.7275  11.7805  11.8429  11.8651  11.9740  11.9839  12.1031  12.1634
    12.2249  12.2805  12.3428  12.4218  12.4640  12.5223  12.5255  12.5279
    12.6061  12.6522  12.6917  12.7519  12.8290  12.8752  12.8840  12.9179
    12.9572  12.9943  13.0794  13.0939  13.1750  13.2328  13.2489  13.2990
    13.3014  13.3463  13.3591  13.4043  13.4282  13.4677  13.4910  13.5147
    13.5383  13.5798  13.6346  13.6415  13.6637  13.6877  13.7267  13.7380
    13.7634  13.8281  13.8721  13.9531  13.9945  14.0466  14.0768  14.1647
    14.1848  14.2878  14.2972  14.3850  14.4088  14.4193  14.5303  14.6220
    14.6378  14.7335  14.7678  14.8172  14.8934  14.9341  14.9587  14.9943
    15.0314  15.1171  15.1784  15.1865  15.2683  15.3450  15.3806  15.3973
    15.4718  15.4799  15.5227  15.5365  15.5679  15.5686  15.6402  15.6532
    15.6817  15.6820  15.7434  15.7567  15.8354  15.8361  15.8678  16.1009
    16.1604  16.4826  16.6210  16.6403  16.8735  17.1484  17.1617  17.7259
    17.9932  18.0642  18.4610  18.5478  19.0059  19.3056  19.5423  19.6810
    19.8906  20.1261  20.2978  20.3663  20.7278  20.9565  21.1969  21.3597
    21.6051  21.7072  21.9589  22.1883  22.2724  22.5209  22.9963  23.5582
    23.7026  23.8336  24.0360  25.0685  25.1947  25.2172  25.4056  25.6782
    25.9429

          k = 0.2500 0.2357 0.0000 ( 17768 PWs)   bands (ev):

    -4.1137  -2.8927  -2.5994  -1.7224  -1.1954   0.1341   3.3756   3.5702
     4.6120   4.8642   5.7305   6.2615   6.8301   7.9550   8.0691   8.4372
     8.8734   8.9458   9.2253   9.2319   9.3843   9.4634   9.8953  10.0298
    10.0345  10.2563  10.3077  10.4167  10.5095  10.5606  10.7111  10.7508
    10.7590  10.8784  10.9363  11.0682  11.1927  11.3195  11.3253  11.4056
    11.4673  11.5279  11.5294  11.5518  11.6238  11.6985  11.7118  11.7595
    11.8475  11.8514  11.9343  11.9656  12.0231  12.0450  12.1687  12.1825
    12.2487  12.2995  12.3272  12.3957  12.4377  12.4468  12.4866  12.5297
    12.5916  12.6084  12.6325  12.7162  12.7363  12.8095  12.8444  12.8773
    12.9253  12.9530  13.0135  13.0349  13.1402  13.1491  13.1804  13.2376
    13.2457  13.2698  13.3403  13.3423  13.3960  13.4020  13.4371  13.4516
    13.4959  13.5194  13.5585  13.5780  13.6285  13.6547  13.7157  13.7276
    13.7470  13.7864  13.8668  13.9065  13.9583  13.9973  14.0776  14.1311
    14.2230  14.2539  14.2767  14.3608  14.3918  14.4454  14.4885  14.5437
    14.6178  14.6326  14.6470  14.7607  14.8409  14.8582  14.9461  14.9780
    14.9948  15.0696  15.1067  15.1432  15.1903  15.2567  15.2935  15.3039
    15.3703  15.4378  15.4430  15.4943  15.5303  15.5636  15.6186  15.6386
    15.6728  15.6764  15.7491  15.7929  15.7976  15.8649  15.8780  16.0888
    16.1207  16.3836  16.5902  16.6721  16.8804  17.0405  17.1882  17.9628
    18.0812  18.2679  18.3821  18.3826  18.7522  19.2196  19.5096  19.8300
    19.9389  20.1413  20.1927  20.5366  20.6772  21.0287  21.4214  21.5876
    21.8381  21.9338  22.1091  22.2865  22.3847  22.6299  22.9479  23.6080
    23.9075  24.0064  24.3916  25.0982  25.4196  25.4419  25.6398  25.6693
    25.7434

          k = 0.2500 0.2946 0.0000 ( 17790 PWs)   bands (ev):

    -3.7266  -2.7178  -2.2547  -2.0746  -1.5792  -0.7269   3.7124   3.9891
     4.2975   5.2329   5.2739   6.2765   6.6325   7.5554   8.2456   8.5072
     9.0930   9.1711   9.2336   9.3725   9.4392   9.5162   9.8358  10.0183
    10.1977  10.2471  10.4025  10.4537  10.5815  10.6598  10.6882  10.7384
    10.7735  10.8374  11.0919  11.1476  11.1701  11.3169  11.3790  11.4797
    11.5252  11.5815  11.5832  11.6708  11.6927  11.7329  11.7794  11.8383
    11.9318  11.9354  12.0233  12.0360  12.1252  12.1737  12.2210  12.2432
    12.2995  12.3045  12.3240  12.3600  12.3786  12.4407  12.4510  12.4794
    12.5240  12.5824  12.6523  12.6577  12.7187  12.7591  12.7655  12.8313
    12.8429  12.9129  12.9280  13.0039  13.0231  13.0853  13.0959  13.1264
    13.1747  13.1982  13.2129  13.3284  13.3479  13.3494  13.4063  13.4110
    13.4595  13.4880  13.4929  13.5333  13.5845  13.6673  13.6857  13.7140
    13.7458  13.8240  13.8293  14.0024  14.0043  14.0502  14.0923  14.1392
    14.1877  14.2821  14.3177  14.3618  14.3906  14.4471  14.4668  14.5140
    14.5338  14.5826  14.6238  14.6470  14.7044  14.7649  14.8082  14.8916
    14.8960  14.9857  15.0159  15.0756  15.0871  15.1919  15.2474  15.3790
    15.4214  15.4674  15.4842  15.5120  15.5290  15.6253  15.6293  15.6717
    15.7055  15.7907  15.7981  15.8179  15.9004  15.9155  15.9570  16.0487
    16.0853  16.1930  16.3704  16.9153  16.9383  17.2368  17.3743  17.6423
    17.9810  18.1274  18.4782  18.5951  18.6400  18.7674  19.4811  19.6614
    19.7206  20.1124  20.2883  20.5770  20.6912  21.0013  21.4822  21.8467
    22.0072  22.1485  22.4115  22.4694  22.6806  22.8485  22.9951  23.6437
    24.3560  24.6741  24.7763  24.8145  25.0281  25.1049  25.5931  25.6349
    25.7690

          k = 0.2500-0.3536 0.0000 ( 17788 PWs)   bands (ev):

    -3.2329  -3.2329  -1.8968  -1.8967  -1.5289  -1.5289   3.9379   3.9379
     4.6700   4.6700   5.7501   5.7501   7.0689   7.0689   8.4382   8.4383
     9.1365   9.1366   9.4696   9.4696   9.5666   9.5666   9.7649   9.7649
    10.1431  10.1431  10.5722  10.5722  10.6615  10.6615  10.7055  10.7055
    10.7805  10.7805  11.1255  11.1255  11.2554  11.2554  11.4363  11.4363
    11.5602  11.5602  11.6909  11.6909  11.7354  11.7354  11.9086  11.9086
    11.9343  11.9343  12.0395  12.0396  12.1631  12.1631  12.2699  12.2699
    12.3122  12.3122  12.3599  12.3599  12.4112  12.4112  12.4708  12.4708
    12.5966  12.5966  12.6135  12.6135  12.6995  12.6995  12.7666  12.7666
    12.8329  12.8329  12.9079  12.9079  13.0146  13.0146  13.0600  13.0600
    13.0963  13.0963  13.2497  13.2497  13.3539  13.3539  13.3975  13.3975
    13.4633  13.4633  13.5458  13.5458  13.6294  13.6294  13.6857  13.6857
    13.7818  13.7818  13.8600  13.8600  14.0910  14.0910  14.1657  14.1657
    14.2621  14.2621  14.3677  14.3677  14.4030  14.4030  14.4780  14.4780
    14.5271  14.5271  14.5979  14.5979  14.6600  14.6600  14.6975  14.6975
    14.9163  14.9163  15.0209  15.0209  15.1489  15.1489  15.3164  15.3164
    15.4580  15.4581  15.5151  15.5151  15.5761  15.5761  15.6679  15.6679
    15.7795  15.7795  15.8949  15.8949  15.9779  15.9779  16.0491  16.0491
    16.1571  16.1571  16.5864  16.5864  17.1498  17.1498  17.5760  17.5760
    17.8947  17.8947  18.2865  18.2865  19.0491  19.0491  19.1966  19.1966
    19.9712  19.9712  20.3879  20.3879  21.0288  21.0288  21.4723  21.4723
    22.2007  22.2007  22.5577  22.5577  22.9458  22.9458  23.7429  23.7429
    23.9523  23.9523  25.1976  25.1978  25.3812  25.3812  25.4374  25.4377
    25.6972

          k = 0.2500-0.2946 0.0000 ( 17790 PWs)   bands (ev):

    -3.7266  -2.7178  -2.2547  -2.0746  -1.5792  -0.7269   3.7124   3.9891
     4.2975   5.2329   5.2739   6.2765   6.6325   7.5554   8.2456   8.5072
     9.0930   9.1711   9.2336   9.3725   9.4392   9.5162   9.8358  10.0183
    10.1977  10.2471  10.4025  10.4537  10.5815  10.6598  10.6882  10.7384
    10.7735  10.8374  11.0919  11.1476  11.1701  11.3169  11.3790  11.4797
    11.5252  11.5815  11.5832  11.6708  11.6927  11.7329  11.7794  11.8383
    11.9318  11.9354  12.0233  12.0360  12.1252  12.1737  12.2210  12.2432
    12.2995  12.3045  12.3240  12.3600  12.3786  12.4407  12.4510  12.4794
    12.5240  12.5824  12.6523  12.6577  12.7187  12.7591  12.7655  12.8313
    12.8429  12.9129  12.9280  13.0039  13.0231  13.0853  13.0959  13.1264
    13.1747  13.1982  13.2129  13.3284  13.3479  13.3494  13.4064  13.4110
    13.4595  13.4880  13.4929  13.5333  13.5845  13.6673  13.6857  13.7140
    13.7458  13.8240  13.8293  14.0024  14.0043  14.0502  14.0923  14.1392
    14.1877  14.2821  14.3177  14.3618  14.3906  14.4471  14.4668  14.5140
    14.5338  14.5826  14.6238  14.6470  14.7044  14.7649  14.8082  14.8916
    14.8960  14.9857  15.0159  15.0756  15.0871  15.1919  15.2474  15.3790
    15.4214  15.4674  15.4842  15.5120  15.5290  15.6253  15.6293  15.6717
    15.7055  15.7907  15.7981  15.8179  15.9004  15.9155  15.9570  16.0487
    16.0853  16.1930  16.3704  16.9153  16.9383  17.2368  17.3743  17.6423
    17.9810  18.1274  18.4782  18.5951  18.6400  18.7674  19.4811  19.6614
    19.7206  20.1124  20.2883  20.5770  20.6912  21.0013  21.4822  21.8467
    22.0072  22.1485  22.4115  22.4694  22.6805  22.8485  22.9951  23.6437
    24.3560  24.6741  24.7763  24.8144  25.0281  25.1049  25.5932  25.6360
    25.7689

          k = 0.2500-0.2357 0.0000 ( 17768 PWs)   bands (ev):

    -4.1137  -2.8927  -2.5994  -1.7224  -1.1954   0.1341   3.3756   3.5702
     4.6120   4.8642   5.7305   6.2615   6.8301   7.9550   8.0691   8.4372
     8.8734   8.9458   9.2253   9.2319   9.3843   9.4634   9.8953  10.0298
    10.0345  10.2563  10.3077  10.4167  10.5095  10.5606  10.7111  10.7508
    10.7590  10.8784  10.9363  11.0682  11.1927  11.3195  11.3253  11.4056
    11.4673  11.5279  11.5294  11.5518  11.6238  11.6985  11.7118  11.7595
    11.8475  11.8514  11.9343  11.9656  12.0231  12.0450  12.1687  12.1825
    12.2487  12.2995  12.3272  12.3957  12.4377  12.4468  12.4866  12.5297
    12.5916  12.6084  12.6325  12.7162  12.7363  12.8095  12.8444  12.8773
    12.9253  12.9530  13.0135  13.0349  13.1402  13.1491  13.1804  13.2376
    13.2457  13.2698  13.3403  13.3423  13.3960  13.4020  13.4371  13.4516
    13.4959  13.5194  13.5585  13.5780  13.6285  13.6547  13.7157  13.7276
    13.7470  13.7864  13.8668  13.9065  13.9583  13.9973  14.0776  14.1311
    14.2230  14.2539  14.2767  14.3608  14.3918  14.4454  14.4885  14.5437
    14.6178  14.6326  14.6470  14.7607  14.8409  14.8582  14.9461  14.9780
    14.9948  15.0696  15.1067  15.1432  15.1903  15.2567  15.2935  15.3039
    15.3703  15.4378  15.4430  15.4943  15.5303  15.5636  15.6186  15.6386
    15.6728  15.6764  15.7491  15.7929  15.7976  15.8649  15.8780  16.0888
    16.1207  16.3836  16.5902  16.6721  16.8804  17.0405  17.1882  17.9628
    18.0812  18.2679  18.3821  18.3826  18.7522  19.2196  19.5096  19.8300
    19.9389  20.1413  20.1927  20.5366  20.6772  21.0287  21.4214  21.5876
    21.8381  21.9338  22.1091  22.2865  22.3847  22.6299  22.9479  23.6080
    23.9075  24.0064  24.3916  25.0982  25.4196  25.4419  25.6403  25.6693
    25.7437

          k = 0.2500-0.1768 0.0000 ( 17751 PWs)   bands (ev):

    -4.3791  -3.4353  -2.7276  -1.0451  -0.7572   1.0227   2.7230   3.5563
     4.5344   4.9949   5.9655   6.1362   7.3656   7.6124   8.2052   8.5758
     8.6113   8.6653   9.2108   9.2952   9.2955   9.3458   9.3824   9.8202
    10.0637  10.1058  10.3168  10.3262  10.3770  10.4467  10.5759  10.6321
    10.7633  10.8664  10.9350  11.1153  11.1213  11.1826  11.2988  11.3400
    11.4231  11.4269  11.4918  11.5116  11.5673  11.6305  11.6321  11.7135
    11.7275  11.7805  11.8429  11.8651  11.9740  11.9839  12.1031  12.1634
    12.2249  12.2805  12.3428  12.4218  12.4640  12.5223  12.5255  12.5279
    12.6061  12.6522  12.6917  12.7519  12.8290  12.8752  12.8840  12.9179
    12.9572  12.9943  13.0794  13.0939  13.1750  13.2328  13.2489  13.2990
    13.3014  13.3463  13.3591  13.4043  13.4282  13.4677  13.4910  13.5147
    13.5383  13.5798  13.6346  13.6415  13.6637  13.6877  13.7267  13.7380
    13.7634  13.8281  13.8721  13.9531  13.9945  14.0466  14.0768  14.1647
    14.1848  14.2878  14.2972  14.3850  14.4088  14.4193  14.5303  14.6220
    14.6378  14.7335  14.7678  14.8172  14.8934  14.9341  14.9587  14.9943
    15.0314  15.1171  15.1784  15.1865  15.2683  15.3450  15.3806  15.3973
    15.4718  15.4799  15.5227  15.5365  15.5679  15.5686  15.6402  15.6532
    15.6817  15.6820  15.7434  15.7567  15.8354  15.8361  15.8678  16.1009
    16.1604  16.4826  16.6210  16.6403  16.8735  17.1484  17.1617  17.7259
    17.9932  18.0642  18.4610  18.5478  19.0059  19.3056  19.5423  19.6810
    19.8906  20.1261  20.2978  20.3663  20.7278  20.9565  21.1969  21.3597
    21.6051  21.7072  21.9589  22.1883  22.2724  22.5209  22.9963  23.5582
    23.7026  23.8336  24.0360  25.0685  25.1947  25.2172  25.4057  25.6782
    25.9423

          k = 0.2500-0.1179 0.0000 ( 17763 PWs)   bands (ev):

    -4.5195  -3.8762  -2.8433  -0.4004  -0.2698   1.8764   2.0735   3.7269
     4.2937   5.4094   5.7495   6.4364   7.1699   7.7762   7.9203   8.3265
     8.4066   8.4551   8.9839   9.1397   9.2670   9.3686   9.4620   9.6487
     9.8534  10.0791  10.2338  10.2597  10.3189  10.3426  10.3772  10.5502
    10.5906  10.7892  10.8964  11.0273  11.1399  11.1460  11.2858  11.3330
    11.3516  11.3840  11.4042  11.4924  11.5040  11.5168  11.5451  11.6140
    11.6812  11.7554  11.8337  11.8406  11.9536  12.0580  12.0718  12.1539
    12.2574  12.2659  12.3640  12.3932  12.4649  12.4675  12.5715  12.5878
    12.6837  12.7306  12.7779  12.8202  12.9106  12.9408  12.9653  12.9726
    12.9996  12.9997  13.0965  13.1084  13.2255  13.2609  13.2864  13.3034
    13.3524  13.3893  13.4006  13.4324  13.4649  13.4823  13.5088  13.5661
    13.5764  13.6222  13.6399  13.6570  13.6952  13.7324  13.7614  13.8246
    13.8347  13.9030  13.9499  14.0045  14.0488  14.0781  14.1628  14.1898
    14.2616  14.3272  14.3671  14.4019  14.4614  14.4989  14.5791  14.6933
    14.7467  14.7641  14.7937  14.8359  14.9185  14.9878  14.9911  15.0109
    15.0496  15.1114  15.1692  15.2005  15.2618  15.3351  15.3669  15.4216
    15.4410  15.5119  15.5163  15.5449  15.6294  15.6363  15.6530  15.7010
    15.7205  15.7531  15.8202  15.8233  15.8713  15.9020  15.9888  16.2731
    16.3254  16.4239  16.5341  16.7953  17.2190  17.2864  17.4468  17.4793
    17.7563  17.9094  18.4098  18.9006  19.0802  19.2758  19.3218  19.5197
    19.6086  19.8216  19.8417  20.0518  20.6614  20.8901  21.3096  21.4402
    21.6123  21.7222  22.0536  22.1128  22.1362  22.4179  23.1479  23.4642
    23.7754  23.7789  24.0603  24.6063  24.8420  24.9198  25.1209  25.1542
    25.3683

          k = 0.2500-0.0589 0.0000 ( 17783 PWs)   bands (ev):

    -4.5359  -4.2099  -2.9161   0.0513   0.2624   1.4407   2.5633   4.0887
     4.1495   5.6140   5.8448   6.6246   6.7379   7.1621   7.4565   8.2789
     8.3258   8.3662   8.9544   9.0620   9.4057   9.4996   9.5456   9.6203
     9.7184   9.9613  10.1363  10.1590  10.2421  10.2579  10.2880  10.4598
    10.5717  10.7589  10.7799  10.9831  11.0366  11.1801  11.2529  11.3006
    11.3166  11.3235  11.3645  11.3981  11.4625  11.4840  11.5286  11.5826
    11.6389  11.7345  11.7877  11.8277  11.9751  12.0578  12.1116  12.2088
    12.2721  12.2917  12.3910  12.3942  12.4567  12.5070  12.5951  12.6268
    12.7626  12.7825  12.8586  12.8587  12.9530  12.9762  13.0215  13.0283
    13.0457  13.1091  13.1215  13.1350  13.2168  13.2549  13.2968  13.3032
    13.3524  13.3767  13.4105  13.4126  13.4795  13.4816  13.5035  13.5981
    13.6057  13.6391  13.6701  13.7090  13.7179  13.7789  13.8076  13.8881
    13.8972  13.9336  13.9942  14.0529  14.1258  14.1731  14.1979  14.2328
    14.3030  14.3454  14.3963  14.4570  14.4893  14.5894  14.6259  14.7158
    14.7515  14.7690  14.8437  14.8582  14.9003  14.9414  14.9899  15.0670
    15.0908  15.0967  15.1890  15.2092  15.2532  15.3123  15.3254  15.3922
    15.3931  15.4623  15.4674  15.5781  15.6201  15.6802  15.6913  15.7567
    15.7713  15.8082  15.8300  15.8645  15.9594  15.9794  16.0105  16.1443
    16.5426  16.5947  16.8716  16.9973  17.1982  17.3521  17.6224  17.8312
    17.8515  18.0398  18.1845  18.5939  18.8864  19.0615  19.1674  19.2949
    19.3900  19.6889  19.7276  19.9893  20.1849  20.3848  21.5532  21.6016
    21.6866  21.9899  22.0626  22.1963  22.5300  22.6630  23.3056  23.4764
    23.5335  23.6186  23.8436  24.1143  24.2027  24.3626  24.6080  25.0489
    25.1029

          k = 0.3750 0.0000 0.0000 ( 17794 PWs)   bands (ev):

    -4.4151  -4.4151  -2.9475   0.2387   0.8370   0.8370   2.8634   4.1252
     4.3189   6.1356   6.3945   6.3946   6.6302   6.9787   7.1725   8.2509
     8.5309   8.6954   8.6962   8.9838   9.4176   9.7096   9.7157   9.7964
     9.8062   9.8585  10.1486  10.1948  10.2350  10.2440  10.3900  10.4687
    10.5599  10.7514  10.7592  10.7948  10.9217  11.0850  11.1533  11.1978
    11.2313  11.2685  11.3013  11.5204  11.6112  11.6316  11.7586  11.8297
    11.8793  11.8809  11.9926  12.0104  12.1060  12.1223  12.2820  12.3405
    12.3703  12.4182  12.4294  12.5629  12.6463  12.6654  12.7554  12.7600
    12.8222  12.8893  12.9255  12.9509  12.9756  12.9889  13.0185  13.0478
    13.0637  13.0835  13.1060  13.1181  13.1361  13.1514  13.1948  13.2604
    13.3061  13.3207  13.3681  13.4139  13.4185  13.4458  13.5107  13.5523
    13.5701  13.5852  13.6521  13.6730  13.7028  13.8175  13.8732  13.8793
    13.9090  13.9318  13.9636  14.0399  14.0603  14.1302  14.1817  14.1934
    14.2565  14.2625  14.4633  14.4756  14.4866  14.5928  14.6147  14.6185
    14.6941  14.6975  14.8426  14.8510  14.8551  14.8562  14.9964  15.0495
    15.0920  15.0939  15.1035  15.1472  15.1585  15.1945  15.2069  15.3517
    15.4348  15.4852  15.4990  15.5020  15.5841  15.7025  15.7256  15.7582
    15.7590  15.7953  15.8193  15.8624  15.8646  15.8831  15.9735  15.9787
    16.2064  16.3614  16.3670  16.4937  17.1074  17.1442  17.1866  17.4578
    17.6766  17.7122  17.9108  18.0023  18.5653  18.5962  18.6989  19.5128
    19.7035  19.8155  20.0105  20.2133  20.4303  21.2209  21.2769  21.3109
    21.3531  21.4259  21.6357  21.6826  21.8295  21.9498  22.0775  22.1214
    22.6849  22.7180  23.3901  23.5075  23.5972  23.6929  24.3477  24.3779
    24.7021

          k = 0.3750 0.0589 0.0000 ( 17796 PWs)   bands (ev):

    -4.5217  -4.1917  -2.9229   0.0729   0.2626   1.4455   2.5850   4.0847
     4.2024   5.9607   6.1746   6.5817   6.8229   7.2655   7.4983   8.2951
     8.3737   8.5731   8.9141   9.0894   9.4027   9.5227   9.6378   9.8607
     9.8915   9.9468  10.1656  10.2296  10.2428  10.2758  10.4404  10.5129
    10.5870  10.6331  10.8240  10.9067  10.9481  11.0822  11.1913  11.2326
    11.2626  11.2796  11.3269  11.5358  11.6150  11.6311  11.7588  11.8369
    11.8866  11.9071  11.9855  12.0325  12.0910  12.1404  12.2310  12.3467
    12.3688  12.4197  12.4234  12.5547  12.6182  12.6708  12.7114  12.7570
    12.8035  12.8641  12.8687  12.9254  12.9424  12.9574  13.0090  13.0169
    13.0531  13.0612  13.1030  13.1101  13.1600  13.1774  13.1859  13.2430
    13.2977  13.3147  13.3673  13.3721  13.4398  13.4478  13.5020  13.5211
    13.5618  13.6009  13.6276  13.7084  13.7085  13.7539  13.8105  13.8775
    13.8971  13.9286  13.9802  14.0240  14.0551  14.0785  14.1765  14.2002
    14.2068  14.2955  14.3997  14.4553  14.5025  14.5623  14.5895  14.6269
    14.6386  14.7105  14.7988  14.8331  14.8835  14.9024  14.9497  14.9737
    15.0455  15.0481  15.0997  15.1369  15.1388  15.2059  15.2529  15.3824
    15.4336  15.4629  15.4871  15.5480  15.6107  15.6567  15.6718  15.7429
    15.7604  15.7802  15.8330  15.8495  15.8811  15.9200  15.9308  16.0089
    16.0294  16.3193  16.5353  16.5869  16.8775  17.2056  17.2232  17.3772
    17.5059  17.6033  17.7512  18.2073  18.6103  18.7683  18.8919  19.1967
    19.4799  19.8422  20.2980  20.4714  20.5236  20.8280  21.0161  21.0973
    21.1628  21.3679  21.4397  21.6606  22.0759  22.2636  22.4611  22.6579
    23.0022  23.3262  23.4171  23.4951  23.5283  23.7902  24.0640  24.4406
    24.7418

          k = 0.3750 0.1179 0.0000 ( 17793 PWs)   bands (ev):

    -4.5073  -3.8559  -2.8503  -0.3912  -0.2716   1.9047   2.0802   3.8024
     4.3375   5.5339   6.2896   6.4014   7.2283   7.6744   7.9534   8.3656
     8.4264   8.6969   8.9990   9.3150   9.3647   9.3936   9.4932   9.9638
     9.9800  10.0583  10.2161  10.2810  10.3334  10.3500  10.5641  10.5788
    10.6474  10.6886  10.9040  11.0229  11.0233  11.1038  11.2762  11.2929
    11.3361  11.3459  11.4200  11.5461  11.6360  11.6445  11.7510  11.8450
    11.9150  11.9532  12.0033  12.0405  12.0745  12.1495  12.1709  12.3371
    12.3789  12.3804  12.4459  12.5116  12.5435  12.6012  12.6626  12.7298
    12.7516  12.8095  12.8367  12.8941  12.9009  12.9141  12.9649  12.9928
    13.0399  13.0483  13.0718  13.0943  13.1067  13.1730  13.2023  13.2294
    13.2366  13.2998  13.3198  13.3669  13.4138  13.4575  13.4769  13.5133
    13.5345  13.5772  13.6162  13.6223  13.7305  13.7388  13.7966  13.8300
    13.8328  13.8839  13.8922  13.9581  13.9998  14.0859  14.0958  14.1896
    14.1972  14.2851  14.3772  14.3950  14.4631  14.4740  14.5194  14.5319
    14.6115  14.6227  14.7084  14.7262  14.7994  14.8286  14.8474  14.9316
    14.9794  15.0572  15.1031  15.1456  15.1821  15.2317  15.2672  15.3722
    15.3835  15.4539  15.5100  15.5177  15.5623  15.6242  15.6404  15.7202
    15.7231  15.7426  15.7537  15.8080  15.8180  15.8508  15.8864  16.1128
    16.2512  16.2673  16.4902  16.6048  16.7878  16.7887  17.2206  17.5818
    17.5928  17.7923  17.8614  17.8661  18.1817  18.9115  19.0828  19.2787
[...]
    12.6184  12.6194  12.6686  12.6690  12.7690  12.7699  12.9266  12.9268
    13.0241  13.0245  13.0541  13.0548  13.1190  13.1202  13.1949  13.1956
    13.2045  13.2061  13.3627  13.3633  13.3991  13.3992  13.4716  13.4719
    13.5170  13.5171  13.9651  13.9655  14.0095  14.0103  14.1736  14.1741
    14.3493  14.3497  14.4401  14.4402  14.6466  14.6471  14.7721  14.7727
    14.9114  14.9115  14.9306  14.9326  15.0376  15.0385  15.0487  15.0495
    15.0993  15.1001  15.1114  15.1124  15.1344  15.1346  15.1515  15.1517
    15.1683  15.1684  15.2801  15.2807  15.2929  15.2935  15.3709  15.3711
    15.4006  15.4021  15.4063  15.4073  15.6598  15.6611  15.8550  15.8559
    15.8571  15.8578  15.9496  15.9507  15.9873  15.9891  16.6096  16.6097
    16.8429  16.8446  17.3894  17.3898  17.6125  17.6150  18.4656  18.4667
    19.4057  19.4068  19.9096  19.9107  20.5311  20.5328  20.6544  20.6548
    20.7998  20.8001  20.8416  20.8428  21.2872  21.2882  21.3578  21.3588
    22.1159  22.1168  22.7922  22.7933  23.5238  23.5249  23.9018  23.9034
    24.0762

          k =-0.5000 0.0589 0.0000 ( 17814 PWs)   bands (ev):

     8.8829   8.8837   9.3639   9.3651   9.4936   9.4939   9.5961   9.5980
     9.6152   9.6169   9.6985   9.7002   9.7866   9.7887   9.9182   9.9208
     9.9306   9.9328  10.0373  10.0378  10.2539  10.2558  10.4676  10.4683
    10.6152  10.6158  10.7792  10.7804  10.8018  10.8023  10.9746  10.9757
    11.1138  11.1150  11.1769  11.1791  11.3551  11.3560  11.3643  11.3663
    11.5047  11.5066  11.5448  11.5458  11.6903  11.6921  11.8515  11.8530
    11.9570  11.9573  12.0301  12.0311  12.1577  12.1588  12.1628  12.1635
    12.2387  12.2399  12.3377  12.3382  12.3618  12.3634  12.3943  12.3955
    12.3963  12.3971  12.4483  12.4490  12.5234  12.5237  12.5822  12.5824
    12.5831  12.5858  12.6787  12.6794  12.7524  12.7529  12.9213  12.9217
    12.9243  12.9251  13.0467  13.0474  13.1834  13.1851  13.2372  13.2379
    13.2750  13.2756  13.3186  13.3189  13.3447  13.3454  13.5470  13.5479
    13.6271  13.6273  13.9219  13.9225  14.0115  14.0124  14.1385  14.1386
    14.3384  14.3391  14.4204  14.4206  14.6353  14.6357  14.6382  14.6391
    14.7421  14.7430  14.8296  14.8299  14.9073  14.9079  14.9825  14.9836
    15.0217  15.0219  15.0785  15.0792  15.1486  15.1487  15.1793  15.1795
    15.1918  15.1927  15.2456  15.2459  15.3105  15.3110  15.3536  15.3544
    15.3632  15.3635  15.5387  15.5399  15.6394  15.6408  15.8250  15.8257
    15.9224  15.9231  15.9753  15.9759  16.0370  16.0384  16.5341  16.5346
    16.9656  16.9673  17.2986  17.2991  17.7140  17.7162  18.2347  18.2356
    19.2654  19.2660  19.9859  19.9869  20.0471  20.0481  20.8073  20.8078
    21.0304  21.0311  21.0557  21.0559  21.4913  21.4923  21.8313  21.8320
    22.0689  22.0699  22.7845  22.7850  23.5362  23.5372  23.9823  23.9838
    24.5032

          k =-0.5000 0.1179 0.0000 ( 17794 PWs)   bands (ev):

     8.9729   8.9737   9.3908   9.3921   9.5548   9.5551   9.6276   9.6295
     9.7028   9.7046   9.7815   9.7833   9.8839   9.8860   9.9594   9.9620
    10.0305  10.0327  10.1672  10.1677  10.2922  10.2941  10.4962  10.4967
    10.6704  10.6710  10.8309  10.8320  10.8432  10.8436  11.0176  11.0186
    11.1719  11.1725  11.1932  11.1961  11.3509  11.3516  11.3956  11.3974
    11.4440  11.4456  11.5740  11.5749  11.6957  11.6971  11.8085  11.8098
    11.9475  11.9487  12.0186  12.0193  12.0881  12.0898  12.0968  12.0976
    12.1709  12.1719  12.2331  12.2335  12.2720  12.2730  12.2839  12.2855
    12.3635  12.3647  12.4036  12.4062  12.4691  12.4696  12.5308  12.5309
    12.5813  12.5837  12.6223  12.6226  12.7712  12.7722  12.8618  12.8623
    12.8870  12.8885  13.0339  13.0346  13.1648  13.1657  13.2666  13.2671
    13.3082  13.3087  13.3766  13.3767  13.4656  13.4657  13.5855  13.5869
    13.7719  13.7728  13.7750  13.7754  14.0084  14.0094  14.0226  14.0231
    14.3147  14.3156  14.3519  14.3541  14.3585  14.3587  14.5173  14.5175
    14.5768  14.5777  14.5906  14.5912  14.7073  14.7076  14.7798  14.7810
    14.9008  14.9014  15.0223  15.0229  15.0274  15.0287  15.0560  15.0561
    15.1392  15.1403  15.1950  15.1956  15.2073  15.2073  15.3674  15.3676
    15.5623  15.5624  15.5808  15.5822  15.7068  15.7076  15.7445  15.7450
    15.9525  15.9527  16.1206  16.1213  16.2328  16.2336  16.3737  16.3746
    17.0848  17.0854  17.2946  17.2961  17.8149  17.8155  17.9807  17.9824
    18.8445  18.8451  19.4359  19.4367  20.2087  20.2095  20.9591  20.9597
    21.2653  21.2655  21.6236  21.6247  21.9436  21.9443  22.0264  22.0268
    22.8329  22.8332  23.0346  23.0356  23.5736  23.5746  24.5446  24.5454
    24.8627

          k =-0.5000 0.1768 0.0000 ( 17756 PWs)   bands (ev):

     9.1061   9.1070   9.4290   9.4304   9.6368   9.6374   9.6733   9.6752
     9.8393   9.8411   9.9072   9.9090  10.0238  10.0264  10.0285  10.0306
    10.1832  10.1854  10.3470  10.3488  10.3770  10.3776  10.5431  10.5434
    10.7394  10.7398  10.9094  10.9096  10.9137  10.9147  11.0998  11.1007
    11.1610  11.1611  11.2682  11.2702  11.3371  11.3385  11.3438  11.3443
    11.4813  11.4831  11.6048  11.6053  11.7045  11.7054  11.8016  11.8026
    11.8881  11.8892  11.9438  11.9443  12.0115  12.0136  12.0257  12.0263
    12.0432  12.0447  12.0843  12.0859  12.1477  12.1486  12.1898  12.1905
    12.2630  12.2651  12.3686  12.3700  12.4136  12.4138  12.4760  12.4770
    12.5627  12.5639  12.5912  12.5924  12.7546  12.7555  12.8312  12.8315
    12.9747  12.9749  13.0657  13.0664  13.1441  13.1446  13.2128  13.2131
    13.2593  13.2605  13.4555  13.4556  13.4889  13.4898  13.5888  13.5905
    13.6201  13.6205  13.6849  13.6852  13.9463  13.9468  14.0141  14.0148
    14.0720  14.0747  14.1067  14.1072  14.2230  14.2239  14.2673  14.2678
    14.4491  14.4511  14.4686  14.4693  14.6258  14.6267  14.6426  14.6436
    14.7571  14.7578  14.8067  14.8073  14.9194  14.9198  14.9706  14.9717
    14.9802  14.9810  15.0549  15.0553  15.1872  15.1881  15.4661  15.4663
    15.5154  15.5169  15.6574  15.6577  15.7587  15.7592  15.8342  15.8352
    15.9447  15.9453  16.2025  16.2036  16.3463  16.3468  16.5361  16.5366
    16.8401  16.8407  17.4244  17.4248  17.7504  17.7516  18.3387  18.3400
    18.3823  18.3830  18.8814  18.8821  20.5467  20.5475  20.5627  20.5632
    21.1817  21.1826  22.2400  22.2406  22.7008  22.7016  22.9328  22.9331
    23.5469  23.5474  23.6369  23.6379  23.7116  23.7121  24.8078  24.8084
    25.0855

          k =-0.5000 0.2357 0.0000 ( 17778 PWs)   bands (ev):

     9.2558   9.2568   9.4670   9.4684   9.7145   9.7154   9.7226   9.7246
    10.0073  10.0090  10.0569  10.0587  10.1025  10.1050  10.1909  10.1928
    10.3664  10.3686  10.4007  10.4023  10.5891  10.5895  10.6509  10.6515
    10.7893  10.7896  10.9746  10.9756  11.0115  11.0122  11.1088  11.1090
    11.2341  11.2353  11.2524  11.2533  11.3154  11.3179  11.3857  11.3865
    11.5674  11.5691  11.6124  11.6128  11.6840  11.6850  11.7370  11.7381
    11.8577  11.8581  11.8725  11.8731  11.9216  11.9228  11.9363  11.9385
    11.9561  11.9569  11.9779  11.9801  12.0756  12.0759  12.1077  12.1083
    12.1408  12.1435  12.2743  12.2747  12.3138  12.3152  12.4671  12.4678
    12.5172  12.5177  12.6279  12.6292  12.6736  12.6740  12.9408  12.9413
    12.9567  12.9570  13.0180  13.0183  13.0255  13.0276  13.1790  13.1794
    13.2351  13.2353  13.3116  13.3122  13.3298  13.3299  13.4420  13.4429
    13.5902  13.5906  13.6997  13.7004  13.7398  13.7403  13.9160  13.9170
    13.9959  13.9966  14.0040  14.0049  14.0949  14.0952  14.1008  14.1011
    14.2956  14.2967  14.3002  14.3022  14.5585  14.5589  14.5942  14.5949
    14.5971  14.5985  14.7180  14.7190  14.7452  14.7459  14.8388  14.8393
    14.9334  14.9338  15.0295  15.0298  15.2063  15.2069  15.4791  15.4806
    15.5560  15.5566  15.6056  15.6059  15.8172  15.8176  15.9390  15.9394
    16.0395  16.0406  16.0592  16.0593  16.6029  16.6034  16.6297  16.6300
    16.8723  16.8726  17.0948  17.0952  17.9696  17.9702  18.2705  18.2715
    18.4002  18.4008  18.7309  18.7319  20.1381  20.1390  20.6516  20.6525
    21.0268  21.0271  23.2309  23.2312  23.3218  23.3226  23.7273  23.7283
    23.7838  23.7839  23.9817  23.9821  24.2456  24.2463  25.2708  25.2715
    25.6720

          k =-0.5000 0.2946 0.0000 ( 17762 PWs)   bands (ev):

     9.3860   9.3872   9.4868   9.4882   9.7626   9.7645   9.7652   9.7666
    10.1554  10.1566  10.1768  10.1791  10.2215  10.2236  10.3349  10.3361
    10.4220  10.4232  10.5494  10.5516  10.5737  10.5747  10.7837  10.7848
    10.9355  10.9359  10.9651  10.9666  11.0873  11.0880  11.1544  11.1553
    11.2137  11.2151  11.3301  11.3329  11.3939  11.3953  11.4449  11.4454
    11.5604  11.5622  11.5633  11.5640  11.7097  11.7099  11.7100  11.7113
    11.7635  11.7641  11.7692  11.7697  11.8384  11.8391  11.8541  11.8557
    11.9051  11.9059  12.0130  12.0134  12.0138  12.0153  12.0878  12.0898
    12.1016  12.1027  12.2300  12.2300  12.2792  12.2801  12.3742  12.3749
    12.5343  12.5354  12.5704  12.5709  12.6301  12.6312  12.6565  12.6567
    12.7976  12.7979  12.8379  12.8390  13.0341  13.0347  13.0498  13.0503
    13.2767  13.2773  13.3185  13.3191  13.3732  13.3738  13.4462  13.4466
    13.5900  13.5910  13.5950  13.5953  13.7551  13.7555  13.7877  13.7889
    13.8561  13.8566  13.9144  13.9154  13.9243  13.9248  14.1084  14.1087
    14.1092  14.1100  14.2692  14.2704  14.3539  14.3546  14.4376  14.4381
    14.6183  14.6196  14.6396  14.6404  14.7276  14.7287  14.7661  14.7665
    14.9746  14.9748  15.0247  15.0249  15.2744  15.2747  15.4532  15.4544
    15.5989  15.5993  15.6107  15.6114  15.8138  15.8144  15.8999  15.9010
    16.0200  16.0203  16.2972  16.2975  16.3796  16.3799  16.8086  16.8090
    16.9412  16.9416  17.2228  17.2231  17.6037  17.6043  17.9756  17.9761
    18.8122  18.8127  19.1339  19.1345  19.7459  19.7468  20.0938  20.0947
    21.5763  21.5765  22.7991  22.7995  23.8455  23.8464  24.1094  24.1098
    24.3767  24.3774  24.9065  24.9071  25.1447  25.1449  26.1469  26.1473
    26.5968

          k =-0.5000-0.3536 0.0000 ( 17712 PWs)   bands (ev):

     9.4654   9.4654   9.4668   9.4668   9.7801   9.7801   9.7818   9.7818
    10.2102  10.2102  10.2121  10.2121  10.3699  10.3699  10.3709  10.3709
    10.4615  10.4615  10.4617  10.4617  10.6993  10.6993  10.7010  10.7010
    10.9978  10.9978  10.9986  10.9986  11.1554  11.1554  11.1560  11.1560
    11.3516  11.3516  11.3527  11.3527  11.4169  11.4169  11.4193  11.4193
    11.5232  11.5232  11.5246  11.5246  11.6845  11.6845  11.6849  11.6849
    11.7578  11.7578  11.7582  11.7583  11.8068  11.8068  11.8075  11.8075
    11.9323  11.9323  11.9329  11.9329  12.0838  12.0838  12.0858  12.0858
    12.1631  12.1631  12.1635  12.1635  12.3231  12.3231  12.3242  12.3242
    12.4743  12.4743  12.4753  12.4753  12.5805  12.5805  12.5810  12.5810
    12.7108  12.7108  12.7113  12.7113  13.0022  13.0022  13.0027  13.0027
    13.3748  13.3748  13.3762  13.3762  13.4928  13.4928  13.4937  13.4937
    13.5823  13.5823  13.5831  13.5831  13.6534  13.6534  13.6539  13.6539
    13.8363  13.8363  13.8381  13.8381  13.9344  13.9344  13.9347  13.9347
    14.2112  14.2112  14.2119  14.2119  14.3280  14.3280  14.3283  14.3283
    14.6238  14.6238  14.6245  14.6245  14.7257  14.7257  14.7264  14.7264
    15.0141  15.0141  15.0144  15.0144  15.3817  15.3817  15.3825  15.3825
    15.6137  15.6137  15.6142  15.6142  15.8232  15.8232  15.8242  15.8242
    16.1775  16.1775  16.1778  16.1778  16.5465  16.5465  16.5469  16.5469
    17.2655  17.2655  17.2660  17.2660  17.5879  17.5879  17.5883  17.5883
    19.3209  19.3209  19.3214  19.3214  19.5732  19.5732  19.5736  19.5736
    22.1813  22.1813  22.1817  22.1817  23.9866  23.9866  23.9874  23.9874
    25.5442  25.5442  25.5447  25.5447  26.0306  26.0306  26.0312  26.0312
    26.3095

     the Fermi energy is    18.2807 ev

!    total energy              =  -21704.23408881 Ry

     total all-electron energy =  -1064671.924638 Ry
     estimated scf accuracy    <          5.7E-09 Ry
     smearing contrib. (-TS)   =      -3.22249245 Ry
     internal energy E=F+TS    =  -21701.01159636 Ry

     The total energy is F=E-TS. E is the sum of the following terms:
     one-electron contribution =     415.48684927 Ry
     hartree contribution      =     215.88308657 Ry
     xc contribution           =    -901.54005043 Ry
     ewald contribution        =   -2039.33464731 Ry
     one-center paw contrib.   =  -19391.50683446 Ry

     convergence has been achieved in  10 iterations

     Forces acting on atoms (cartesian axes, Ry/au):

     atom    1 type  1   force =     0.05087396    0.00000019    0.00052149
     atom    2 type  1   force =     0.05087393   -0.00000020    0.00052167
     atom    3 type  1   force =    -0.00680983   -0.00000005   -0.00077086
     atom    4 type  1   force =    -0.00680984   -0.00000010   -0.00077061
     atom    5 type  1   force =     0.00110450   -0.00000004    0.00059868
     atom    6 type  1   force =     0.00110449   -0.00000000    0.00059830
     atom    7 type  1   force =     0.00029845    0.00000008    0.00089130
     atom    8 type  1   force =     0.00029845   -0.00000004    0.00089119
     atom    9 type  1   force =     0.00029992    0.00000003    0.00033480
     atom   10 type  1   force =     0.00029988    0.00000003    0.00033489
     atom   11 type  1   force =     0.00110488    0.00000005   -0.00046677
     atom   12 type  1   force =     0.00110488   -0.00000001   -0.00046698
     atom   13 type  1   force =    -0.00680405   -0.00000006   -0.00032252
     atom   14 type  1   force =    -0.00680407   -0.00000002   -0.00032243
     atom   15 type  1   force =     0.05066342    0.00000002   -0.00024919
     atom   16 type  1   force =     0.05066345    0.00000002   -0.00024910
     atom   17 type  1   force =    -0.05141359   -0.00000011   -0.00049359
     atom   18 type  1   force =    -0.05141357    0.00000013   -0.00049337
     atom   19 type  1   force =     0.00763285   -0.00000001    0.00053992
     atom   20 type  1   force =     0.00763279    0.00000003    0.00053982
     atom   21 type  1   force =    -0.00148276   -0.00000011    0.00015894
     atom   22 type  1   force =    -0.00148276    0.00000014    0.00015881
     atom   23 type  1   force =    -0.00147849    0.00000003    0.00047046
     atom   24 type  1   force =    -0.00147835   -0.00000004    0.00047092
     atom   25 type  1   force =     0.00763592   -0.00000010   -0.00037414
     atom   26 type  1   force =     0.00763593    0.00000005   -0.00037435
     atom   27 type  1   force =    -0.05162520    0.00000014   -0.00083890
     atom   28 type  1   force =    -0.05162518   -0.00000008   -0.00083838

     Total force =     0.002877     Total SCF correction =     0.000362
     SCF correction compared to forces is large: reduce conv_thr to get better values
     Energy error            =      1.8E-05 Ry
     Gradient error          =      8.9E-04 Ry/Bohr

     bfgs converged in  27 scf cycles and  26 bfgs steps
     (criteria: energy <  1.0E-04 Ry, force <  1.0E-03 Ry/Bohr)

     End of BFGS Geometry Optimization

     Final energy             =  -21704.2340888127 Ry

     File ./pwscf.bfgs deleted, as requested
Begin final coordinates

ATOMIC_POSITIONS (angstrom)
Au            2.0400000000        1.4424978336        0.9783396368    0   0   1
Au            2.0400000000        4.3274935009        0.9783397083    0   0   1
Au            0.0000000000        0.0000000000        1.9165764010    0   0   1
Au            0.0000000000        2.8849956672        1.9165757580    0   0   1
Au            2.0400000000        1.4424978336        3.5059795497    0   0   1
Au            2.0400000000        4.3274935009        3.5059800588    0   0   1
Au            0.0000000000        0.0000000000        4.6091844996    0   0   1
Au            0.0000000000        2.8849956672        4.6091840501    0   0   1
Au            2.0400000000        1.4424978336        6.1051384765    0   0   1
Au            2.0400000000        4.3274935009        6.1051387078    0   0   1
Au            0.0000000000        0.0000000000        7.2092054447    0   0   1
Au            0.0000000000        2.8849956672        7.2092054513    0   0   1
Au            2.0400000000        1.4424978336        8.8009030560    0   0   1
Au            2.0400000000        4.3274935009        8.8009028607    0   0   1
Au            0.0000000000        0.0000000000        9.7374272508    0   0   1
Au            0.0000000000        2.8849956672        9.7374271707    0   0   1
Au            3.4680000000        1.4424978336       11.7138003000    0   0   1
Au            3.4680000000        4.3274935009       11.7138002962    0   0   1
Au            1.4280000000        0.0000000000       12.5564689559    0   0   1
Au            1.4280000000        2.8849956672       12.5564680427    0   0   1
Au            3.4680000000        1.4424978336       14.2527584488    0   0   1
Au            3.4680000000        4.3274935009       14.2527588937    0   0   1
Au            1.4280000000        0.0000000000       15.2149879101    0   0   1
Au            1.4280000000        2.8849956672       15.2149862697    0   0   1
Au            3.4680000000        1.4424978336       16.9110720966    0   0   1
Au            3.4680000000        4.3274935009       16.9110730510    0   0   1
Au            1.4280000000        0.0000000000       17.7554622719    0   0   1
Au            1.4280000000        2.8849956672       17.7554611013    0   0   1
End final coordinates



     Writing all to output data dir ./pwscf.save/
 
     init_run     :     22.05s CPU     23.79s WALL (       1 calls)
     electrons    :  35330.33s CPU  35586.30s WALL (      27 calls)
     update_pot   :     12.03s CPU     12.10s WALL (      26 calls)
     forces       :    260.08s CPU    261.72s WALL (      27 calls)

     Called by init_run:
     wfcinit      :     21.36s CPU     22.40s WALL (       1 calls)
     potinit      :      0.49s CPU      0.68s WALL (       1 calls)
     hinit0       :      0.11s CPU      0.49s WALL (       1 calls)

     Called by electrons:
     c_bands      :  32688.13s CPU  32912.83s WALL (     471 calls)
     sum_band     :   2467.38s CPU   2491.53s WALL (     471 calls)
     v_of_rho     :      9.93s CPU     11.80s WALL (     493 calls)
     newd         :     17.30s CPU     20.30s WALL (     493 calls)
     PAW_pot      :    164.19s CPU    164.80s WALL (     519 calls)
     mix_rho      :      1.75s CPU      1.77s WALL (     471 calls)

     Called by c_bands:
     init_us_2    :    206.63s CPU    208.04s WALL (   49800 calls)
     init_us_2:cp :    206.34s CPU    207.91s WALL (   49800 calls)
     cegterg      :  31524.54s CPU  31741.81s WALL (   23855 calls)

     Called by *egterg:
     cdiaghg      :   3020.58s CPU   3046.85s WALL (  117800 calls)
     h_psi        :  14421.42s CPU  14553.18s WALL (  119705 calls)
     s_psi        :   2778.59s CPU   2789.19s WALL (  119705 calls)
     g_psi        :     59.04s CPU     59.55s WALL (   95800 calls)

     Called by h_psi:
     h_psi:calbec :   2964.76s CPU   2975.94s WALL (  119705 calls)
     vloc_psi     :   8412.17s CPU   8517.81s WALL (  119705 calls)
     add_vuspsi   :   2945.17s CPU   2956.97s WALL (  119705 calls)

     General routines
     calbec       :   4094.35s CPU   4109.60s WALL (  149955 calls)
     fft          :      8.91s CPU     11.87s WALL (    5751 calls)
     ffts         :      0.32s CPU      0.34s WALL (     471 calls)
     fftw         :   8939.44s CPU   9038.95s WALL (32045070 calls)
 
     Parallel routines
 
     PWSCF        :      9h55m CPU      9h59m WALL

 
   This run was terminated on:  14:23:46  14Mar2024            

=------------------------------------------------------------------------------=
   JOB DONE.
=------------------------------------------------------------------------------=
