MPI startup(): Warning: I_MPI_PMI_LIBRARY will be ignored since the hydra process manager was found
MPI startup(): Warning: I_MPI_PMI_LIBRARY will be ignored since the hydra process manager was found
MPI startup(): Warning: I_MPI_PMI_LIBRARY will be ignored since the hydra process manager was found
MPI startup(): Warning: I_MPI_PMI_LIBRARY will be ignored since the hydra process manager was found
MPI startup(): Warning: I_MPI_PMI_LIBRARY will be ignored since the hydra process manager was found
MPI startup(): Warning: I_MPI_PMI_LIBRARY will be ignored since the hydra process manager was found
MPI startup(): Warning: I_MPI_PMI_LIBRARY will be ignored since the hydra process manager was found
MPI startup(): Warning: I_MPI_PMI_LIBRARY will be ignored since the hydra process manager was found
MPI startup(): Warning: I_MPI_PMI_LIBRARY will be ignored since the hydra process manager was found
MPI startup(): Warning: I_MPI_PMI_LIBRARY will be ignored since the hydra process manager was found

     Program PWSCF v.7.0 starts on  2Mar2024 at  8:41:14 

     This program is part of the open-source Quantum ESPRESSO suite
     for quantum simulation of materials; please cite
         "P. Giannozzi et al., J. Phys.:Condens. Matter 21 395502 (2009);
         "P. Giannozzi et al., J. Phys.:Condens. Matter 29 465901 (2017);
         "P. Giannozzi et al., J. Chem. Phys. 152 154105 (2020);
          URL http://www.quantum-espresso.org", 
     in publications or presentations arising from this work. More details at
     http://www.quantum-espresso.org/quote

     Parallel version (MPI), running on    10 processors

     MPI processes distributed on     1 nodes
     R & G space division:  proc/nbgrp/npool/nimage =      10
     115248 MiB available memory on the printing compute node when the environment starts
 
     Reading input from GSF110_0.15.in
Warning: card &CELL ignored
Warning: card / ignored

     Current dimensions of program PWSCF are:
     Max number of different atomic species (ntypx) = 10
     Max number of k-points (npk) =  40000
     Max angular momentum in pseudopotentials (lmaxx) =  4

     File ./pwscf.bfgs deleted, as requested
     file Au.pbe-n-kjpaw_psl.1.0.0.UPF: wavefunction(s)  6S 5D renormalized
     Found identity + (  0.0000 -0.5000  0.0000) symmetry
     This is a supercell, fractional translations are disabled
     Message from routine setup:
     using ibrav=0 with symmetry is DISCOURAGED, use correct ibrav instead

     Subspace diagonalization in iterative solution of the eigenvalue problem:
     one sub-group per band group will be used
     scalapack distributed-memory algorithm (size of sub-group:  3*  3 procs)

 
     Parallelization info
     --------------------
     sticks:   dense  smooth     PW     G-vecs:    dense   smooth      PW
     Min         133     133     38                14227    14227    2178
     Max         134     134     39                14242    14242    2183
     Sum        1339    1339    389               142317   142317   21821
 
     Using Slab Decomposition
 


     bravais-lattice index     =            0
     lattice parameter (alat)  =       7.7101  a.u.
     unit-cell volume          =    2979.1368 (a.u.)^3
     number of atoms/cell      =           28
     number of atomic types    =            1
     number of electrons       =       308.00
     number of Kohn-Sham states=          185
     kinetic-energy cutoff     =      50.0000  Ry
     charge density cutoff     =     200.0000  Ry
     scf convergence threshold =      1.0E-06
     mixing beta               =       0.1000
     number of iterations used =            8  plain     mixing
     Exchange-correlation= SLA  PW   PBX  PBC
                           (   1   4   3   4   0   0   0)

     celldm(1)=   7.710083  celldm(2)=   0.000000  celldm(3)=   0.000000
     celldm(4)=   0.000000  celldm(5)=   0.000000  celldm(6)=   0.000000

     crystal axes: (cart. coord. in units of alat)
               a(1) = (   1.000000   0.000000   0.000000 )  
               a(2) = (   0.000000   1.414214   0.000000 )  
               a(3) = (   0.000000   0.000000   4.596194 )  

     reciprocal axes: (cart. coord. in units 2 pi/alat)
               b(1) = (  1.000000  0.000000  0.000000 )  
               b(2) = (  0.000000  0.707107  0.000000 )  
               b(3) = (  0.000000  0.000000  0.217571 )  


     PseudoPot. # 1 for Au read from file:
     ./Au.pbe-n-kjpaw_psl.1.0.0.UPF
     MD5 check sum: 4db85c736373c707a97ce4c36c2a9d23
     Pseudo is Projector augmented-wave + core cor, Zval = 11.0
     Generated using &quot;atomic&quot; code by A. Dal Corso  v.6.3
     Shape of augmentation charge: PSQ
     Using radial grid of 1279 points,  6 beta functions with: 
                l(1) =   0
                l(2) =   0
                l(3) =   1
                l(4) =   1
                l(5) =   2
                l(6) =   2
     Q(r) pseudized with 0 coefficients 


     atomic species   valence    mass     pseudopotential
        Au            11.00   196.96657     Au( 1.00)

      2 Sym. Ops. (no inversion) found



   Cartesian axes

     site n.     atom                  positions (alat units)
         1           Au  tau(   1) = (   0.5000000   0.3535534   0.0000000  )
         2           Au  tau(   2) = (   0.5000000   1.0606602   0.0000000  )
         3           Au  tau(   3) = (   0.0000000   0.0000000   0.3535534  )
         4           Au  tau(   4) = (   0.0000000   0.7071068   0.3535534  )
         5           Au  tau(   5) = (   0.5000000   0.3535534   0.7071068  )
         6           Au  tau(   6) = (   0.5000000   1.0606602   0.7071068  )
         7           Au  tau(   7) = (   0.0000000   0.0000000   1.0606602  )
         8           Au  tau(   8) = (   0.0000000   0.7071068   1.0606602  )
         9           Au  tau(   9) = (   0.5000000   0.3535534   1.4142136  )
        10           Au  tau(  10) = (   0.5000000   1.0606602   1.4142136  )
        11           Au  tau(  11) = (   0.0000000   0.0000000   1.7677670  )
        12           Au  tau(  12) = (   0.0000000   0.7071068   1.7677670  )
        13           Au  tau(  13) = (   0.5000000   0.3535534   2.1213203  )
        14           Au  tau(  14) = (   0.5000000   1.0606602   2.1213203  )
        15           Au  tau(  15) = (   0.0000000   0.0000000   2.4748737  )
        16           Au  tau(  16) = (   0.0000000   0.7071068   2.4748737  )
        17           Au  tau(  17) = (   0.6500000   0.3535534   2.8284271  )
        18           Au  tau(  18) = (   0.6500000   1.0606602   2.8284271  )
        19           Au  tau(  19) = (   0.1500000   0.0000000   3.1819805  )
        20           Au  tau(  20) = (   0.1500000   0.7071068   3.1819805  )
        21           Au  tau(  21) = (   0.6500000   0.3535534   3.5355339  )
        22           Au  tau(  22) = (   0.6500000   1.0606602   3.5355339  )
        23           Au  tau(  23) = (   0.1500000   0.0000000   3.8890873  )
        24           Au  tau(  24) = (   0.1500000   0.7071068   3.8890873  )
        25           Au  tau(  25) = (   0.6500000   0.3535534   4.2426407  )
        26           Au  tau(  26) = (   0.6500000   1.0606602   4.2426407  )
        27           Au  tau(  27) = (   0.1500000   0.0000000   4.5961941  )
        28           Au  tau(  28) = (   0.1500000   0.7071068   4.5961941  )

     number of k points=    35  Gaussian smearing, width (Ry)=  0.0200
                       cart. coord. in units 2pi/alat
        k(    1) = (   0.0000000   0.0000000   0.0000000), wk =   0.0208333
        k(    2) = (   0.0000000   0.0589256   0.0000000), wk =   0.0416667
        k(    3) = (   0.0000000   0.1178511   0.0000000), wk =   0.0416667
        k(    4) = (   0.0000000   0.1767767   0.0000000), wk =   0.0416667
        k(    5) = (   0.0000000   0.2357023   0.0000000), wk =   0.0416667
        k(    6) = (   0.0000000   0.2946278   0.0000000), wk =   0.0416667
        k(    7) = (   0.0000000  -0.3535534   0.0000000), wk =   0.0208333
        k(    8) = (   0.1250000   0.0000000   0.0000000), wk =   0.0416667
        k(    9) = (   0.1250000   0.0589256   0.0000000), wk =   0.0833333
        k(   10) = (   0.1250000   0.1178511   0.0000000), wk =   0.0833333
        k(   11) = (   0.1250000   0.1767767   0.0000000), wk =   0.0833333
        k(   12) = (   0.1250000   0.2357023   0.0000000), wk =   0.0833333
        k(   13) = (   0.1250000   0.2946278   0.0000000), wk =   0.0833333
        k(   14) = (   0.1250000  -0.3535534   0.0000000), wk =   0.0416667
        k(   15) = (   0.2500000   0.0000000   0.0000000), wk =   0.0416667
        k(   16) = (   0.2500000   0.0589256   0.0000000), wk =   0.0833333
        k(   17) = (   0.2500000   0.1178511   0.0000000), wk =   0.0833333
        k(   18) = (   0.2500000   0.1767767   0.0000000), wk =   0.0833333
        k(   19) = (   0.2500000   0.2357023   0.0000000), wk =   0.0833333
        k(   20) = (   0.2500000   0.2946278   0.0000000), wk =   0.0833333
        k(   21) = (   0.2500000  -0.3535534   0.0000000), wk =   0.0416667
        k(   22) = (   0.3750000   0.0000000   0.0000000), wk =   0.0416667
        k(   23) = (   0.3750000   0.0589256   0.0000000), wk =   0.0833333
        k(   24) = (   0.3750000   0.1178511   0.0000000), wk =   0.0833333
        k(   25) = (   0.3750000   0.1767767   0.0000000), wk =   0.0833333
        k(   26) = (   0.3750000   0.2357023   0.0000000), wk =   0.0833333
        k(   27) = (   0.3750000   0.2946278   0.0000000), wk =   0.0833333
        k(   28) = (   0.3750000  -0.3535534   0.0000000), wk =   0.0416667
        k(   29) = (  -0.5000000   0.0000000   0.0000000), wk =   0.0208333
        k(   30) = (  -0.5000000   0.0589256   0.0000000), wk =   0.0416667
        k(   31) = (  -0.5000000   0.1178511   0.0000000), wk =   0.0416667
        k(   32) = (  -0.5000000   0.1767767   0.0000000), wk =   0.0416667
        k(   33) = (  -0.5000000   0.2357023   0.0000000), wk =   0.0416667
        k(   34) = (  -0.5000000   0.2946278   0.0000000), wk =   0.0416667
        k(   35) = (  -0.5000000  -0.3535534   0.0000000), wk =   0.0208333

     Dense  grid:   142317 G-vectors     FFT dimensions: (  36,  50, 160)

     Estimated max dynamical RAM per process >     261.85 MB

     Estimated total dynamical RAM >       2.56 GB

     Initial potential from superposition of free atoms

     starting charge     307.9969, renormalised to     308.0000
     Starting wfcs are  252 randomized atomic wfcs
     Checking if some PAW data can be deallocated... 

     total cpu time spent up to now is       15.8 secs

     Self-consistent Calculation

     iteration #  1     ecut=    50.00 Ry     beta= 0.10
     Davidson diagonalization with overlap
     ethr =  1.00E-02,  avg # of iterations =  4.0

     total cpu time spent up to now is       58.3 secs

     total energy              =  -21688.07502927 Ry
     estimated scf accuracy    <      21.34782079 Ry

     iteration #  2     ecut=    50.00 Ry     beta= 0.10
     Davidson diagonalization with overlap
     ethr =  6.93E-03,  avg # of iterations =  2.9

     total cpu time spent up to now is       93.7 secs

     total energy              =  -21686.21651276 Ry
     estimated scf accuracy    <     265.17127613 Ry

     iteration #  3     ecut=    50.00 Ry     beta= 0.10
     Davidson diagonalization with overlap
     ethr =  6.93E-03,  avg # of iterations =  1.1

     total cpu time spent up to now is      123.2 secs

     total energy              =  -21691.63785425 Ry
     estimated scf accuracy    <       2.78195079 Ry

     iteration #  4     ecut=    50.00 Ry     beta= 0.10
     Davidson diagonalization with overlap
     ethr =  9.03E-04,  avg # of iterations =  4.1

     total cpu time spent up to now is      159.8 secs

     total energy              =  -21691.56386608 Ry
     estimated scf accuracy    <       0.94208968 Ry

     iteration #  5     ecut=    50.00 Ry     beta= 0.10
     Davidson diagonalization with overlap
     ethr =  3.06E-04,  avg # of iterations =  6.7

     total cpu time spent up to now is      204.2 secs

     total energy              =  -21691.64634149 Ry
     estimated scf accuracy    <       0.88576662 Ry

     iteration #  6     ecut=    50.00 Ry     beta= 0.10
     Davidson diagonalization with overlap
     ethr =  2.88E-04,  avg # of iterations =  1.3

     total cpu time spent up to now is      234.4 secs

     total energy              =  -21691.62142297 Ry
     estimated scf accuracy    <       0.39304221 Ry

     iteration #  7     ecut=    50.00 Ry     beta= 0.10
     Davidson diagonalization with overlap
     ethr =  1.28E-04,  avg # of iterations =  4.3

     total cpu time spent up to now is      272.3 secs

     total energy              =  -21691.68095024 Ry
     estimated scf accuracy    <       0.07523273 Ry

     iteration #  8     ecut=    50.00 Ry     beta= 0.10
     Davidson diagonalization with overlap
     c_bands:  1 eigenvalues not converged
     c_bands:  2 eigenvalues not converged
     c_bands:  1 eigenvalues not converged
     c_bands:  1 eigenvalues not converged
     c_bands:  2 eigenvalues not converged
     c_bands:  1 eigenvalues not converged
     ethr =  2.44E-05,  avg # of iterations = 13.6

     total cpu time spent up to now is      339.6 secs

     total energy              =  -21691.70049533 Ry
     estimated scf accuracy    <       0.04041463 Ry

     iteration #  9     ecut=    50.00 Ry     beta= 0.10
     Davidson diagonalization with overlap
     ethr =  1.31E-05,  avg # of iterations =  2.8

     total cpu time spent up to now is      374.4 secs

     total energy              =  -21691.70669246 Ry
     estimated scf accuracy    <       0.02025308 Ry

     iteration # 10     ecut=    50.00 Ry     beta= 0.10
     Davidson diagonalization with overlap
     c_bands:  1 eigenvalues not converged
     ethr =  6.58E-06,  avg # of iterations =  5.4

     total cpu time spent up to now is      414.7 secs

     total energy              =  -21691.70719099 Ry
     estimated scf accuracy    <       0.01528181 Ry

     iteration # 11     ecut=    50.00 Ry     beta= 0.10
     Davidson diagonalization with overlap
     ethr =  4.96E-06,  avg # of iterations =  2.1

     total cpu time spent up to now is      446.1 secs

     total energy              =  -21691.70796894 Ry
     estimated scf accuracy    <       0.00136169 Ry

     iteration # 12     ecut=    50.00 Ry     beta= 0.10
     Davidson diagonalization with overlap
     c_bands:  1 eigenvalues not converged
     ethr =  4.42E-07,  avg # of iterations =  9.3

     total cpu time spent up to now is      504.1 secs

     total energy              =  -21691.70836275 Ry
     estimated scf accuracy    <       0.00034401 Ry

     iteration # 13     ecut=    50.00 Ry     beta= 0.10
     Davidson diagonalization with overlap
     ethr =  1.12E-07,  avg # of iterations =  4.8

     total cpu time spent up to now is      556.1 secs

     total energy              =  -21691.70840159 Ry
     estimated scf accuracy    <       0.00036148 Ry

     iteration # 14     ecut=    50.00 Ry     beta= 0.10
     Davidson diagonalization with overlap
     ethr =  1.12E-07,  avg # of iterations =  2.0

     total cpu time spent up to now is      590.5 secs

     total energy              =  -21691.70844941 Ry
     estimated scf accuracy    <       0.00006727 Ry

     iteration # 15     ecut=    50.00 Ry     beta= 0.10
     Davidson diagonalization with overlap
     ethr =  2.18E-08,  avg # of iterations =  3.8

     total cpu time spent up to now is      631.7 secs

     total energy              =  -21691.70843356 Ry
     estimated scf accuracy    <       0.00005854 Ry

     iteration # 16     ecut=    50.00 Ry     beta= 0.10
     Davidson diagonalization with overlap
     ethr =  1.90E-08,  avg # of iterations =  3.3

     total cpu time spent up to now is      677.3 secs

     total energy              =  -21691.70844612 Ry
     estimated scf accuracy    <       0.00001008 Ry

     iteration # 17     ecut=    50.00 Ry     beta= 0.10
     Davidson diagonalization with overlap
     ethr =  3.27E-09,  avg # of iterations =  4.5

     total cpu time spent up to now is      727.5 secs

     total energy              =  -21691.70844816 Ry
     estimated scf accuracy    <       0.00000542 Ry

     iteration # 18     ecut=    50.00 Ry     beta= 0.10
     Davidson diagonalization with overlap
     ethr =  1.76E-09,  avg # of iterations =  2.1

     total cpu time spent up to now is      763.5 secs

     total energy              =  -21691.70844839 Ry
     estimated scf accuracy    <       0.00000175 Ry

     iteration # 19     ecut=    50.00 Ry     beta= 0.10
     Davidson diagonalization with overlap
     ethr =  5.67E-10,  avg # of iterations =  3.8

     total cpu time spent up to now is      808.0 secs

     total energy              =  -21691.70844855 Ry
     estimated scf accuracy    <       0.00000120 Ry

     iteration # 20     ecut=    50.00 Ry     beta= 0.10
     Davidson diagonalization with overlap
     ethr =  3.89E-10,  avg # of iterations =  2.1

     total cpu time spent up to now is      843.9 secs

     End of self-consistent calculation

          k = 0.0000 0.0000 0.0000 ( 17807 PWs)   bands (ev):

     1.5365   1.5803   1.7148   1.7154   2.8545   3.0961   3.3757   3.3776
     4.0052   4.2193   4.5616   4.6022   4.6036   5.7629   6.2658   6.3718
     6.3719   7.8843   7.8849   8.2663   8.3348   8.6950   9.5585   9.6069
    10.3952  10.3970  10.4685  10.7751  10.8045  10.8060  10.8529  11.0567
    11.0981  11.1152  11.1207  11.2467  11.2714  11.2729  11.3617  11.3702
    11.3833  11.4780  11.5259  11.5507  11.5938  11.6210  11.6789  11.7163
    11.7571  11.8738  11.9011  11.9034  11.9427  12.0374  12.0949  12.1238
    12.2882  12.2899  12.3013  12.3666  12.4814  12.4891  12.5000  12.5739
    12.6330  12.6489  12.6924  12.8642  12.9058  12.9419  13.0097  13.0980
    13.1294  13.1330  13.1523  13.1788  13.2500  13.2615  13.3495  13.3866
    13.4202  13.4901  13.5455  13.5638  13.6968  13.8393  13.8845  13.9023
    14.0042  14.0323  14.0758  14.1157  14.1721  14.2031  14.2746  14.3785
    14.4072  14.4147  14.4559  14.5080  14.6300  14.6422  14.6453  14.7134
    14.7282  14.7619  14.8607  14.8810  14.9549  14.9592  14.9983  15.0070
    15.0388  15.1891  15.1903  15.2008  15.2667  15.3744  15.4178  15.4447
    15.5181  15.5524  15.5863  15.5954  15.7096  15.7300  15.7499  15.7911
    15.7946  15.8921  15.9557  15.9635  15.9918  16.0417  16.0864  16.1682
    16.3165  16.3184  16.4224  16.4649  16.4682  16.5500  16.6119  16.7752
    16.8625  16.9726  17.4328  17.4344  17.5351  17.7281  17.7351  17.8848
    17.8860  18.0075  18.0259  18.3392  18.3395  18.3594  18.7826  18.7961
    19.0426  19.3355  20.3392  20.4858  21.1240  21.1249  21.6448  22.0572
    22.4941  22.8622  23.4046  23.7222  23.7518  23.7544  23.9983  24.6361
    24.6362  24.7009  24.9322  24.9365  25.2880  25.8128  25.9943  26.2171
    26.2873

          k = 0.0000 0.0589 0.0000 ( 17795 PWs)   bands (ev):

     1.5642   1.5866   1.6836   1.7666   2.8637   3.0679   3.2870   3.4218
     4.0264   4.2392   4.5592   4.5676   4.6527   5.7836   6.1142   6.2622
     6.6604   7.7046   7.9335   8.3069   8.3739   8.7110   9.5938   9.6412
    10.3863  10.4276  10.5017  10.7839  10.7846  10.8484  10.8619  11.0104
    11.0881  11.1218  11.1408  11.2222  11.2630  11.2987  11.3501  11.3822
    11.3899  11.4906  11.5550  11.5600  11.6021  11.6238  11.6584  11.7087
    11.7574  11.7738  11.8434  11.9005  11.9098  12.0867  12.1582  12.1863
    12.2146  12.2938  12.3608  12.4081  12.4872  12.4925  12.5643  12.5653
    12.5677  12.6477  12.6889  12.7812  12.8382  12.9835  12.9920  13.0642
    13.0785  13.1232  13.1491  13.1505  13.2266  13.2623  13.3287  13.3643
    13.5034  13.5602  13.5632  13.5876  13.7222  13.8535  13.8850  13.8869
    14.0060  14.0394  14.0705  14.0903  14.1282  14.2500  14.2985  14.3951
    14.3953  14.4401  14.4804  14.5211  14.6096  14.6202  14.6463  14.7145
    14.7421  14.7842  14.7891  14.8849  14.9137  14.9488  14.9740  14.9955
    15.0438  15.1689  15.1759  15.2301  15.2988  15.3220  15.4098  15.4365
    15.4541  15.5332  15.5585  15.6309  15.6463  15.6730  15.7187  15.7959
    15.8006  15.9025  15.9422  15.9807  16.0111  16.0663  16.1032  16.1634
    16.2531  16.2896  16.3723  16.4144  16.4846  16.5269  16.5908  16.7907
    16.8350  17.0229  17.0423  17.1375  17.2509  17.3387  17.4253  17.6758
    17.8064  18.1018  18.2926  18.5358  18.5781  18.6987  19.0944  19.2066
    19.2841  19.3826  20.4289  20.5763  21.2474  21.3074  21.6622  22.1058
    22.5283  22.8849  23.4219  23.4709  23.7178  23.7557  23.9902  24.2675
    24.5104  24.7145  25.2785  25.2891  25.4039  25.7684  25.7880  25.8195
    25.9234

          k = 0.0000 0.1179 0.0000 ( 17803 PWs)   bands (ev):

     1.6035   1.6449   1.6686   1.8395   2.8908   2.9888   3.1598   3.4204
     4.0889   4.2950   4.5294   4.5867   4.6971   5.8463   5.8829   6.2541
     6.9770   7.4324   7.8371   8.4269   8.4897   8.7516   9.6967   9.7418
    10.4075  10.4560  10.5982  10.6678  10.7853  10.8940  10.9377  11.0057
    11.0174  11.1161  11.1184  11.1856  11.2432  11.3116  11.3734  11.3747
    11.4102  11.4558  11.5060  11.5757  11.6188  11.6331  11.6945  11.7358
    11.7361  11.8083  11.8086  11.9158  11.9804  12.1299  12.1781  12.2227
    12.2540  12.3764  12.3814  12.4254  12.4427  12.4613  12.5305  12.5725
    12.6154  12.6592  12.6648  12.6857  12.7717  12.8464  12.9250  12.9956
    13.0469  13.0582  13.1207  13.1732  13.1961  13.2589  13.3246  13.4879
    13.5532  13.6053  13.6169  13.6487  13.7521  13.8548  13.8561  13.8668
    13.8767  14.0068  14.0512  14.1250  14.1735  14.2955  14.3297  14.3575
    14.4293  14.5078  14.5249  14.5387  14.5705  14.5920  14.6510  14.6731
    14.7166  14.7499  14.7695  14.8311  14.8636  14.9099  14.9384  14.9649
    14.9912  15.1577  15.1653  15.2180  15.2264  15.2613  15.2809  15.3749
    15.3971  15.4954  15.5582  15.5698  15.6080  15.6442  15.6904  15.7674
    15.8407  15.8476  15.8584  15.8707  15.9306  16.0282  16.1094  16.1581
    16.2191  16.2930  16.3822  16.3868  16.4273  16.4474  16.5667  16.5837
    16.6400  16.6608  16.7097  16.7732  16.8204  17.1106  17.2865  17.5843
    17.6661  17.8704  18.3053  19.0213  19.1924  19.2420  19.3701  19.5190
    20.0350  20.0918  20.6861  20.8333  21.4457  21.5953  21.7059  22.2424
    22.6254  22.9430  23.4132  23.4614  23.5003  23.7107  23.9689  24.0628
    24.1864  24.7521  25.2021  25.2707  25.2779  25.3104  25.5562  25.6854
    25.8540

          k = 0.0000 0.1768 0.0000 ( 17795 PWs)   bands (ev):

     1.6261   1.6656   1.7715   1.9332   2.8720   2.9349   3.0036   3.3789
     4.1872   4.3776   4.5134   4.6241   4.7253   5.6681   5.9530   6.2495
     7.1192   7.2936   7.6351   8.6203   8.6780   8.7949   9.8594   9.9008
    10.4358  10.4409  10.4552  10.7315  10.7476  10.7916  10.8233  11.0188
    11.0625  11.0802  11.1197  11.1287  11.2366  11.3086  11.3585  11.4252
    11.4356  11.5262  11.5368  11.6402  11.6656  11.6899  11.7082  11.7861
    11.8228  11.8324  11.9120  11.9897  12.1055  12.1561  12.2039  12.2372
    12.2929  12.3343  12.3696  12.4008  12.4251  12.4729  12.5052  12.5361
    12.5431  12.6176  12.6766  12.6895  12.7464  12.8372  12.8498  12.8718
    12.9370  13.0645  13.0898  13.1720  13.2221  13.2464  13.4008  13.5797
    13.6337  13.6351  13.6537  13.6795  13.7081  13.7395  13.7735  13.8368
    13.8994  13.9707  14.0250  14.1643  14.2341  14.2545  14.3020  14.3919
    14.4321  14.4619  14.4941  14.5447  14.5515  14.5773  14.5915  14.6235
    14.6416  14.7551  14.7815  14.7889  14.8294  14.8493  14.8743  14.9008
    14.9268  14.9747  15.1339  15.1571  15.1613  15.2061  15.2078  15.2284
    15.3670  15.3702  15.4793  15.5016  15.5039  15.5405  15.6346  15.6493
    15.7058  15.7176  15.7364  15.8373  15.9352  15.9585  15.9658  16.0197
    16.0743  16.0871  16.1595  16.1725  16.2921  16.3114  16.3769  16.4259
    16.4332  16.7007  16.7839  16.8509  16.9705  17.2026  17.2299  17.3971
    17.5705  17.6788  18.3301  19.3883  19.5703  19.7582  19.9532  20.1015
    20.7588  20.8571  21.0505  21.2168  21.5663  21.7117  21.7704  22.4358
    22.7678  22.9969  23.2269  23.4819  23.6610  23.7169  23.9599  24.0042
    24.1236  24.7634  24.8160  24.9235  24.9908  25.1301  25.2441  25.3329
    25.5225

          k = 0.0000 0.2357 0.0000 ( 17822 PWs)   bands (ev):

     1.6481   1.6689   1.9311   2.0436   2.7352   2.8286   2.9938   3.3105
     4.3030   4.4740   4.5034   4.6946   4.7295   5.4560   6.1089   6.2609
     6.8178   7.2356   7.7387   8.7625   8.9053   8.9373  10.0664  10.1026
    10.2350  10.3370  10.3421  10.4401  10.5965  10.8032  10.9092  10.9177
    11.0441  11.1555  11.1727  11.2510  11.3131  11.3316  11.3792  11.4363
    11.5256  11.6067  11.6216  11.6717  11.7304  11.7717  11.8288  11.8404
    11.8907  11.9084  12.0011  12.0233  12.1108  12.1118  12.1882  12.2274
    12.3154  12.3520  12.3905  12.4039  12.4237  12.4515  12.4660  12.4692
    12.5093  12.5777  12.6231  12.6777  12.7502  12.8032  12.8508  12.9062
    12.9731  13.0642  13.1449  13.1561  13.2152  13.2788  13.4267  13.5700
    13.5715  13.5952  13.6521  13.6818  13.7407  13.7545  13.8023  13.8165
    13.9182  13.9835  14.0060  14.1692  14.2040  14.2209  14.2323  14.2943
    14.3144  14.3556  14.4094  14.4431  14.4872  14.5090  14.5903  14.5975
    14.5984  14.6758  14.7051  14.7695  14.7715  14.8140  14.8806  14.9040
    14.9153  14.9577  14.9828  15.0141  15.0185  15.0797  15.0797  15.1975
    15.2381  15.2581  15.2679  15.2785  15.3544  15.4878  15.5083  15.5138
    15.5617  15.6222  15.6880  15.6927  15.7175  15.7608  15.8532  15.8610
    16.0239  16.0376  16.0837  16.1586  16.2299  16.2540  16.3756  16.4346
    16.4714  16.6365  16.9064  16.9078  17.2144  17.2347  17.2977  17.4280
    17.4407  17.5442  18.6139  19.6383  19.9059  20.2280  20.7051  20.8203
    20.8747  21.0800  21.2120  21.7159  21.9979  22.0435  22.1408  22.6115
    22.8229  22.9161  22.9768  23.4495  23.5325  23.7521  23.9671  24.3626
    24.3740  24.4651  24.6015  24.6512  24.7251  24.8177  24.9120  25.0904
    25.2487

          k = 0.0000 0.2946 0.0000 ( 17818 PWs)   bands (ev):

     1.6644   1.6729   2.1001   2.1559   2.6029   2.6534   3.0648   3.2289
     4.4010   4.4892   4.5697   4.7047   4.8241   5.2363   6.3053   6.3207
     6.5719   6.9089   8.0825   8.6502   9.2242   9.2509   9.9694  10.0231
    10.1179  10.2251  10.3068  10.3272  10.7032  10.7094  10.7486  10.9659
    11.0806  11.1919  11.2881  11.2989  11.3530  11.3760  11.5269  11.5308
    11.5896  11.6033  11.7173  11.7207  11.7943  11.8257  11.8650  11.8934
    11.9548  11.9778  12.0076  12.0367  12.0500  12.0665  12.1216  12.2401
    12.2485  12.2677  12.3239  12.3463  12.4142  12.4256  12.5009  12.5626
    12.5635  12.5779  12.6165  12.6887  12.7032  12.8967  12.9507  12.9769
    13.0113  13.0418  13.1037  13.1997  13.3315  13.3849  13.4520  13.4600
    13.4825  13.6236  13.6955  13.7104  13.7252  13.7416  13.8422  13.8836
    13.8973  13.9545  14.0339  14.0417  14.0906  14.1022  14.1709  14.2042
    14.2301  14.2797  14.2896  14.3103  14.3410  14.4364  14.4621  14.5130
    14.5505  14.5524  14.6233  14.7058  14.7570  14.8156  14.8314  14.8419
    14.8434  14.8874  14.9211  14.9793  14.9914  15.0244  15.1007  15.1044
    15.1092  15.1866  15.2169  15.2446  15.2919  15.3257  15.3799  15.4331
    15.4905  15.5017  15.5413  15.5815  15.6156  15.7643  15.8319  15.9435
    16.0302  16.0332  16.0418  16.1430  16.2037  16.2230  16.4037  16.4403
    16.5127  16.5808  16.9714  17.0393  17.1229  17.2767  17.3035  17.3933
    17.4342  17.5276  19.2760  19.8921  20.1991  20.5899  20.7905  20.8175
    20.8798  21.4171  21.5309  22.1634  22.3049  22.4525  22.6200  22.7966
    22.8153  22.8991  23.0824  23.3797  23.4060  23.7164  23.8551  23.8782
    23.9883  24.3016  24.3733  24.5663  24.7080  24.8776  24.9016  25.0454
    25.1625

          k = 0.0000-0.3536 0.0000 ( 17844 PWs)   bands (ev):

     1.6724   1.6724   2.2072   2.2072   2.5446   2.5446   3.1447   3.1447
     4.4597   4.4597   4.6500   4.6500   5.0157   5.0157   6.4027   6.4027
     6.5909   6.5909   8.4063   8.4063   9.5880   9.5880   9.6183   9.6183
    10.1314  10.1314  10.5383  10.5383  10.5411  10.5411  10.8443  10.8443
    11.1527  11.1527  11.3528  11.3528  11.4432  11.4432  11.5027  11.5027
    11.6250  11.6250  11.8024  11.8024  11.8120  11.8120  11.8614  11.8615
    11.9346  11.9346  12.0466  12.0466  12.0789  12.0789  12.1669  12.1669
    12.2033  12.2033  12.3227  12.3227  12.3770  12.3770  12.4874  12.4874
    12.6092  12.6092  12.7956  12.7956  12.8323  12.8323  12.8586  12.8586
    13.0118  13.0118  13.2923  13.2923  13.3650  13.3650  13.5005  13.5005
    13.5826  13.5826  13.6445  13.6445  13.7879  13.7879  13.8421  13.8421
    13.8872  13.8872  13.9684  13.9684  14.0666  14.0666  14.1522  14.1522
    14.1758  14.1758  14.2531  14.2531  14.2940  14.2940  14.4496  14.4496
    14.5380  14.5380  14.6011  14.6011  14.7641  14.7641  14.8161  14.8161
    14.8750  14.8750  14.9642  14.9642  15.0250  15.0250  15.0711  15.0711
    15.1584  15.1584  15.2377  15.2377  15.2733  15.2733  15.3472  15.3472
    15.4067  15.4067  15.5317  15.5317  15.6859  15.6859  15.9434  15.9434
    16.0170  16.0170  16.0559  16.0559  16.2270  16.2270  16.4271  16.4271
    16.5446  16.5446  17.0413  17.0413  17.1719  17.1719  17.3444  17.3444
    17.4807  17.4807  19.9467  19.9467  20.4289  20.4289  20.5081  20.5081
    21.3150  21.3150  22.2006  22.2006  22.2980  22.2980  22.9528  22.9528
    23.0560  23.0560  23.2998  23.2998  23.3807  23.3807  23.5233  23.5233
    24.0729  24.0729  24.5631  24.5631  24.7199  24.7199  24.8625  24.8626
    25.4179

          k = 0.1250 0.0000 0.0000 ( 17777 PWs)   bands (ev):

     1.5695   1.6811   1.7147   1.7153   2.9082   3.0978   3.2579   3.2598
     4.0457   4.2718   4.5217   4.6742   4.6758   5.8320   6.2993   6.3608
     6.3608   7.9943   7.9949   8.3375   8.4940   8.7304   9.6115   9.7503
    10.3491  10.4563  10.4580  10.7213  10.8633  10.8648  10.8653  10.8655
    11.1033  11.1631  11.1724  11.2156  11.2783  11.2968  11.3372  11.3627
    11.3947  11.4351  11.4983  11.5211  11.5723  11.5990  11.6231  11.6412
    11.7008  11.7352  11.7665  11.7975  11.8016  11.9893  12.1668  12.2335
    12.2812  12.2954  12.5127  12.6123  12.6151  12.6241  12.6245  12.8053
    12.8848  12.9008  12.9057  12.9856  13.0063  13.0101  13.0852  13.1505
    13.2368  13.2629  13.2798  13.2916  13.3301  13.3881  13.3884  13.4161
    13.4379  13.4777  13.5448  13.5590  13.6886  13.6979  13.7291  13.8330
    13.8452  13.8731  13.9046  13.9933  13.9956  14.2205  14.2260  14.2548
    14.3030  14.3033  14.4436  14.4483  14.4892  14.5532  14.5933  14.7267
    14.7394  14.7988  14.8059  14.8476  14.8835  14.9175  14.9454  15.0125
    15.0358  15.1143  15.1504  15.1801  15.2114  15.2650  15.3709  15.4203
    15.4777  15.5251  15.5266  15.5568  15.5698  15.6363  15.6512  15.7476
    15.8124  15.8254  15.9201  15.9424  15.9655  16.0210  16.0613  16.0822
    16.0974  16.2137  16.2164  16.5458  16.5498  16.6015  16.6057  16.8196
    16.8554  16.9241  17.3730  17.3747  17.4008  17.5044  17.7671  17.7698
    18.0369  18.0379  18.2459  18.2496  18.6859  18.7090  18.7338  19.1478
    19.3586  19.3801  19.3996  19.8198  21.0389  21.1014  21.1030  21.4795
    22.3691  22.9687  22.9695  23.1023  23.6256  23.9582  24.1987  24.3597
    24.3878  24.5386  24.5636  24.9349  24.9736  25.0201  25.1111  25.1728
    25.3877

          k = 0.1250 0.0589 0.0000 ( 17791 PWs)   bands (ev):

     1.5826   1.6831   1.6983   1.7670   2.9142   3.0723   3.1501   3.3374
     4.0655   4.2907   4.5312   4.6251   4.7239   5.8519   6.1320   6.2978
     6.6007   7.7834   8.1042   8.3721   8.5313   8.7550   9.6463   9.7855
    10.3746  10.4389  10.4890  10.6980  10.8168  10.8399  10.9044  10.9173
    11.1278  11.1281  11.1775  11.2186  11.2391  11.3222  11.3503  11.3666
    11.4088  11.4434  11.4799  11.4912  11.5538  11.6047  11.6451  11.6823
    11.7243  11.7609  11.7776  11.8099  11.9146  11.9606  12.1323  12.1366
    12.2782  12.3615  12.5005  12.5368  12.5716  12.6297  12.6331  12.7913
    12.8155  12.8721  12.8961  12.9760  12.9952  13.0507  13.0785  13.1283
    13.1485  13.2129  13.2598  13.2666  13.3326  13.3600  13.4317  13.4437
    13.4719  13.5508  13.5648  13.5746  13.7004  13.7231  13.7355  13.8158
    13.8557  13.8827  13.9386  13.9387  14.0304  14.1510  14.1979  14.2586
    14.3063  14.3217  14.4052  14.4607  14.5460  14.5701  14.5984  14.7148
    14.7301  14.7909  14.8186  14.8397  14.8699  14.9125  14.9399  14.9999
    15.0079  15.1231  15.1327  15.1829  15.1954  15.2804  15.3376  15.3838
    15.4519  15.4881  15.5047  15.5480  15.6064  15.6139  15.6710  15.7444
    15.8051  15.8144  15.8778  15.9042  15.9832  16.0291  16.0369  16.0827
    16.0829  16.1610  16.2333  16.3793  16.4982  16.6626  16.6809  16.7634
    16.8802  16.9599  17.0283  17.1340  17.3188  17.3934  17.5302  17.6048
    17.7312  18.0468  18.4896  18.5795  18.8249  18.9374  18.9727  19.2063
    19.4139  19.5496  19.6640  19.8740  21.0728  21.1904  21.3269  21.5071
    22.4106  22.5265  23.1494  23.4783  23.6375  23.7886  23.9261  23.9751
    24.1787  24.2132  24.4165  24.6927  24.8530  25.0016  25.2397  25.4460
    25.4808

          k = 0.1250 0.1179 0.0000 ( 17815 PWs)   bands (ev):

     1.6116   1.6681   1.7555   1.8407   2.9213   3.0117   3.0200   3.3781
     4.1224   4.3460   4.5600   4.5806   4.7645   5.9095   5.9182   6.2986
     6.8140   7.5514   8.0737   8.4695   8.6416   8.8264   9.7485   9.8885
    10.3942  10.4418  10.4987  10.5865  10.8243  10.8818  10.9064  10.9945
    11.0109  11.1244  11.1886  11.1917  11.2582  11.2933  11.3376  11.3687
    11.4460  11.4514  11.5109  11.5429  11.5895  11.6773  11.6883  11.7050
    11.7977  11.7981  11.8633  11.9027  11.9147  12.0324  12.0563  12.1289
    12.3190  12.3687  12.4141  12.4630  12.5387  12.5579  12.6066  12.7018
    12.7442  12.8236  12.8990  12.9360  12.9530  13.0417  13.0693  13.0743
    13.1315  13.1582  13.1790  13.2584  13.3008  13.3260  13.3975  13.4688
    13.5147  13.5868  13.6025  13.6068  13.7125  13.7349  13.7393  13.7756
    13.8359  13.9159  13.9303  13.9841  14.0541  14.1265  14.1266  14.2533
    14.2892  14.3330  14.3377  14.4747  14.5733  14.5750  14.6121  14.6896
    14.6902  14.7650  14.7793  14.8454  14.8606  14.8845  14.9164  14.9278
    15.0611  15.0621  15.1134  15.1492  15.2263  15.2427  15.2820  15.2905
    15.4074  15.4283  15.4894  15.4957  15.5736  15.5980  15.6733  15.7177
    15.7208  15.7780  15.8170  15.8438  15.9202  15.9807  16.0391  16.0838
    16.1217  16.1395  16.1957  16.2431  16.3885  16.5344  16.5928  16.6492
    16.7146  16.7395  16.9094  16.9174  17.0133  17.0780  17.3276  17.3723
    17.9026  18.0901  18.4901  18.6847  19.0704  19.3427  19.3701  19.5353
    19.5753  20.0351  20.3255  20.3941  21.1524  21.1688  21.5837  21.6375
    22.4178  22.5204  23.2625  23.2868  23.4267  23.5164  23.6677  23.7480
    24.0181  24.1277  24.2491  24.3925  24.5751  24.9236  25.4186  25.8835
    26.2850

          k = 0.1250 0.1768 0.0000 ( 17796 PWs)   bands (ev):

     1.6405   1.6656   1.8567   1.9357   2.8512   2.8763   3.0073   3.3782
     4.2064   4.4349   4.5438   4.6104   4.7897   5.7126   5.9961   6.3212
     6.8415   7.4911   7.9086   8.6007   8.8201   8.9450   9.9112  10.0498
    10.2106  10.3799  10.4861  10.6717  10.7147  10.7493  10.9045  10.9984
    11.0829  11.1499  11.1625  11.1913  11.2561  11.3225  11.3493  11.4138
    11.4975  11.5634  11.5817  11.5894  11.6551  11.7197  11.7690  11.7929
    11.8208  11.9047  11.9479  12.0049  12.0261  12.0730  12.1422  12.1578
    12.2858  12.3500  12.3559  12.3866  12.4978  12.5047  12.5653  12.6209
    12.6758  12.6950  12.8608  12.8785  12.9468  12.9710  12.9966  13.0258
    13.0697  13.1234  13.1479  13.2278  13.2912  13.3062  13.4209  13.4849
    13.5139  13.6015  13.6089  13.6247  13.6534  13.6635  13.7337  13.7456
    13.8569  13.8948  13.9682  13.9714  14.0827  14.1084  14.1699  14.1963
    14.2301  14.2525  14.3618  14.4830  14.4831  14.5191  14.6028  14.6285
    14.6317  14.6680  14.7511  14.7511  14.8268  14.8689  14.9231  14.9256
    14.9510  15.0117  15.0838  15.0860  15.1313  15.1661  15.2531  15.2642
    15.2859  15.3487  15.4005  15.4648  15.5189  15.5536  15.5942  15.6186
    15.6712  15.7248  15.7582  15.8324  15.8548  15.8915  15.9419  16.0299
    16.0510  16.0815  16.1277  16.1884  16.2159  16.2701  16.3359  16.3678
    16.5500  16.6217  16.7267  16.9521  17.0956  17.1114  17.4007  17.4702
    17.7843  18.2014  18.4770  18.5832  19.4118  19.6176  19.8303  20.1411
    20.2352  20.2948  20.7995  21.1393  21.3088  21.3130  21.6244  21.6918
    22.1790  22.6256  22.8280  23.1592  23.4111  23.4901  23.5867  23.7043
    23.9929  24.0638  24.1624  24.2633  24.7591  25.1413  25.2194  25.7315
    25.9366

          k = 0.1250 0.2357 0.0000 ( 17785 PWs)   bands (ev):

     1.6624   1.6703   1.9901   2.0478   2.7200   2.7263   3.0583   3.3420
     4.2975   4.5119   4.5500   4.6930   4.7942   5.5030   6.0888   6.4060
     6.6442   7.4941   7.8335   8.6837   9.0600   9.1319   9.9982  10.1250
    10.1949  10.2578  10.3741  10.4486  10.6507  10.8423  10.8946  10.9965
    11.0918  11.1144  11.2524  11.2709  11.3132  11.3556  11.4218  11.4730
    11.5549  11.6040  11.6646  11.6844  11.7076  11.8188  11.8475  11.8862
    11.9277  12.0084  12.0267  12.1034  12.1186  12.1220  12.1832  12.1999
    12.2516  12.3177  12.3296  12.4051  12.4315  12.4833  12.5173  12.5659
    12.5768  12.6150  12.7538  12.8208  12.8700  12.9610  12.9862  13.0067
    13.0105  13.0840  13.1535  13.1831  13.2733  13.2843  13.3944  13.4593
    13.5091  13.5174  13.5692  13.5870  13.6394  13.7144  13.7459  13.7881
    13.8168  13.8713  13.9374  13.9817  14.0049  14.1130  14.1207  14.1945
    14.2060  14.2469  14.3392  14.3587  14.3981  14.4441  14.5319  14.5387
    14.5812  14.6585  14.6800  14.6812  14.7300  14.7462  14.8151  14.8434
    14.9629  14.9655  15.0170  15.0341  15.0400  15.0743  15.1281  15.1878
    15.1893  15.2976  15.2990  15.3353  15.4223  15.4639  15.5300  15.5325
    15.5914  15.6265  15.6618  15.7130  15.7333  15.7660  15.8583  15.9609
    15.9649  16.0283  16.0585  16.1715  16.2019  16.2123  16.3213  16.3704
    16.5052  16.5082  16.7066  16.9285  17.0462  17.2249  17.4969  17.6487
    17.7726  17.9559  18.8554  18.8576  19.7898  19.9278  20.1704  20.2916
    20.6315  20.9847  21.0472  21.3610  21.4887  21.5193  21.7959  21.9220
    22.0339  22.3753  22.4845  22.8059  23.4713  23.6613  23.7674  23.8090
    24.0838  24.1641  24.2412  24.3902  24.5400  24.9029  25.3968  25.4971
    25.8918

          k = 0.1250 0.2946 0.0000 ( 17801 PWs)   bands (ev):

     1.6756   1.6767   2.1321   2.1635   2.5833   2.5840   3.1273   3.2798
     4.3759   4.4782   4.6556   4.7741   4.8394   5.2796   6.1724   6.4317
     6.5899   7.1899   8.0983   8.6156   9.3523   9.4028   9.9044   9.9718
    10.0862  10.1319  10.3644  10.4818  10.7293  10.8086  10.8706  10.9492
    11.1235  11.1285  11.2670  11.3475  11.3544  11.4129  11.5016  11.5696
    11.6099  11.6480  11.7456  11.7542  11.8022  11.8590  11.9227  12.0005
    12.0020  12.0259  12.0730  12.0754  12.1251  12.1641  12.1787  12.2499
    12.2530  12.3200  12.3200  12.3590  12.4331  12.4408  12.5070  12.5640
    12.5707  12.6434  12.7155  12.7861  12.8195  12.9133  12.9485  12.9718
    13.0076  13.0453  13.1267  13.2207  13.2558  13.3269  13.3839  13.4205
    13.4235  13.5290  13.5530  13.6011  13.6289  13.6821  13.7435  13.7797
    13.8200  13.8289  13.8900  13.9039  14.0174  14.0333  14.0457  14.0742
    14.1328  14.1981  14.2901  14.3112  14.3151  14.4002  14.4531  14.4836
    14.5336  14.5558  14.6452  14.6979  14.7414  14.7464  14.7841  14.8163
    14.8513  14.8936  14.9438  14.9539  14.9983  15.0188  15.0498  15.0748
    15.1124  15.1349  15.1843  15.2070  15.2590  15.3545  15.4365  15.4416
    15.4995  15.5867  15.6614  15.6711  15.7218  15.8271  15.8476  15.9880
    16.0203  16.0213  16.0756  16.1152  16.1721  16.1862  16.3304  16.3557
    16.5141  16.5175  16.6872  16.7886  17.1936  17.3417  17.5341  17.6056
    17.6322  17.8399  19.2110  19.5310  20.0881  20.1702  20.2758  20.5762
    20.9026  21.0029  21.0949  21.4095  21.5610  21.5912  21.7640  22.0007
    22.1334  22.1538  22.4705  22.8079  23.7855  23.8308  23.8526  23.9558
    24.0066  24.1104  24.3304  24.4908  24.6845  24.8581  25.1222  25.4486
    25.7462

          k = 0.1250-0.3536 0.0000 ( 17808 PWs)   bands (ev):

     1.6797   1.6797   2.2216   2.2216   2.5065   2.5065   3.2043   3.2043
     4.4350   4.4350   4.7282   4.7282   5.0489   5.0489   6.2757   6.2757
     6.8628   6.8628   8.3937   8.3937   9.6741   9.6741   9.7330   9.7330
     9.9549   9.9549  10.6042  10.6042  10.6928  10.6928  10.8621  10.8622
    11.1660  11.1660  11.3405  11.3405  11.3778  11.3778  11.5615  11.5615
    11.6683  11.6683  11.7860  11.7860  11.8894  11.8894  11.9634  11.9634
    12.0176  12.0176  12.0876  12.0876  12.1307  12.1307  12.2179  12.2179
    12.2540  12.2540  12.3408  12.3408  12.4196  12.4196  12.5483  12.5483
    12.6757  12.6757  12.7580  12.7580  12.8288  12.8288  12.9329  12.9329
    12.9857  12.9857  13.1962  13.1962  13.3004  13.3004  13.4233  13.4233
    13.5023  13.5023  13.5891  13.5891  13.6496  13.6496  13.7205  13.7205
    13.7814  13.7814  13.8784  13.8784  13.9515  13.9515  14.0303  14.0303
    14.0940  14.0940  14.2450  14.2450  14.3587  14.3587  14.4908  14.4908
    14.6143  14.6143  14.6462  14.6462  14.7284  14.7284  14.8307  14.8307
    14.8401  14.8401  14.8931  14.8931  14.9164  14.9164  14.9893  14.9893
    15.0850  15.0850  15.1606  15.1606  15.2871  15.2871  15.4150  15.4150
    15.5405  15.5405  15.6403  15.6403  15.7828  15.7828  15.9631  15.9631
    16.0244  16.0244  16.0961  16.0961  16.1531  16.1531  16.3455  16.3455
    16.5304  16.5304  16.7040  16.7040  17.3751  17.3751  17.4642  17.4642
    17.7239  17.7239  19.5293  19.5293  20.4822  20.4822  20.6484  20.6484
    20.7351  20.7351  21.1183  21.1183  21.4167  21.4167  21.9117  21.9117
    22.1555  22.1555  23.0971  23.0971  23.3824  23.3824  24.0223  24.0223
    24.0770  24.0770  24.5749  24.5749  25.0766  25.0766  25.2709  25.2709
    25.3886

          k = 0.2500 0.0000 0.0000 ( 17793 PWs)   bands (ev):

     1.5970   1.7126   1.7133   2.0186   3.0166   3.0266   3.0284   3.1275
     4.1016   4.2984   4.5369   4.7960   4.7977   6.0262   6.3370   6.3371
     6.3981   8.2767   8.2775   8.3003   8.9507   9.1559   9.7670  10.0255
    10.1750  10.3600  10.5426  10.5812  10.5816  10.8184  10.8781  10.8811
    10.9154  11.0970  11.2321  11.2503  11.2652  11.2766  11.3016  11.3839
    11.4120  11.4326  11.4482  11.5130  11.5233  11.5891  11.6221  11.6292
    11.8139  11.8675  11.8743  11.9961  12.0051  12.0758  12.0799  12.2919
    12.5859  12.5942  12.6239  12.6430  12.7567  12.7578  12.7803  12.9114
    13.0147  13.0577  13.0607  13.0772  13.1716  13.1870  13.2090  13.2362
    13.3233  13.3354  13.3696  13.4357  13.4591  13.4691  13.5145  13.5223
    13.5237  13.5382  13.6056  13.6076  13.6356  13.7107  13.7182  13.7433
    13.8302  13.8647  13.9383  13.9639  13.9800  14.0215  14.0293  14.0487
    14.1118  14.1765  14.2245  14.3396  14.3475  14.4009  14.4531  14.5022
    14.5516  14.5696  14.5928  14.6383  14.6857  14.8402  14.8585  14.8803
    14.9686  14.9704  15.0063  15.0694  15.0882  15.1742  15.1924  15.2127
    15.3291  15.3352  15.3875  15.4084  15.5319  15.6002  15.6189  15.6598
    15.8304  15.8412  15.8548  15.9018  15.9247  15.9871  16.0044  16.0895
    16.1167  16.1248  16.1704  16.2025  16.4002  16.5996  16.6137  16.7222
    16.7240  16.8455  16.8669  17.3083  17.3095  17.4048  17.4427  17.8518
    17.8611  18.1485  18.2569  18.2584  18.9102  18.9494  18.9817  19.3069
    19.3148  19.3613  19.6350  19.9395  20.4915  20.5256  20.8937  20.9125
    21.8503  22.0096  22.0166  22.3770  23.0262  23.0299  23.1323  23.1596
    23.3374  23.3985  23.4209  23.8657  23.8757  24.0909  24.4234  24.4236
    25.0977

          k = 0.2500 0.0589 0.0000 ( 17783 PWs)   bands (ev):

     1.6083   1.6809   1.7661   2.0277   2.9186   3.0006   3.1177   3.1240
     4.1158   4.3265   4.5515   4.7545   4.8347   6.0444   6.1770   6.4004
     6.5009   7.9389   8.3286   8.5471   8.9873   9.1891   9.7976  10.0541
    10.1700  10.3070  10.5377  10.5927  10.6266  10.8242  10.8581  10.9205
    10.9475  11.0910  11.1386  11.2541  11.2897  11.3320  11.3460  11.4147
    11.4219  11.4400  11.4842  11.5043  11.5639  11.5848  11.6097  11.6877
    11.8020  11.8177  11.9530  11.9592  12.0232  12.0679  12.1023  12.3066
    12.4267  12.5328  12.6035  12.6438  12.6910  12.7570  12.8748  12.9082
    12.9889  13.0064  13.0546  13.0645  13.1006  13.1639  13.2116  13.2909
    13.2928  13.3431  13.4095  13.4143  13.4431  13.4736  13.4810  13.5183
    13.5248  13.5744  13.5979  13.6098  13.6841  13.7048  13.7248  13.7528
    13.8152  13.8339  13.8980  13.9228  13.9778  13.9992  14.0006  14.0517
    14.0779  14.1958  14.2690  14.3089  14.3382  14.3708  14.4380  14.4980
    14.5281  14.5457  14.5608  14.6183  14.6691  14.8226  14.8556  14.8713
    14.9451  14.9959  15.0112  15.0384  15.0915  15.1896  15.1991  15.2757
    15.3192  15.3453  15.3949  15.4177  15.5625  15.5978  15.6318  15.6691
    15.7799  15.8139  15.8489  15.8796  15.8906  15.9483  15.9592  16.0501
    16.1191  16.1542  16.1736  16.1852  16.4448  16.4774  16.4984  16.7332
    16.7828  16.9314  16.9911  17.0645  17.1479  17.2802  17.4245  17.4971
    17.8472  18.1949  18.2812  18.4596  18.7336  18.9315  19.0364  19.3593
    19.6905  19.7596  19.9184  19.9968  20.0977  20.3644  20.7828  21.3311
    21.8636  22.0367  22.2602  22.3372  22.3815  22.5688  22.7167  23.2291
    23.3837  23.8011  23.9685  24.0631  24.1316  24.2232  24.3818  24.7183
    25.2156

          k = 0.2500 0.1179 0.0000 ( 17763 PWs)   bands (ev):

     1.6377   1.6672   1.8417   2.0546   2.8049   2.9409   3.1073   3.2001
     4.1573   4.4087   4.5923   4.7096   4.8648   6.0220   6.0884   6.4214
     6.6449   7.5962   8.4094   8.7061   9.0953   9.2842   9.8449  10.0185
    10.1885  10.3599  10.4960  10.5749  10.6995  10.7520  10.8516  10.9580
    10.9888  11.0402  11.2237  11.2441  11.3025  11.3899  11.4113  11.4502
    11.4816  11.5199  11.5285  11.5831  11.5842  11.6373  11.6733  11.7538
    11.7959  11.8270  11.9288  12.0002  12.0673  12.1040  12.1404  12.2585
    12.3314  12.4258  12.5394  12.6527  12.6614  12.7433  12.8838  12.8848
    12.9539  12.9595  12.9976  13.0419  13.0720  13.1207  13.1819  13.2333
    13.2468  13.3090  13.3391  13.3738  13.4209  13.4671  13.4802  13.5182
    13.5320  13.5893  13.6179  13.6183  13.6399  13.6657  13.7073  13.7370
    13.7658  13.7879  13.8598  13.8690  13.9089  13.9586  13.9911  14.0079
    14.0207  14.0824  14.2162  14.2922  14.3401  14.3706  14.4060  14.4308
    14.4798  14.5180  14.5301  14.5588  14.6858  14.7831  14.8318  14.8560
    14.9327  14.9712  15.0041  15.0148  15.1009  15.1706  15.2274  15.2911
    15.3056  15.3870  15.4351  15.5338  15.5590  15.5859  15.6273  15.6757
    15.7330  15.7848  15.7913  15.8275  15.8519  15.8571  15.9198  15.9482
    16.0043  16.0974  16.1438  16.1840  16.2367  16.4276  16.4453  16.6175
    16.6433  16.7392  16.9161  16.9726  17.1761  17.4424  17.4633  17.4801
    17.6647  17.7401  18.2377  18.3250  19.1628  19.1872  19.4457  19.4726
    19.7427  19.8600  19.9523  20.1672  20.2203  20.6222  21.0264  21.4684
    21.5788  21.9036  21.9257  22.1612  22.3946  22.6584  22.8787  23.2448
    23.5153  23.5665  23.7908  24.2530  24.9349  24.9916  25.2501  25.4215
    25.4384

          k = 0.2500 0.1768 0.0000 ( 17751 PWs)   bands (ev):

     1.6681   1.6733   1.9394   2.0994   2.6922   2.8340   3.1171   3.2493
     4.2224   4.5410   4.6515   4.6621   4.8833   5.8625   6.1280   6.5016
     6.6784   7.3747   8.5279   8.7203   9.2676   9.4183   9.6724  10.1126
    10.1802  10.3483  10.4954  10.5121  10.6543  10.7967  10.8388  11.0180
    11.0845  11.1815  11.2019  11.3153  11.3809  11.4363  11.4888  11.5043
    11.5279  11.5507  11.6265  11.6543  11.7203  11.7359  11.7648  11.8347
    11.8379  11.9204  11.9800  12.0237  12.1211  12.1593  12.2008  12.2458
    12.2997  12.3742  12.4521  12.6307  12.6377  12.7086  12.7824  12.8094
    12.8730  12.9282  12.9565  12.9901  13.0417  13.0458  13.1309  13.1378
    13.2045  13.2786  13.2835  13.3143  13.3642  13.3869  13.4412  13.4656
    13.4820  13.5097  13.5633  13.5759  13.6208  13.6278  13.6716  13.7152
    13.7302  13.7737  13.7775  13.8613  13.8701  13.9032  13.9093  13.9630
    14.0150  14.0471  14.1652  14.1656  14.1965  14.2312  14.3709  14.3748
    14.4646  14.4991  14.5277  14.5402  14.7061  14.7155  14.7899  14.8202
    14.8741  14.9085  14.9926  14.9994  15.1003  15.1611  15.2346  15.2643
    15.3097  15.3741  15.4218  15.4993  15.5225  15.5334  15.5550  15.6476
    15.6792  15.7316  15.7362  15.7672  15.8129  15.8172  15.8515  15.8961
    15.9017  15.9523  16.0056  16.0815  16.1382  16.1739  16.3729  16.4022
    16.6226  16.6876  16.9137  17.0765  17.1331  17.3015  17.3847  17.5728
    17.8709  17.9396  18.2997  18.5213  18.9640  19.1893  19.4012  19.5399
    19.6245  20.1388  20.3854  20.4420  20.5415  20.7986  21.1133  21.2768
    21.4437  21.9721  21.9893  22.2682  22.4154  22.9300  22.9800  23.3241
    23.4974  23.6896  24.2602  24.4486  25.3801  25.3909  25.5819  25.6775
    26.0476

          k = 0.2500 0.2357 0.0000 ( 17768 PWs)   bands (ev):

     1.6790   1.7008   2.0563   2.1616   2.5850   2.6974   3.1464   3.2685
     4.3038   4.6096   4.7185   4.7203   4.8864   5.6785   6.1469   6.5243
     6.6710   7.3663   8.5947   8.6443   9.3557   9.4969   9.6763   9.8111
    10.3254  10.4243  10.5059  10.5574  10.7129  10.7953  10.9661  11.0554
    11.1946  11.1953  11.2896  11.3208  11.4630  11.4861  11.5220  11.5585
    11.5766  11.6158  11.6834  11.7423  11.8501  11.8591  11.9233  11.9433
    11.9926  12.0026  12.0894  12.1078  12.1724  12.1915  12.2276  12.2634
    12.3201  12.3898  12.4282  12.5870  12.5914  12.6490  12.6720  12.7032
    12.7645  12.8360  12.8621  12.9466  12.9567  13.0183  13.0740  13.0931
    13.0978  13.1719  13.2229  13.2252  13.2459  13.3392  13.3550  13.3999
    13.4065  13.4526  13.4798  13.4958  13.5249  13.6007  13.6166  13.6225
    13.6704  13.7313  13.7963  13.8045  13.8448  13.8799  13.8992  13.9470
    13.9819  14.0330  14.0582  14.1146  14.1705  14.2386  14.3040  14.3578
    14.3810  14.4508  14.4927  14.5391  14.6090  14.7020  14.7847  14.8257
    14.8439  14.9111  14.9297  14.9753  14.9919  15.0929  15.0952  15.1586
    15.2341  15.2604  15.3170  15.3432  15.3685  15.4428  15.4703  15.5458
    15.5539  15.6082  15.6873  15.7414  15.7757  15.8219  15.8436  15.8706
    15.9344  15.9706  15.9998  16.0200  16.1058  16.1325  16.3265  16.3631
    16.3789  16.6983  16.7719  17.0375  17.2207  17.3736  17.5996  17.7105
    17.8557  18.2968  18.4054  18.7200  18.7702  19.0646  19.4241  19.6325
    19.8193  20.1117  20.2364  20.5016  20.7360  20.8011  21.0871  21.7287
    21.8821  22.0741  22.2206  22.4047  22.4427  22.8367  22.9538  23.6333
    23.7832  23.9404  24.6428  24.8713  25.0907  25.6532  25.8366  25.8626
    26.0912

          k = 0.2500 0.2946 0.0000 ( 17790 PWs)   bands (ev):

     1.6942   1.7119   2.1833   2.2338   2.4901   2.5529   3.1875   3.2597
     4.3916   4.5483   4.7832   4.8709   4.9415   5.4518   6.1686   6.3408
     6.9144   7.3595   8.4710   8.6510   9.2559   9.5468   9.7563   9.8846
    10.2664  10.3151  10.5791  10.7833  10.8386  10.9242  11.0093  11.0463
    11.1127  11.2255  11.2496  11.3792  11.4121  11.4960  11.6111  11.6518
    11.6827  11.6947  11.7700  11.8129  11.9265  11.9396  12.0228  12.0400
    12.0738  12.0888  12.1965  12.2049  12.2358  12.2772  12.2879  12.3568
    12.3630  12.4456  12.4458  12.4935  12.5466  12.5738  12.6167  12.6540
    12.6940  12.7463  12.7657  12.8501  12.8600  12.9415  12.9892  13.0314
    13.0568  13.0760  13.0877  13.1458  13.2007  13.2602  13.2897  13.3279
    13.3770  13.3908  13.4334  13.4380  13.4847  13.4880  13.5076  13.5372
    13.6010  13.6934  13.6997  13.7353  13.8149  13.8614  13.8818  13.9449
    14.0067  14.0536  14.0872  14.1758  14.2052  14.2413  14.3041  14.3534
    14.3994  14.4621  14.4927  14.5715  14.6263  14.6721  14.6864  14.7644
    14.7847  14.8207  14.8539  14.8593  14.9204  14.9368  15.0170  15.0202
    15.0580  15.0858  15.2022  15.2306  15.2641  15.3390  15.3592  15.4658
    15.5492  15.6164  15.6867  15.7927  15.8250  15.8603  15.8628  15.9166
    15.9231  15.9802  15.9867  16.0491  16.0532  16.1711  16.1733  16.3924
    16.3997  16.5326  16.7116  16.8572  17.5037  17.6261  17.7619  17.8253
    17.9342  18.2231  18.3534  18.6536  18.7003  19.0638  19.5335  19.7717
    19.8459  20.0783  20.2240  20.7144  20.7436  20.9125  21.2158  21.7366
    22.0922  22.2114  22.4447  22.6652  22.7214  22.7923  22.8954  23.1082
    24.6897  24.7988  24.8345  24.8978  24.9799  25.3714  25.6650  25.8480
    25.9094

          k = 0.2500-0.3536 0.0000 ( 17788 PWs)   bands (ev):

     1.7076   1.7076   2.2723   2.2723   2.4512   2.4512   3.2293   3.2293
     4.4753   4.4753   4.8359   4.8359   5.1943   5.1943   6.2240   6.2240
     7.1814   7.1814   8.5222   8.5222   9.3541   9.3541  10.0257  10.0257
    10.1069  10.1069  10.8330  10.8330  10.9200  10.9200  10.9994  10.9994
    11.1370  11.1370  11.2797  11.2797  11.4786  11.4786  11.6665  11.6665
    11.7494  11.7494  11.8158  11.8158  11.9529  11.9529  12.0705  12.0705
    12.1073  12.1073  12.2554  12.2554  12.3034  12.3034  12.3705  12.3705
    12.3906  12.3906  12.4771  12.4771  12.5309  12.5309  12.6520  12.6520
    12.6996  12.6996  12.7757  12.7757  12.8217  12.8217  12.9698  12.9698
    13.0025  13.0025  13.1242  13.1242  13.1758  13.1758  13.2832  13.2832
    13.3385  13.3385  13.4151  13.4151  13.4834  13.4834  13.5126  13.5126
    13.6076  13.6076  13.6233  13.6233  13.8555  13.8555  13.9386  13.9386
    14.0022  14.0022  14.1404  14.1404  14.2516  14.2516  14.4276  14.4276
    14.5015  14.5015  14.5290  14.5290  14.6082  14.6082  14.6639  14.6639
    14.7079  14.7079  14.7817  14.7817  14.8514  14.8514  14.9750  14.9750
    15.0868  15.0868  15.1442  15.1442  15.2559  15.2559  15.4191  15.4191
    15.5676  15.5676  15.7506  15.7506  15.8708  15.8708  15.9147  15.9147
    15.9460  15.9460  15.9910  15.9910  16.0989  16.0989  16.3168  16.3168
    16.4246  16.4246  16.7518  16.7518  17.6546  17.6546  17.9498  17.9498
    18.0557  18.0557  18.2645  18.2645  19.1240  19.1240  19.3990  19.3990
    20.0577  20.0577  20.3845  20.3845  21.3225  21.3225  21.5693  21.5693
    21.7941  21.7942  22.4442  22.4442  22.6361  22.6361  23.8351  23.8351
    24.0930  24.0930  25.2420  25.2420  25.5327  25.5328  25.7764  25.7765
    25.9196

          k = 0.3750 0.0000 0.0000 ( 17794 PWs)   bands (ev):

     1.6209   1.7077   1.7085   2.4737   2.8400   2.8418   3.0489   3.2397
     3.8721   4.4382   4.6315   4.8759   4.8778   6.2337   6.3153   6.3154
     6.5347   8.3801   8.5966   8.5974   9.5754   9.6394   9.8141   9.9334
    10.2118  10.3056  10.5425  10.6090  10.6160  10.6406  10.7260  10.7347
    10.7452  10.8399  11.1004  11.1820  11.2008  11.2458  11.2767  11.3412
    11.4263  11.5980  11.6240  11.6635  11.7143  11.7415  11.8906  11.8957
    11.9217  11.9760  12.0507  12.1639  12.1864  12.3166  12.3373  12.4746
    12.5312  12.5544  12.6002  12.6198  12.7358  12.7368  12.8149  12.9265
    12.9540  12.9712  13.0099  13.0587  13.1296  13.1663  13.1941  13.2788
    13.3301  13.3602  13.3777  13.4167  13.4435  13.4944  13.4965  13.5176
    13.5266  13.5269  13.5709  13.5786  13.6056  13.6287  13.6750  13.7665
    13.7711  13.8005  13.8181  13.8200  13.8816  13.9345  13.9556  13.9903
    14.0670  14.0696  14.1083  14.1915  14.2646  14.3125  14.3372  14.4393
    14.5690  14.6170  14.6280  14.6784  14.7718  14.8062  14.8238  14.8257
    14.9664  14.9758  15.0095  15.0436  15.0683  15.1604  15.2932  15.3477
    15.3493  15.4052  15.4088  15.4531  15.6384  15.6444  15.6526  15.6842
    15.6947  15.7973  15.7994  15.8108  15.8669  15.8897  15.9133  15.9144
    15.9879  16.0412  16.0893  16.0985  16.1643  16.1821  16.3418  16.5977
    16.6982  16.7261  16.8338  16.9045  17.2697  17.3067  17.3113  17.3903
    17.5189  18.0342  18.0677  18.0823  18.4580  18.4643  18.6913  19.4055
    19.4447  19.8740  19.8834  20.1879  20.4876  20.5264  20.9507  21.4619
    21.4790  21.5349  21.5656  21.8702  21.8923  22.0326  22.0629  22.1153
    22.2603  22.3566  22.7863  22.8517  23.5644  24.0948  24.2018  24.2019
    24.6862

          k = 0.3750 0.0589 0.0000 ( 17796 PWs)   bands (ev):

     1.6323   1.6777   1.7613   2.4739   2.7505   2.9285   3.0205   3.2064
     3.9241   4.4664   4.6449   4.8482   4.9008   6.2252   6.2594   6.4234
     6.5289   8.1427   8.4130   8.9818   9.5097   9.6585   9.8582   9.9662
    10.2489  10.3438  10.5629  10.5815  10.6723  10.6817  10.7065  10.7586
    10.7908  10.8774  11.1187  11.1375  11.2202  11.2748  11.3143  11.3321
    11.4402  11.5199  11.6281  11.7066  11.7307  11.7829  11.8427  11.9031
    11.9230  12.0039  12.0760  12.0892  12.2358  12.3300  12.3527  12.4771
    12.5077  12.5233  12.6078  12.6277  12.7312  12.7555  12.8188  12.8602
    12.9366  12.9857  13.0006  13.0584  13.1333  13.1698  13.1971  13.2726
    13.3059  13.3248  13.3428  13.4027  13.4217  13.4322  13.4690  13.4862
    13.5006  13.5178  13.5830  13.5891  13.6150  13.6325  13.6802  13.7059
    13.7512  13.7933  13.8280  13.8497  13.8763  13.9389  13.9713  13.9829
    14.0589  14.1003  14.1074  14.1536  14.2730  14.2911  14.3369  14.3869
    14.5356  14.6039  14.6600  14.6718  14.7294  14.7371  14.8314  14.8535
    14.9221  14.9414  14.9928  15.0088  15.1036  15.1519  15.2200  15.2769
    15.2946  15.3243  15.3857  15.5276  15.5763  15.5899  15.6407  15.6959
    15.7336  15.7709  15.7875  15.8357  15.8528  15.8882  15.9003  15.9589
    16.0042  16.0058  16.0666  16.0970  16.1259  16.1619  16.3751  16.4073
    16.6643  16.8514  16.9325  16.9487  17.0680  17.3657  17.3680  17.4119
    17.5140  17.5918  18.0672  18.1096  18.5891  18.7100  18.8015  19.1865
    19.2211  19.7881  19.9016  20.2206  20.7713  20.9221  20.9724  21.1231
    21.1816  21.2422  21.3218  21.5918  21.9375  22.1213  22.3936  22.4680
    22.6656  22.7507  23.1476  23.3991  23.5903  23.8637  24.1125  24.2367
    24.7211

          k = 0.3750 0.1179 0.0000 ( 17793 PWs)   bands (ev):

     1.6630   1.6681   1.8381   2.4699   2.6638   2.9407   3.0054   3.1419
     4.0462   4.5504   4.6835   4.8151   4.9188   6.1501   6.3161   6.5353
     6.5444   7.6625   8.5075   9.2646   9.3205   9.7560   9.9730  10.0591
    10.3570  10.4505  10.5328  10.6097  10.6921  10.7203  10.7932  10.8253
    10.8521  10.9007  10.9816  11.2439  11.2852  11.3301  11.3575  11.4198
    11.4630  11.4850  11.6919  11.7443  11.7602  11.7760  11.8258  11.9199
    11.9406  12.0445  12.0792  12.1169  12.2773  12.3752  12.3985  12.4038
    12.4924  12.5230  12.5974  12.6460  12.6903  12.7756  12.7891  12.8223
    12.8952  12.9681  13.0107  13.0612  13.1214  13.1613  13.1870  13.2275
    13.2351  13.2668  13.2824  13.3402  13.3421  13.4002  13.4023  13.4338
    13.4662  13.5123  13.5367  13.6027  13.6047  13.6281  13.6449  13.6882
    13.7014  13.7403  13.8000  13.8444  13.8765  13.8956  13.9558  14.0140
    14.0379  14.0518  14.0992  14.1648  14.2398  14.2425  14.3322  14.3487
    14.5084  14.5138  14.5534  14.6060  14.6087  14.6808  14.7493  14.7844
    14.8528  14.9103  14.9495  15.0283  15.0323  15.0647  15.1447  15.1664
    15.2605  15.3115  15.3373  15.4299  15.4995  15.5323  15.6395  15.6492
    15.6841  15.6851  15.7474  15.7650  15.8192  15.8564  15.8721  15.9274
    15.9323  16.0037  16.0310  16.0818  16.1489  16.1918  16.2782  16.3691
    16.5960  16.7995  16.8709  17.0199  17.0926  17.1565  17.4226  17.5840
    17.6079  17.7761  17.8932  18.1695  18.3907  18.6305  18.8353  19.0910
    19.1006  19.6663  20.0733  20.3126  20.4811  20.7720  20.8145  21.0448
    21.1633  21.2546  21.6007  21.9260  22.1411  22.1963  22.6875  22.9109
    23.3491  23.4059  23.6675  23.9471  24.0440  24.1649  24.1979  24.4393
    24.8222

          k = 0.3750 0.1768 0.0000 ( 17788 PWs)   bands (ev):

     1.6765   1.7036   1.9381   2.4536   2.5855   2.8230   3.0646   3.0944
     4.1926   4.6780   4.7525   4.7758   4.9287   6.0797   6.3317   6.6329
     6.6394   7.2344   8.6464   9.0878   9.4201   9.9122  10.1244  10.1479
    10.1969  10.5251  10.5393  10.6123  10.6724  10.8596  10.8726  10.9455
    10.9531  10.9930  11.1303  11.3148  11.4008  11.4017  11.4915  11.4997
    11.5232  11.5652  11.6241  11.7695  11.8034  11.8461  11.8569  11.9126
    12.0219  12.0736  12.1646  12.1656  12.3015  12.3082  12.4220  12.4667
    12.5004  12.5307  12.5797  12.6694  12.6703  12.7617  12.7637  12.8127
    12.8246  12.9093  13.0048  13.0525  13.0728  13.0868  13.1334  13.1356
    13.1785  13.2057  13.2070  13.2688  13.2960  13.3155  13.3791  13.3922
    13.4405  13.4651  13.5168  13.5360  13.5844  13.6259  13.6344  13.6586
    13.6635  13.7039  13.7545  13.7811  13.8600  13.8719  13.9175  13.9179
    13.9693  13.9779  14.0936  14.1378  14.1612  14.2481  14.2716  14.2760
    14.3529  14.3736  14.4401  14.4758  14.5274  14.6125  14.6529  14.7105
    14.7456  14.8137  14.8208  14.8709  14.9651  15.0289  15.0498  15.1854
    15.2202  15.2535  15.2951  15.3372  15.3929  15.4320  15.4343  15.4670
    15.5711  15.6399  15.6582  15.7072  15.7168  15.8446  15.8544  15.8578
    15.8804  15.9619  15.9907  16.0685  16.0694  16.2810  16.3613  16.4470
    16.5201  16.6897  16.7938  16.8646  17.3418  17.4375  17.5647  17.6101
    17.7024  17.8290  18.0218  18.0264  18.2493  18.3525  18.5766  19.0185
    19.5240  19.5816  19.8024  20.1547  20.2640  20.4454  20.5870  21.1891
    21.6241  21.7971  22.0808  22.1800  22.1836  22.6234  23.2051  23.4143
    23.7947  23.8403  23.9236  24.2500  24.4182  24.5200  24.9675  24.9774
    25.1340

          k = 0.3750 0.2357 0.0000 ( 17756 PWs)   bands (ev):

     1.6982   1.7395   2.0595   2.4279   2.5190   2.6810   3.0810   3.1013
     4.3387   4.7271   4.7738   4.9173   4.9277   5.9826   6.3012   6.5363
     6.8272   7.0769   8.7218   8.9628   9.3612   9.6351  10.1033  10.3422
    10.3822  10.5479  10.6434  10.7299  10.8106  10.9241  11.0237  11.0570
    11.1325  11.1531  11.2853  11.3662  11.4069  11.5006  11.5351  11.5810
    11.5843  11.6782  11.6798  11.7548  11.7958  11.8815  11.9440  11.9809
    12.0898  12.1561  12.1954  12.2631  12.2851  12.3572  12.4385  12.5033
    12.5270  12.5503  12.6082  12.6677  12.6766  12.7324  12.7437  12.7872
    12.8246  12.8302  12.9038  12.9157  12.9798  13.0437  13.0607  13.1011
    13.1066  13.1312  13.2075  13.2273  13.2350  13.2707  13.2902  13.3381
    13.3975  13.4248  13.4613  13.4890  13.4902  13.5312  13.5984  13.6020
    13.6319  13.6921  13.7005  13.7545  13.7824  13.8250  13.8694  13.8813
    13.8867  13.9540  13.9547  14.0226  14.0855  14.0861  14.2178  14.2742
    14.2766  14.3192  14.3808  14.4097  14.4230  14.4460  14.5884  14.5956
    14.6939  14.7113  14.7270  14.7307  14.9050  14.9373  14.9778  14.9809
    15.0880  15.1527  15.2016  15.2058  15.2646  15.3318  15.3737  15.4119
    15.4786  15.4978  15.6002  15.6654  15.7094  15.7502  15.7906  15.8405
    15.8768  15.8944  15.9609  16.0825  16.1186  16.2128  16.5540  16.5750
    16.6154  16.6394  16.7226  17.0087  17.4200  17.4672  17.4762  17.6626
    17.7675  17.8999  18.0440  18.0725  18.2366  18.3031  18.6151  18.6868
    19.3249  19.4627  19.7798  20.0136  20.1631  20.5974  20.7544  21.4317
    21.5468  21.8028  22.2480  22.7509  22.9292  23.3098  23.3595  23.5861
    23.9700  24.2761  24.3628  24.4659  24.9730  25.1328  25.2593  25.5184
    25.6685

          k = 0.3750 0.2946 0.0000 ( 17761 PWs)   bands (ev):

     1.7261   1.7567   2.1979   2.4062   2.4680   2.5306   3.0920   3.1145
     4.4705   4.6635   4.8352   4.9128   5.1703   5.7802   6.2712   6.3401
     7.0437   7.1508   8.6131   8.9489   9.1181   9.4724  10.2973  10.4746
    10.5413  10.5998  10.6419  10.9231  10.9548  11.0071  11.0852  11.2218
    11.2501  11.2582  11.3050  11.4041  11.4406  11.4577  11.5503  11.6139
    11.6613  11.7236  11.7588  11.7692  11.8610  11.9575  11.9636  12.0492
    12.0531  12.1929  12.2208  12.3848  12.4303  12.4663  12.5005  12.5245
    12.5251  12.5761  12.6473  12.6722  12.7067  12.7156  12.7380  12.7589
    12.7885  12.7998  12.8175  12.8525  12.8823  12.9991  13.0184  13.0397
    13.0595  13.0965  13.1254  13.1288  13.2006  13.2454  13.2623  13.2793
    13.2907  13.3270  13.3477  13.3878  13.4343  13.4728  13.4760  13.5012
    13.5146  13.5915  13.6015  13.6734  13.7395  13.7424  13.8607  13.8626
    13.8797  13.9193  13.9894  14.0732  14.0870  14.1141  14.1447  14.1799
    14.2479  14.2596  14.3047  14.4143  14.4237  14.4494  14.4864  14.5212
    14.5596  14.5943  14.6651  14.7310  14.7687  14.7730  14.8590  14.8824
    14.9666  14.9969  15.0101  15.1656  15.1901  15.2920  15.3076  15.3871
    15.4820  15.5359  15.5531  15.6684  15.6919  15.7487  15.7639  15.7899
    15.8125  15.8634  15.8952  16.0286  16.1679  16.4101  16.4190  16.5979
    16.7891  16.8216  16.8867  17.1926  17.2410  17.2417  17.3568  17.5875
    17.8486  17.9200  17.9969  18.2594  18.3991  18.4212  18.6085  18.9417
    18.9610  19.1244  19.3522  19.7318  20.5239  20.7654  21.2294  21.4444
    21.7499  21.7799  22.3589  22.7883  22.9750  23.8282  23.9710  24.1415
    24.2227  24.4808  24.5200  24.8197  25.2050  25.3601  25.6695  25.7415
    26.0361

          k = 0.3750-0.3536 0.0000 ( 17776 PWs)   bands (ev):

     1.7498   1.7498   2.3408   2.3408   2.4449   2.4449   3.1083   3.1083
     4.5793   4.5793   4.8819   4.8819   5.4744   5.4745   6.2700   6.2700
     7.1742   7.1742   8.6501   8.6501   9.3128   9.3128  10.4563  10.4563
    10.5545  10.5545  10.8922  10.8922  11.0403  11.0403  11.1100  11.1100
    11.3275  11.3275  11.3890  11.3890  11.4276  11.4276  11.6119  11.6119
    11.7069  11.7069  11.8143  11.8143  11.8524  11.8524  12.0384  12.0384
    12.1546  12.1546  12.2967  12.2967  12.5149  12.5149  12.5678  12.5678
    12.5835  12.5835  12.6718  12.6718  12.7306  12.7306  12.7582  12.7583
    12.7971  12.7971  12.8107  12.8107  12.9009  12.9009  13.0009  13.0009
    13.0257  13.0257  13.1121  13.1121  13.1488  13.1488  13.2486  13.2486
    13.2652  13.2652  13.3188  13.3188  13.3907  13.3907  13.4210  13.4210
    13.4905  13.4905  13.6233  13.6233  13.7449  13.7449  13.8658  13.8658
    13.9243  13.9243  14.0062  14.0062  14.1072  14.1072  14.2295  14.2295
    14.2846  14.2846  14.3133  14.3133  14.3756  14.3756  14.4798  14.4798
    14.5664  14.5664  14.6121  14.6121  14.7366  14.7366  14.8126  14.8126
    14.9114  14.9114  15.0678  15.0678  15.2182  15.2182  15.3400  15.3400
    15.5270  15.5270  15.5912  15.5912  15.7352  15.7352  15.7743  15.7743
    15.7993  15.7993  15.9500  15.9500  16.2726  16.2726  16.5629  16.5629
    16.9583  16.9583  17.0584  17.0584  17.0810  17.0810  17.5362  17.5362
    17.7386  17.7386  18.1814  18.1814  18.6113  18.6113  18.7890  18.7890
    18.9544  18.9544  19.3192  19.3192  20.9639  20.9639  21.0191  21.0191
    22.1882  22.1882  22.4975  22.4975  23.1437  23.1437  24.4276  24.4276
    24.6460  24.6460  24.9645  24.9645  25.1598  25.1598  25.9525  25.9531
    26.0852

          k =-0.5000 0.0000 0.0000 ( 17814 PWs)   bands (ev):

     1.6304   1.7046   1.7054   2.7565   2.7718   2.7736   3.0509   3.2995
     3.6618   4.5389   4.6585   4.9013   4.9032   6.3004   6.3064   6.3066
     6.6088   8.7431   8.7462   8.7471   9.1571   9.5724  10.0113  10.2192
    10.3572  10.5822  10.5989  10.6035  10.6628  10.6841  10.7112  10.7225
    10.7571  10.7832  10.8274  10.9540  10.9624  11.2237  11.2527  11.3190
    11.3700  11.4914  11.7165  11.7453  11.8632  11.8878  11.9143  12.0453
    12.1397  12.1867  12.2135  12.2189  12.3509  12.3619  12.4244  12.4833
    12.5360  12.5398  12.5563  12.6188  12.7114  12.7189  12.7557  12.8120
    12.8607  12.9241  12.9674  13.0579  13.1095  13.1544  13.1799  13.2079
    13.2166  13.2523  13.2661  13.3263  13.3468  13.3567  13.3957  13.4003
    13.4603  13.4675  13.5590  13.5707  13.5884  13.5968  13.6307  13.6987
    13.7209  13.7860  13.7894  13.8136  13.9157  13.9603  14.0148  14.0527
    14.0939  14.1705  14.1944  14.2275  14.3401  14.3505  14.3698  14.4090
    14.4645  14.4833  14.4982  14.5925  14.7034  14.7421  14.7785  14.8614
    14.8860  15.1102  15.1304  15.1585  15.2165  15.3566  15.4220  15.4905
    15.5011  15.5292  15.5636  15.5758  15.6651  15.6690  15.7122  15.7345
    15.7881  15.8090  15.8719  15.8725  15.8789  15.9153  15.9680  15.9722
    15.9939  16.0120  16.0237  16.0441  16.0614  16.1563  16.1836  16.3839
    16.4823  16.5196  16.5762  16.5954  16.9246  17.0691  17.3038  17.3056
    17.3700  17.4491  17.8247  18.2482  18.2595  18.4660  18.5167  19.3554
    19.4184  19.8008  20.3002  20.3153  20.7196  20.8528  21.1224  21.1250
    21.1387  21.1809  21.2471  21.3477  21.6154  21.6779  21.9141  22.2474
    22.3559  22.4379  22.5531  22.8707  22.9370  23.3707  23.7391  23.7457
    24.6887

          k =-0.5000 0.0589 0.0000 ( 17814 PWs)   bands (ev):

     1.6418   1.6762   1.7576   2.6932   2.7676   2.8520   3.0248   3.1847
     3.7797   4.5681   4.6698   4.8814   4.9184   6.2491   6.3363   6.3896
     6.5921   8.2524   8.7859   9.0762   9.1525   9.6324  10.0470  10.2584
    10.3885  10.5604  10.6349  10.6476  10.6695  10.6987  10.7464  10.7567
    10.7946  10.8196  10.8654  10.9924  11.0007  11.2302  11.2411  11.3364
    11.3769  11.4648  11.5382  11.8179  11.8501  11.8899  11.9544  12.0525
    12.1434  12.2075  12.2210  12.2468  12.3669  12.3764  12.4272  12.4868
    12.4942  12.4993  12.5860  12.6164  12.7198  12.7271  12.7321  12.8135
    12.8654  12.9412  12.9733  13.0386  13.1003  13.1547  13.1614  13.2198
    13.2275  13.2361  13.2537  13.3208  13.3277  13.3375  13.3771  13.3819
    13.4613  13.4677  13.5530  13.5545  13.5781  13.5861  13.5864  13.6672
    13.7092  13.7745  13.7929  13.8324  13.8953  13.9597  13.9732  14.0453
    14.0974  14.1531  14.1658  14.2529  14.3215  14.3217  14.3450  14.4148
    14.4565  14.4681  14.5953  14.6146  14.6753  14.7541  14.7752  14.7955
    14.8296  15.0485  15.0885  15.1194  15.2426  15.3037  15.4057  15.4177
    15.4210  15.4589  15.4926  15.5242  15.5488  15.6296  15.6545  15.6664
    15.7263  15.7591  15.7786  15.8035  15.8262  15.9057  15.9350  15.9595
    15.9621  15.9864  16.0723  16.0899  16.1478  16.1747  16.2696  16.3381
    16.4089  16.5078  16.6709  16.7739  16.9230  17.2327  17.2954  17.3563
    17.4250  17.5306  17.8790  17.9833  18.0874  18.4304  18.6037  19.2067
    19.3743  19.8086  19.9533  20.2292  20.4076  20.5110  21.0598  21.2372
    21.3641  21.4577  21.7067  21.8535  21.9500  21.9548  22.1910  22.2707
    22.3439  22.4412  22.5651  22.6154  22.9371  23.3828  23.9271  24.3193
    24.6823

          k =-0.5000 0.1179 0.0000 ( 17794 PWs)   bands (ev):

     1.6698   1.6732   1.8344   2.6200   2.7956   2.9232   2.9535   2.9919
     3.9822   4.6563   4.7017   4.8548   4.9296   6.2128   6.4423   6.5018
     6.5467   7.7147   8.8912   8.9128   9.4124   9.7654  10.1503  10.3709
    10.4788  10.5615  10.6897  10.7028  10.7232  10.7511  10.8455  10.8533
    10.9026  10.9259  10.9745  11.0973  11.1089  11.1164  11.1792  11.2846
    11.3703  11.4245  11.5822  11.7319  11.8895  11.9319  12.0179  12.0672
    12.1581  12.2194  12.2829  12.3045  12.3529  12.3689  12.4295  12.4434
    12.4870  12.5008  12.5770  12.6377  12.7128  12.7324  12.7462  12.8133
    12.8829  12.9293  12.9817  13.0195  13.0903  13.1299  13.1359  13.1822
    13.1971  13.2339  13.2612  13.2794  13.3091  13.3176  13.3368  13.3556
    13.4289  13.4476  13.4743  13.5353  13.5534  13.5674  13.5683  13.6316
    13.6556  13.7690  13.7856  13.7967  13.8509  13.8572  13.9706  13.9919
    14.0896  14.1305  14.1545  14.1921  14.2768  14.2797  14.3014  14.4609
    14.4894  14.5188  14.5909  14.5959  14.6260  14.6590  14.7154  14.7695
    14.7938  14.8901  14.9470  15.0030  15.0718  15.1599  15.1940  15.2500
    15.3108  15.3252  15.3496  15.3649  15.4421  15.5355  15.5535  15.5848
    15.6484  15.6493  15.6856  15.7136  15.7397  15.7989  15.8160  15.8479
    15.9509  15.9867  16.0036  16.0453  16.1234  16.2318  16.3263  16.5383
    16.5992  16.6192  16.6904  16.9130  17.1285  17.1853  17.3296  17.4083
    17.6135  17.6287  17.6991  17.9372  18.0910  18.3183  18.3670  19.1020
    19.1626  19.5815  19.8295  19.8313  19.8770  20.5816  21.2283  21.5562
    21.9034  21.9208  22.0578  22.0688  22.1011  22.2001  22.3423  22.3429
    22.6032  22.9348  22.9930  23.2645  23.4203  23.4639  24.4796  25.0535
    25.1962

          k =-0.5000 0.1768 0.0000 ( 17756 PWs)   bands (ev):

     1.6828   1.7154   1.9351   2.5581   2.7898   2.8078   2.8911   2.9787
     4.1840   4.7479   4.8055   4.8206   4.9349   6.1907   6.4836   6.6112
     6.6432   7.1726   8.6661   9.1191   9.4382   9.9323  10.3095  10.5449
    10.5909  10.6183  10.6555  10.7226  10.7990  10.8477  10.8918  10.9664
    11.0056  11.0656  11.0923  11.0968  11.1332  11.2401  11.2993  11.3458
    11.4093  11.4856  11.6510  11.6907  11.9120  11.9301  12.0405  12.0918
    12.1142  12.2389  12.3117  12.3193  12.3477  12.3724  12.4570  12.4805
    12.5202  12.5358  12.5837  12.6452  12.7033  12.7172  12.7508  12.8508
    12.8862  12.8980  12.9377  13.0538  13.0572  13.0940  13.0962  13.1387
    13.1662  13.1964  13.1991  13.2325  13.2986  13.2994  13.3255  13.3402
    13.4072  13.4107  13.4363  13.4884  13.4965  13.5549  13.5664  13.5864
    13.6264  13.6688  13.6689  13.7891  13.8161  13.8861  13.9381  13.9441
    14.0073  14.0111  14.1051  14.2015  14.2017  14.2464  14.2629  14.3491
    14.3537  14.4903  14.4937  14.5540  14.5575  14.6207  14.6254  14.6823
    14.7087  14.7524  14.8168  14.8360  14.8375  14.8665  14.9579  15.0368
    15.1041  15.1785  15.1926  15.3094  15.3349  15.3423  15.4334  15.4490
    15.5250  15.5507  15.6663  15.6972  15.7109  15.7277  15.7938  15.8204
    15.8353  15.8469  15.9001  16.0605  16.1880  16.2264  16.4924  16.5002
    16.7694  16.8680  16.8830  16.9709  17.0888  17.1008  17.2503  17.3944
    17.4675  17.7191  17.8839  17.9578  18.2408  18.3626  18.5532  18.7129
    18.7544  19.0486  19.3025  19.8672  20.5801  20.6288  21.0845  21.3458
    21.5918  21.8152  22.2371  22.4682  22.6729  22.8622  22.9061  23.0573
    23.2457  23.4868  23.9028  24.0004  24.1731  24.3649  24.5123  24.6419
    25.0302

          k =-0.5000 0.2357 0.0000 ( 17778 PWs)   bands (ev):

     1.7106   1.7549   2.0575   2.5117   2.6556   2.6671   2.9243   3.0123
     4.3645   4.7754   4.8003   4.9319   5.0195   6.1648   6.4165   6.6708
     6.8066   6.8217   8.4534   9.1724   9.3966  10.1107  10.5013  10.5227
    10.6459  10.6648  10.7610  10.7895  10.8381  10.9630  10.9657  11.0137
    11.0302  11.1784  11.2357  11.2842  11.3100  11.3868  11.4418  11.4524
    11.5429  11.5604  11.6879  11.7268  11.7823  11.9361  11.9718  12.1097
    12.1302  12.1753  12.3167  12.3916  12.4090  12.4649  12.4683  12.5542
    12.5546  12.5996  12.6035  12.6282  12.6784  12.7210  12.7775  12.8153
    12.8796  12.9285  12.9389  12.9658  12.9747  13.0584  13.1023  13.1215
    13.1254  13.1401  13.1628  13.2003  13.2589  13.2695  13.2799  13.3048
    13.3234  13.3996  13.4142  13.4724  13.4996  13.5240  13.5512  13.5553
    13.5609  13.6358  13.7134  13.7467  13.8009  13.8222  13.8665  13.8868
    13.8965  13.9862  13.9886  14.0220  14.1065  14.1351  14.1725  14.2009
    14.2653  14.2701  14.2887  14.3370  14.4096  14.4707  14.5064  14.5367
    14.6117  14.6187  14.7104  14.7840  14.7959  14.8362  14.8586  14.8942
    14.9107  15.0114  15.0573  15.1310  15.1595  15.2513  15.2565  15.4155
    15.4929  15.5476  15.6081  15.6423  15.6795  15.6976  15.7376  15.7608
    15.7632  15.8376  15.9442  16.1141  16.1728  16.3661  16.3698  16.6283
    16.6332  16.8795  17.0513  17.0563  17.0890  17.1509  17.2897  17.3138
    17.5925  17.6540  17.8039  18.1309  18.3576  18.3764  18.4575  18.5788
    18.7851  18.8584  19.1037  19.9163  20.3908  20.5829  20.9379  21.0860
    21.6451  22.4824  22.5449  22.6596  22.7835  23.5876  23.8466  23.9083
    23.9460  24.0311  24.1294  24.3194  24.4604  24.6868  25.0657  25.0812
    25.5447

          k =-0.5000 0.2946 0.0000 ( 17762 PWs)   bands (ev):

     1.7445   1.7764   2.1984   2.4872   2.5123   2.5495   2.9708   3.0211
     4.5139   4.7140   4.8500   4.9177   5.3019   6.0106   6.3550   6.3579
     6.9683   7.0110   8.3374   8.7688   9.7308  10.2726  10.4336  10.4623
    10.6869  10.7267  10.8974  10.9055  10.9416  10.9494  11.0553  11.0769
    11.0877  11.2370  11.3811  11.4564  11.4579  11.4915  11.5230  11.5557
    11.5710  11.6298  11.6308  11.8280  11.8504  11.9061  11.9961  12.0140
    12.1395  12.1555  12.2644  12.4356  12.4937  12.5265  12.5287  12.6059
    12.6100  12.6190  12.7083  12.7343  12.7458  12.7548  12.7692  12.7922
    12.8201  12.8287  12.9026  12.9567  12.9692  13.0182  13.0242  13.0779
    13.0834  13.1058  13.1070  13.1752  13.2050  13.2328  13.2599  13.2643
    13.3044  13.3533  13.4281  13.4284  13.5055  13.5158  13.5347  13.5561
    13.5646  13.5769  13.6122  13.6697  13.6982  13.7022  13.7248  13.7402
    13.8454  13.9219  13.9331  13.9636  14.0463  14.0607  14.0691  14.0877
    14.1306  14.1432  14.2120  14.2747  14.2933  14.2992  14.3580  14.4011
    14.4673  14.5870  14.6520  14.6746  14.7170  14.7772  14.8306  14.8602
    14.9004  14.9325  15.0179  15.0317  15.1245  15.1360  15.2725  15.2852
    15.3278  15.4712  15.5900  15.6005  15.6725  15.6725  15.7056  15.7253
    15.8472  15.9124  16.0966  16.1321  16.2138  16.2367  16.4053  16.5391
    16.6316  16.7691  16.9258  16.9753  17.2020  17.3913  17.4390  17.5080
    17.6027  17.8231  17.8941  17.9700  18.0528  18.1030  18.1991  18.4757
    19.0370  19.2473  19.6467  19.9827  20.0965  20.1995  20.3368  20.6499
    22.7028  22.7717  22.9230  22.9606  23.4284  23.5525  23.6842  23.7263
    23.8857  24.4514  25.0664  25.1295  25.2412  25.3568  25.4300  26.0426
    26.1086

          k =-0.5000-0.3536 0.0000 ( 17712 PWs)   bands (ev):

     1.7713   1.7713   2.3525   2.3525   2.4953   2.4953   3.0059   3.0059
     4.6292   4.6292   4.8903   4.8903   5.6487   5.6487   6.3215   6.3215
     7.0667   7.0667   8.4399   8.4399  10.0941  10.0941  10.3917  10.3917
    10.7908  10.7908  10.8747  10.8747  10.9690  10.9690  11.1481  11.1481
    11.2518  11.2519  11.3355  11.3355  11.4954  11.4954  11.5748  11.5748
    11.6888  11.6888  11.7851  11.7851  11.8292  11.8292  12.0566  12.0566
    12.1545  12.1545  12.2750  12.2750  12.5798  12.5798  12.6108  12.6108
    12.6709  12.6709  12.7076  12.7076  12.7600  12.7600  12.7946  12.7946
    12.8389  12.8389  12.9396  12.9396  12.9667  12.9667  13.0543  13.0543
    13.0883  13.0883  13.1585  13.1585  13.1858  13.1858  13.2050  13.2050
    13.2682  13.2682  13.3491  13.3491  13.4319  13.4319  13.4839  13.4839
    13.5941  13.5941  13.6440  13.6440  13.6786  13.6786  13.7525  13.7525
    13.8025  13.8025  13.9566  13.9566  13.9836  13.9836  14.0893  14.0893
    14.1273  14.1273  14.2216  14.2216  14.2623  14.2623  14.3133  14.3133
    14.4545  14.4545  14.6302  14.6302  14.7057  14.7057  14.8225  14.8225
    14.9211  14.9211  15.0295  15.0295  15.1598  15.1598  15.1986  15.1986
    15.3492  15.3492  15.6004  15.6004  15.6472  15.6472  15.7026  15.7026
    16.0233  16.0233  16.0473  16.0473  16.2390  16.2390  16.4153  16.4153
    16.7277  16.7277  16.8808  16.8808  17.3025  17.3025  17.7149  17.7149
    17.7437  17.7437  17.8747  17.8747  17.9960  17.9960  18.1311  18.1311
    19.5926  19.5926  19.7565  19.7565  20.0678  20.0678  20.1719  20.1719
    23.0272  23.0272  23.1869  23.1869  23.3132  23.3132  23.8753  23.8753
    24.2514  24.2514  24.9721  24.9721  26.2236  26.2239  26.2483  26.2487
    26.3986

     the Fermi energy is    18.0264 ev

!    total energy              =  -21691.70844829 Ry

     total all-electron energy =  -1064659.398998 Ry
     estimated scf accuracy    <       0.00000035 Ry
     smearing contrib. (-TS)   =      -0.02565813 Ry
     internal energy E=F+TS    =  -21691.68279015 Ry

     The total energy is F=E-TS. E is the sum of the following terms:
     one-electron contribution =      61.95118970 Ry
     hartree contribution      =     391.61205678 Ry
     xc contribution           =    -907.03002492 Ry
     ewald contribution        =   -1844.66070448 Ry
     one-center paw contrib.   =  -19393.55530724 Ry

     convergence has been achieved in  20 iterations

     Forces acting on atoms (cartesian axes, Ry/au):

     atom    1 type  1   force =    -0.75770861   -0.00000151    4.72037219
     atom    2 type  1   force =    -0.75770861    0.00000151    4.72037219
     atom    3 type  1   force =    -2.07800340    0.00000000    4.90818967
     atom    4 type  1   force =    -2.07800478    0.00000000    4.90819500
     atom    5 type  1   force =     0.01141390    0.00000736    0.03524617
     atom    6 type  1   force =     0.01141390   -0.00000736    0.03524617
     atom    7 type  1   force =    -0.00218203    0.00000000    0.00600506
     atom    8 type  1   force =    -0.00218409    0.00000000    0.00599926
     atom    9 type  1   force =    -0.00105711    0.00000109    0.00088686
     atom   10 type  1   force =    -0.00105711   -0.00000109    0.00088686
     atom   11 type  1   force =     0.00069683    0.00000000   -0.00007904
     atom   12 type  1   force =     0.00069387    0.00000000   -0.00007902
     atom   13 type  1   force =    -0.01184449    0.00000080    0.00291052
     atom   14 type  1   force =    -0.01184449   -0.00000080    0.00291052
     atom   15 type  1   force =     0.13349584    0.00000000   -0.10226558
     atom   16 type  1   force =     0.13349620    0.00000000   -0.10226421
     atom   17 type  1   force =    -0.13401273    0.00000651    0.10206862
     atom   18 type  1   force =    -0.13401273   -0.00000651    0.10206862
     atom   19 type  1   force =     0.01333187    0.00000000   -0.00457726
     atom   20 type  1   force =     0.01333185    0.00000000   -0.00457997
     atom   21 type  1   force =     0.00185204    0.00000274   -0.00502214
     atom   22 type  1   force =     0.00185204   -0.00000274   -0.00502214
     atom   23 type  1   force =    -0.01154130    0.00000000   -0.03499545
     atom   24 type  1   force =    -0.01154163    0.00000000   -0.03500188
     atom   25 type  1   force =     2.07737040   -0.00000538   -4.90838554
     atom   26 type  1   force =     2.07737040    0.00000538   -4.90838554
     atom   27 type  1   force =     0.75819511    0.00000000   -4.72034886
     atom   28 type  1   force =     0.75818883    0.00000000   -4.72035106

     Total force =    14.324006     Total SCF correction =     0.001435

     Writing all to output data dir ./pwscf.save/
 
     init_run     :     15.00s CPU     15.43s WALL (       1 calls)
     electrons    :    820.51s CPU    828.21s WALL (       1 calls)
     forces       :      6.56s CPU      6.61s WALL (       1 calls)

     Called by init_run:
     wfcinit      :     14.30s CPU     14.63s WALL (       1 calls)
     potinit      :      0.40s CPU      0.45s WALL (       1 calls)
     hinit0       :      0.15s CPU      0.17s WALL (       1 calls)

     Called by electrons:
     c_bands      :    740.64s CPU    747.54s WALL (      20 calls)
     sum_band     :     72.45s CPU     73.08s WALL (      20 calls)
     v_of_rho     :      0.47s CPU      0.53s WALL (      21 calls)
     newd         :      0.71s CPU      0.81s WALL (      21 calls)
     PAW_pot      :      6.54s CPU      6.56s WALL (      21 calls)
     mix_rho      :      0.08s CPU      0.09s WALL (      20 calls)

     Called by c_bands:
     init_us_2    :      4.09s CPU      4.12s WALL (    1470 calls)
     init_us_2:cp :      4.08s CPU      4.11s WALL (    1470 calls)
     cegterg      :    707.54s CPU    714.16s WALL (     700 calls)

     Called by *egterg:
     cdiaghg      :     78.72s CPU     79.40s WALL (    3637 calls)
     h_psi        :    339.44s CPU    343.02s WALL (    3672 calls)
     s_psi        :     68.47s CPU     68.80s WALL (    3672 calls)
     g_psi        :      1.08s CPU      1.09s WALL (    2937 calls)

     Called by h_psi:
     h_psi:calbec :     75.86s CPU     76.10s WALL (    3672 calls)
     vloc_psi     :    189.61s CPU    191.81s WALL (    3672 calls)
     add_vuspsi   :     72.78s CPU     73.01s WALL (    3672 calls)

     General routines
     calbec       :    108.65s CPU    109.00s WALL (    4512 calls)
     fft          :      0.47s CPU      0.59s WALL (     242 calls)
     ffts         :      0.02s CPU      0.02s WALL (      20 calls)
     fftw         :    209.04s CPU    211.22s WALL (  787700 calls)
 
     Parallel routines
 
     PWSCF        :  14m 9.33s CPU  14m26.89s WALL

 
   This run was terminated on:   8:55:41   2Mar2024            

=------------------------------------------------------------------------------=
   JOB DONE.
=------------------------------------------------------------------------------=
