MPI startup(): Warning: I_MPI_PMI_LIBRARY will be ignored since the hydra process manager was found
MPI startup(): Warning: I_MPI_PMI_LIBRARY will be ignored since the hydra process manager was found
MPI startup(): Warning: I_MPI_PMI_LIBRARY will be ignored since the hydra process manager was found
MPI startup(): Warning: I_MPI_PMI_LIBRARY will be ignored since the hydra process manager was found
MPI startup(): Warning: I_MPI_PMI_LIBRARY will be ignored since the hydra process manager was found
MPI startup(): Warning: I_MPI_PMI_LIBRARY will be ignored since the hydra process manager was found
MPI startup(): Warning: I_MPI_PMI_LIBRARY will be ignored since the hydra process manager was found
MPI startup(): Warning: I_MPI_PMI_LIBRARY will be ignored since the hydra process manager was found
MPI startup(): Warning: I_MPI_PMI_LIBRARY will be ignored since the hydra process manager was found
MPI startup(): Warning: I_MPI_PMI_LIBRARY will be ignored since the hydra process manager was found

     Program PWSCF v.7.0 starts on  2Mar2024 at  8:11:48 

     This program is part of the open-source Quantum ESPRESSO suite
     for quantum simulation of materials; please cite
         "P. Giannozzi et al., J. Phys.:Condens. Matter 21 395502 (2009);
         "P. Giannozzi et al., J. Phys.:Condens. Matter 29 465901 (2017);
         "P. Giannozzi et al., J. Chem. Phys. 152 154105 (2020);
          URL http://www.quantum-espresso.org", 
     in publications or presentations arising from this work. More details at
     http://www.quantum-espresso.org/quote

     Parallel version (MPI), running on    10 processors

     MPI processes distributed on     1 nodes
     R & G space division:  proc/nbgrp/npool/nimage =      10
     115264 MiB available memory on the printing compute node when the environment starts
 
     Reading input from GSF110_0.05.in
Warning: card &CELL ignored
Warning: card / ignored

     Current dimensions of program PWSCF are:
     Max number of different atomic species (ntypx) = 10
     Max number of k-points (npk) =  40000
     Max angular momentum in pseudopotentials (lmaxx) =  4

     File ./pwscf.bfgs deleted, as requested
     file Au.pbe-n-kjpaw_psl.1.0.0.UPF: wavefunction(s)  6S 5D renormalized
     Found identity + (  0.0000 -0.5000  0.0000) symmetry
     This is a supercell, fractional translations are disabled
     Message from routine setup:
     using ibrav=0 with symmetry is DISCOURAGED, use correct ibrav instead

     Subspace diagonalization in iterative solution of the eigenvalue problem:
     one sub-group per band group will be used
     scalapack distributed-memory algorithm (size of sub-group:  3*  3 procs)

 
     Parallelization info
     --------------------
     sticks:   dense  smooth     PW     G-vecs:    dense   smooth      PW
     Min         133     133     38                14227    14227    2178
     Max         134     134     39                14242    14242    2183
     Sum        1339    1339    389               142317   142317   21821
 
     Using Slab Decomposition
 


     bravais-lattice index     =            0
     lattice parameter (alat)  =       7.7101  a.u.
     unit-cell volume          =    2979.1368 (a.u.)^3
     number of atoms/cell      =           28
     number of atomic types    =            1
     number of electrons       =       308.00
     number of Kohn-Sham states=          185
     kinetic-energy cutoff     =      50.0000  Ry
     charge density cutoff     =     200.0000  Ry
     scf convergence threshold =      1.0E-06
     mixing beta               =       0.1000
     number of iterations used =            8  plain     mixing
     Exchange-correlation= SLA  PW   PBX  PBC
                           (   1   4   3   4   0   0   0)

     celldm(1)=   7.710083  celldm(2)=   0.000000  celldm(3)=   0.000000
     celldm(4)=   0.000000  celldm(5)=   0.000000  celldm(6)=   0.000000

     crystal axes: (cart. coord. in units of alat)
               a(1) = (   1.000000   0.000000   0.000000 )  
               a(2) = (   0.000000   1.414214   0.000000 )  
               a(3) = (   0.000000   0.000000   4.596194 )  

     reciprocal axes: (cart. coord. in units 2 pi/alat)
               b(1) = (  1.000000  0.000000  0.000000 )  
               b(2) = (  0.000000  0.707107  0.000000 )  
               b(3) = (  0.000000  0.000000  0.217571 )  


     PseudoPot. # 1 for Au read from file:
     ./Au.pbe-n-kjpaw_psl.1.0.0.UPF
     MD5 check sum: 4db85c736373c707a97ce4c36c2a9d23
     Pseudo is Projector augmented-wave + core cor, Zval = 11.0
     Generated using &quot;atomic&quot; code by A. Dal Corso  v.6.3
     Shape of augmentation charge: PSQ
     Using radial grid of 1279 points,  6 beta functions with: 
                l(1) =   0
                l(2) =   0
                l(3) =   1
                l(4) =   1
                l(5) =   2
                l(6) =   2
     Q(r) pseudized with 0 coefficients 


     atomic species   valence    mass     pseudopotential
        Au            11.00   196.96657     Au( 1.00)

      2 Sym. Ops. (no inversion) found



   Cartesian axes

     site n.     atom                  positions (alat units)
         1           Au  tau(   1) = (   0.5000000   0.3535534   0.0000000  )
         2           Au  tau(   2) = (   0.5000000   1.0606602   0.0000000  )
         3           Au  tau(   3) = (   0.0000000   0.0000000   0.3535534  )
         4           Au  tau(   4) = (   0.0000000   0.7071068   0.3535534  )
         5           Au  tau(   5) = (   0.5000000   0.3535534   0.7071068  )
         6           Au  tau(   6) = (   0.5000000   1.0606602   0.7071068  )
         7           Au  tau(   7) = (   0.0000000   0.0000000   1.0606602  )
         8           Au  tau(   8) = (   0.0000000   0.7071068   1.0606602  )
         9           Au  tau(   9) = (   0.5000000   0.3535534   1.4142136  )
        10           Au  tau(  10) = (   0.5000000   1.0606602   1.4142136  )
        11           Au  tau(  11) = (   0.0000000   0.0000000   1.7677670  )
        12           Au  tau(  12) = (   0.0000000   0.7071068   1.7677670  )
        13           Au  tau(  13) = (   0.5000000   0.3535534   2.1213203  )
        14           Au  tau(  14) = (   0.5000000   1.0606602   2.1213203  )
        15           Au  tau(  15) = (   0.0000000   0.0000000   2.4748737  )
        16           Au  tau(  16) = (   0.0000000   0.7071068   2.4748737  )
        17           Au  tau(  17) = (   0.5500000   0.3535534   2.8284271  )
        18           Au  tau(  18) = (   0.5500000   1.0606602   2.8284271  )
        19           Au  tau(  19) = (   0.0500000   0.0000000   3.1819805  )
        20           Au  tau(  20) = (   0.0500000   0.7071068   3.1819805  )
        21           Au  tau(  21) = (   0.5500000   0.3535534   3.5355339  )
        22           Au  tau(  22) = (   0.5500000   1.0606602   3.5355339  )
        23           Au  tau(  23) = (   0.0500000   0.0000000   3.8890873  )
        24           Au  tau(  24) = (   0.0500000   0.7071068   3.8890873  )
        25           Au  tau(  25) = (   0.5500000   0.3535534   4.2426407  )
        26           Au  tau(  26) = (   0.5500000   1.0606602   4.2426407  )
        27           Au  tau(  27) = (   0.0500000   0.0000000   4.5961941  )
        28           Au  tau(  28) = (   0.0500000   0.7071068   4.5961941  )

     number of k points=    35  Gaussian smearing, width (Ry)=  0.0200
                       cart. coord. in units 2pi/alat
        k(    1) = (   0.0000000   0.0000000   0.0000000), wk =   0.0208333
        k(    2) = (   0.0000000   0.0589256   0.0000000), wk =   0.0416667
        k(    3) = (   0.0000000   0.1178511   0.0000000), wk =   0.0416667
        k(    4) = (   0.0000000   0.1767767   0.0000000), wk =   0.0416667
        k(    5) = (   0.0000000   0.2357023   0.0000000), wk =   0.0416667
        k(    6) = (   0.0000000   0.2946278   0.0000000), wk =   0.0416667
        k(    7) = (   0.0000000  -0.3535534   0.0000000), wk =   0.0208333
        k(    8) = (   0.1250000   0.0000000   0.0000000), wk =   0.0416667
        k(    9) = (   0.1250000   0.0589256   0.0000000), wk =   0.0833333
        k(   10) = (   0.1250000   0.1178511   0.0000000), wk =   0.0833333
        k(   11) = (   0.1250000   0.1767767   0.0000000), wk =   0.0833333
        k(   12) = (   0.1250000   0.2357023   0.0000000), wk =   0.0833333
        k(   13) = (   0.1250000   0.2946278   0.0000000), wk =   0.0833333
        k(   14) = (   0.1250000  -0.3535534   0.0000000), wk =   0.0416667
        k(   15) = (   0.2500000   0.0000000   0.0000000), wk =   0.0416667
        k(   16) = (   0.2500000   0.0589256   0.0000000), wk =   0.0833333
        k(   17) = (   0.2500000   0.1178511   0.0000000), wk =   0.0833333
        k(   18) = (   0.2500000   0.1767767   0.0000000), wk =   0.0833333
        k(   19) = (   0.2500000   0.2357023   0.0000000), wk =   0.0833333
        k(   20) = (   0.2500000   0.2946278   0.0000000), wk =   0.0833333
        k(   21) = (   0.2500000  -0.3535534   0.0000000), wk =   0.0416667
        k(   22) = (   0.3750000   0.0000000   0.0000000), wk =   0.0416667
        k(   23) = (   0.3750000   0.0589256   0.0000000), wk =   0.0833333
        k(   24) = (   0.3750000   0.1178511   0.0000000), wk =   0.0833333
        k(   25) = (   0.3750000   0.1767767   0.0000000), wk =   0.0833333
        k(   26) = (   0.3750000   0.2357023   0.0000000), wk =   0.0833333
        k(   27) = (   0.3750000   0.2946278   0.0000000), wk =   0.0833333
        k(   28) = (   0.3750000  -0.3535534   0.0000000), wk =   0.0416667
        k(   29) = (  -0.5000000   0.0000000   0.0000000), wk =   0.0208333
        k(   30) = (  -0.5000000   0.0589256   0.0000000), wk =   0.0416667
        k(   31) = (  -0.5000000   0.1178511   0.0000000), wk =   0.0416667
        k(   32) = (  -0.5000000   0.1767767   0.0000000), wk =   0.0416667
        k(   33) = (  -0.5000000   0.2357023   0.0000000), wk =   0.0416667
        k(   34) = (  -0.5000000   0.2946278   0.0000000), wk =   0.0416667
        k(   35) = (  -0.5000000  -0.3535534   0.0000000), wk =   0.0208333

     Dense  grid:   142317 G-vectors     FFT dimensions: (  36,  50, 160)

     Estimated max dynamical RAM per process >     261.85 MB

     Estimated total dynamical RAM >       2.56 GB

     Initial potential from superposition of free atoms

     starting charge     307.9969, renormalised to     308.0000
     Starting wfcs are  252 randomized atomic wfcs
     Checking if some PAW data can be deallocated... 

     total cpu time spent up to now is       15.8 secs

     Self-consistent Calculation

     iteration #  1     ecut=    50.00 Ry     beta= 0.10
     Davidson diagonalization with overlap
     ethr =  1.00E-02,  avg # of iterations =  4.2

     total cpu time spent up to now is       60.1 secs

     total energy              =  -21681.86005645 Ry
     estimated scf accuracy    <      35.96594856 Ry

     iteration #  2     ecut=    50.00 Ry     beta= 0.10
     Davidson diagonalization with overlap
     ethr =  1.00E-02,  avg # of iterations =  3.1

     total cpu time spent up to now is       96.9 secs

     total energy              =  -21678.32575364 Ry
     estimated scf accuracy    <     481.26309249 Ry

     iteration #  3     ecut=    50.00 Ry     beta= 0.10
     Davidson diagonalization with overlap
     ethr =  1.00E-02,  avg # of iterations =  1.4

     total cpu time spent up to now is      127.4 secs

     total energy              =  -21687.68956261 Ry
     estimated scf accuracy    <       4.02093466 Ry

     iteration #  4     ecut=    50.00 Ry     beta= 0.10
     Davidson diagonalization with overlap
     ethr =  1.31E-03,  avg # of iterations =  5.1

     total cpu time spent up to now is      164.6 secs

     total energy              =  -21687.53504388 Ry
     estimated scf accuracy    <       1.21268238 Ry

     iteration #  5     ecut=    50.00 Ry     beta= 0.10
     Davidson diagonalization with overlap
     ethr =  3.94E-04,  avg # of iterations =  6.6

     total cpu time spent up to now is      209.0 secs

     total energy              =  -21687.64193629 Ry
     estimated scf accuracy    <       0.57469496 Ry

     iteration #  6     ecut=    50.00 Ry     beta= 0.10
     Davidson diagonalization with overlap
     c_bands:  1 eigenvalues not converged
     c_bands:  1 eigenvalues not converged
     ethr =  1.87E-04,  avg # of iterations =  6.8

     total cpu time spent up to now is      250.0 secs

     total energy              =  -21687.68915810 Ry
     estimated scf accuracy    <       0.37608367 Ry

     iteration #  7     ecut=    50.00 Ry     beta= 0.10
     Davidson diagonalization with overlap
     ethr =  1.22E-04,  avg # of iterations =  2.9

     total cpu time spent up to now is      284.2 secs

     total energy              =  -21687.72346799 Ry
     estimated scf accuracy    <       0.05533157 Ry

     iteration #  8     ecut=    50.00 Ry     beta= 0.10
     Davidson diagonalization with overlap
     c_bands:  1 eigenvalues not converged
     c_bands:  2 eigenvalues not converged
     c_bands:  1 eigenvalues not converged
     c_bands:  1 eigenvalues not converged
     c_bands:  1 eigenvalues not converged
     c_bands:  1 eigenvalues not converged
     c_bands:  1 eigenvalues not converged
     c_bands:  2 eigenvalues not converged
     c_bands:  1 eigenvalues not converged
     c_bands:  1 eigenvalues not converged
     c_bands:  1 eigenvalues not converged
     c_bands:  1 eigenvalues not converged
     c_bands:  5 eigenvalues not converged
     ethr =  1.80E-05,  avg # of iterations = 15.5

     total cpu time spent up to now is      365.0 secs

     total energy              =  -21687.74547685 Ry
     estimated scf accuracy    <       0.06599980 Ry

     iteration #  9     ecut=    50.00 Ry     beta= 0.10
     Davidson diagonalization with overlap
     c_bands:  1 eigenvalues not converged
     ethr =  1.80E-05,  avg # of iterations =  2.8

     total cpu time spent up to now is      396.7 secs

     total energy              =  -21687.74480703 Ry
     estimated scf accuracy    <       0.03529960 Ry

     iteration # 10     ecut=    50.00 Ry     beta= 0.10
     Davidson diagonalization with overlap
     ethr =  1.15E-05,  avg # of iterations =  3.0

     total cpu time spent up to now is      432.4 secs

     total energy              =  -21687.74846859 Ry
     estimated scf accuracy    <       0.00371353 Ry

     iteration # 11     ecut=    50.00 Ry     beta= 0.10
     Davidson diagonalization with overlap
     c_bands:  1 eigenvalues not converged
     c_bands:  1 eigenvalues not converged
     c_bands:  1 eigenvalues not converged
     c_bands:  1 eigenvalues not converged
     c_bands:  1 eigenvalues not converged
     c_bands:  2 eigenvalues not converged
     ethr =  1.21E-06,  avg # of iterations = 11.7

     total cpu time spent up to now is      493.1 secs

     total energy              =  -21687.74969257 Ry
     estimated scf accuracy    <       0.00095083 Ry

     iteration # 12     ecut=    50.00 Ry     beta= 0.10
     Davidson diagonalization with overlap
     ethr =  3.09E-07,  avg # of iterations =  3.8

     total cpu time spent up to now is      532.1 secs

     total energy              =  -21687.74975475 Ry
     estimated scf accuracy    <       0.00067097 Ry

     iteration # 13     ecut=    50.00 Ry     beta= 0.10
     Davidson diagonalization with overlap
     ethr =  2.18E-07,  avg # of iterations =  2.0

     total cpu time spent up to now is      568.2 secs

     total energy              =  -21687.74976070 Ry
     estimated scf accuracy    <       0.00013413 Ry

     iteration # 14     ecut=    50.00 Ry     beta= 0.10
     Davidson diagonalization with overlap
     ethr =  4.35E-08,  avg # of iterations =  5.4

     total cpu time spent up to now is      622.1 secs

     total energy              =  -21687.74983051 Ry
     estimated scf accuracy    <       0.00013596 Ry

     iteration # 15     ecut=    50.00 Ry     beta= 0.10
     Davidson diagonalization with overlap
     ethr =  4.35E-08,  avg # of iterations =  2.1

     total cpu time spent up to now is      660.6 secs

     total energy              =  -21687.74984678 Ry
     estimated scf accuracy    <       0.00003864 Ry

     iteration # 16     ecut=    50.00 Ry     beta= 0.10
     Davidson diagonalization with overlap
     ethr =  1.25E-08,  avg # of iterations =  4.1

     total cpu time spent up to now is      706.9 secs

     total energy              =  -21687.74984667 Ry
     estimated scf accuracy    <       0.00001409 Ry

     iteration # 17     ecut=    50.00 Ry     beta= 0.10
     Davidson diagonalization with overlap
     ethr =  4.58E-09,  avg # of iterations =  4.1

     total cpu time spent up to now is      755.2 secs

     total energy              =  -21687.74985189 Ry
     estimated scf accuracy    <       0.00001236 Ry

     iteration # 18     ecut=    50.00 Ry     beta= 0.10
     Davidson diagonalization with overlap
     ethr =  4.01E-09,  avg # of iterations =  1.4

     total cpu time spent up to now is      785.9 secs

     total energy              =  -21687.74985183 Ry
     estimated scf accuracy    <       0.00000603 Ry

     iteration # 19     ecut=    50.00 Ry     beta= 0.10
     Davidson diagonalization with overlap
     ethr =  1.96E-09,  avg # of iterations =  2.5

     total cpu time spent up to now is      820.7 secs

     total energy              =  -21687.74985248 Ry
     estimated scf accuracy    <       0.00000121 Ry

     iteration # 20     ecut=    50.00 Ry     beta= 0.10
     Davidson diagonalization with overlap
     ethr =  3.93E-10,  avg # of iterations =  5.1

     total cpu time spent up to now is      874.1 secs

     End of self-consistent calculation

          k = 0.0000 0.0000 0.0000 ( 17807 PWs)   bands (ev):

     0.0188   0.3561   0.3563   0.3595   1.0940   1.1322   1.1327   1.7383
     1.8194   2.1378   2.6310   2.6317   3.6731   4.5530   5.2571   5.2575
     6.0350   6.5350   6.5354   6.8757   8.4207   8.4547   9.2410   9.7310
     9.7538  10.4171  10.4760  10.4763  10.9214  11.0468  11.0479  11.1445
    11.1606  11.2574  11.2758  11.3277  11.3556  11.4023  11.4700  11.4867
    11.5472  11.5728  11.5916  11.6132  11.6313  11.7341  11.7522  11.7750
    11.8895  11.8995  11.9407  11.9649  12.0683  12.0946  12.1131  12.1171
    12.1843  12.2653  12.3385  12.3502  12.4853  12.5064  12.5336  12.7140
    12.7333  12.7388  12.7466  12.8140  12.8635  12.9422  12.9806  13.0017
    13.1449  13.1476  13.1496  13.2849  13.2986  13.3127  13.4379  13.4413
    13.4691  13.5501  13.5592  13.6956  13.7578  13.7666  13.8993  13.9483
    14.0624  14.0732  14.2534  14.3151  14.3340  14.3490  14.3627  14.4357
    14.5006  14.5133  14.5236  14.5289  14.6404  14.7079  14.7671  14.7880
    14.7933  14.8772  14.9142  14.9175  14.9182  14.9307  15.0038  15.0375
    15.1681  15.1767  15.2073  15.2603  15.2995  15.3346  15.3376  15.5115
    15.5930  15.6010  15.6562  15.6613  15.7155  15.8059  15.8871  15.9468
    15.9498  15.9791  15.9995  16.0385  16.0770  16.1056  16.2279  16.3113
    16.3158  16.3960  16.3988  16.4445  16.5858  16.9174  16.9179  17.0375
    17.0829  17.1083  17.1461  17.1463  17.6450  17.6452  17.7206  17.9253
    17.9273  18.0660  18.0786  18.0819  18.4211  18.4212  18.8579  18.8598
    19.8856  19.9963  20.2444  20.5993  21.3891  21.5165  21.5166  22.4419
    22.7297  23.0661  23.0727  23.0729  23.3499  23.6850  24.2098  24.7559
    24.7587  24.8796  24.8831  25.3780  25.4230  25.4231  25.4805  25.8732
    25.8970

          k = 0.0000 0.0589 0.0000 ( 17795 PWs)   bands (ev):

     0.0252   0.3467   0.3743   0.3835   1.0815   1.0841   1.1900   1.7020
     1.8187   2.1834   2.5126   2.7245   3.6940   4.5510   5.0546   5.4999
     6.0548   6.3096   6.6900   6.9002   8.4579   8.4947   9.1570   9.7647
     9.7900  10.4487  10.4599  10.4607  10.9548  10.9567  11.0366  11.1275
    11.1695  11.1896  11.2293  11.3256  11.3762  11.4240  11.4538  11.4817
    11.5716  11.5737  11.5978  11.6174  11.6232  11.6601  11.7281  11.8017
    11.8457  11.8718  11.9141  11.9220  12.0044  12.1944  12.2073  12.2106
    12.2510  12.2875  12.3290  12.4323  12.4526  12.5670  12.6447  12.7062
    12.7190  12.7491  12.7845  12.7970  12.8264  12.8888  12.9076  13.0075
    13.1263  13.1939  13.2489  13.2615  13.2884  13.2923  13.3327  13.4523
    13.5004  13.5107  13.5725  13.6967  13.7179  13.7815  13.8900  13.9551
    14.0192  14.0922  14.2675  14.3288  14.3436  14.3581  14.3689  14.4665
    14.5107  14.5180  14.5308  14.6416  14.6808  14.7160  14.7311  14.7927
    14.7995  14.8326  14.8613  14.8940  14.9345  14.9485  14.9890  15.0261
    15.1327  15.1764  15.2357  15.2401  15.2843  15.3239  15.3330  15.5243
    15.5696  15.6097  15.6427  15.6541  15.7198  15.7985  15.8243  15.8949
    15.9352  15.9713  15.9753  16.0251  16.0766  16.1157  16.1763  16.2785
    16.3165  16.3399  16.3798  16.4065  16.5791  16.8412  16.8841  16.9417
    17.0326  17.0694  17.1009  17.2213  17.2591  17.3656  17.4542  17.4727
    17.7360  18.0578  18.1998  18.3403  18.6490  18.7886  19.3294  19.3796
    19.9278  20.0224  20.3344  20.6183  21.4232  21.4275  21.8474  22.4617
    22.7635  22.8301  23.0937  23.3459  23.4633  23.6741  24.2297  24.2304
    24.2506  24.6246  25.3793  25.4939  25.5893  25.6121  25.6844  25.7754
    25.8979

          k = 0.0000 0.1179 0.0000 ( 17803 PWs)   bands (ev):

     0.0439   0.3389   0.4052   0.4515   1.0476   1.0577   1.2446   1.6193
     1.8167   2.2916   2.3717   2.7904   3.7589   4.5456   4.8905   5.7823
     6.0197   6.1126   6.7751   6.9739   8.5685   8.6133   8.9258   9.8631
     9.8957  10.0832  10.4663  10.5406  10.7930  10.9612  11.0556  11.1582
    11.1826  11.2380  11.2698  11.3250  11.3986  11.4326  11.4805  11.4906
    11.5276  11.5688  11.6395  11.6443  11.6460  11.6775  11.6854  11.7413
    11.7499  11.8776  11.9205  11.9521  12.1039  12.2216  12.2379  12.2391
    12.3263  12.3426  12.4111  12.4713  12.5504  12.6142  12.6408  12.6448
    12.6824  12.7019  12.7255  12.7392  12.8054  12.8299  13.0006  13.0723
    13.0816  13.1440  13.1952  13.2069  13.3228  13.3872  13.4023  13.4025
    13.4478  13.4968  13.6090  13.6673  13.7422  13.7960  13.8540  13.9626
    14.0444  14.0531  14.3032  14.3144  14.3306  14.3938  14.4247  14.4952
    14.5482  14.5810  14.5954  14.6062  14.6382  14.6679  14.7400  14.7611
    14.7943  14.7971  14.8096  14.9345  14.9811  14.9925  14.9969  15.0201
    15.0730  15.1231  15.1920  15.2208  15.3366  15.3657  15.3665  15.4539
    15.5055  15.5327  15.6047  15.6781  15.6923  15.7042  15.7840  15.8450
    15.8685  15.8903  15.8952  15.9489  16.0479  16.0705  16.0832  16.1181
    16.2349  16.3726  16.3777  16.3986  16.5681  16.5831  16.6719  16.7094
    16.7463  16.7528  16.9148  16.9258  17.0057  17.0213  17.1162  17.6015
    17.7692  17.8551  18.3009  18.5168  19.3190  19.4808  20.0446  20.0869
    20.1440  20.1612  20.5710  20.6783  21.3998  21.5647  22.2663  22.5223
    22.8519  22.8985  23.1435  23.3596  23.4577  23.6326  23.8437  23.8704
    24.2983  24.4717  25.1659  25.2201  25.4096  25.4109  25.5339  25.6877
    25.8967

          k = 0.0000 0.1768 0.0000 ( 17795 PWs)   bands (ev):

     0.0739   0.3242   0.4499   0.5491   1.0258   1.0408   1.2857   1.5185
     1.8143   2.2165   2.4251   2.8283   3.8745   4.5397   4.7629   5.6799
     6.1026   6.2040   6.7971   7.0975   8.5918   8.7486   8.8097   9.4685
    10.0178  10.0640  10.4889  10.6828  10.7448  10.8766  11.0634  11.1936
    11.2085  11.2283  11.2593  11.3137  11.3368  11.3784  11.5066  11.5314
    11.5765  11.6086  11.6184  11.7143  11.7258  11.7348  11.7787  11.8100
    11.8372  11.9584  12.0011  12.0141  12.1691  12.1873  12.2246  12.2965
    12.3674  12.3881  12.4108  12.5138  12.5269  12.5475  12.5979  12.6207
    12.6224  12.6602  12.6939  12.7183  12.7614  12.7926  12.8948  13.0202
    13.0977  13.1231  13.1828  13.2460  13.2726  13.3088  13.3758  13.5510
    13.5551  13.5919  13.6068  13.6771  13.8084  13.8379  13.8835  13.8957
    13.9032  14.1775  14.2806  14.2852  14.3178  14.3834  14.3949  14.4441
    14.4800  14.5355  14.5460  14.6041  14.6195  14.6244  14.7140  14.7859
    14.7977  14.8116  14.8640  14.8834  14.9303  15.0012  15.0235  15.0292
    15.0373  15.0874  15.1523  15.2155  15.2807  15.3263  15.3318  15.3563
    15.4404  15.4662  15.5565  15.6273  15.6648  15.6959  15.6974  15.7081
    15.7779  15.8001  15.8107  15.8889  15.9435  15.9893  16.0477  16.0679
    16.1191  16.1801  16.1955  16.2631  16.2958  16.3848  16.3973  16.3990
    16.5496  16.5809  16.8578  16.8765  16.9139  17.0119  17.1477  17.6951
    17.7156  17.8128  18.2663  18.9206  20.0575  20.1411  20.1994  20.2281
    20.5796  20.8515  20.9388  21.0823  21.4605  21.8399  22.3561  22.6238
    22.8292  22.9408  22.9750  23.1366  23.3887  23.6203  23.9785  24.0129
    24.4001  24.5706  24.8192  24.8538  25.0232  25.3924  25.3998  25.5801
    25.6313

          k = 0.0000 0.2357 0.0000 ( 17822 PWs)   bands (ev):

     0.1135   0.2969   0.5065   0.6404   1.0174   1.0668   1.2997   1.4114
     1.8142   2.0627   2.5594   2.8374   4.0494   4.5373   4.6686   5.3116
     6.3204   6.4552   6.7670   7.2675   8.2120   8.8852   8.9920   9.0746
    10.2146  10.2822  10.3407  10.6322  10.6354  10.8487  11.0093  11.0577
    11.1891  11.3097  11.3131  11.3431  11.3740  11.4646  11.4903  11.6222
    11.6824  11.7168  11.7368  11.7930  11.8160  11.8248  11.8414  11.9202
    11.9323  11.9990  12.0956  12.1133  12.1253  12.1561  12.1908  12.2429
    12.3473  12.3513  12.3680  12.4677  12.4902  12.5103  12.5137  12.5165
    12.6395  12.7030  12.7105  12.7415  12.7587  12.8994  12.9037  12.9411
    12.9522  13.0149  13.2746  13.2948  13.3269  13.3970  13.4156  13.5383
    13.6040  13.6356  13.6637  13.7374  13.7399  13.8498  13.8756  13.9066
    13.9748  14.1696  14.1851  14.2063  14.2223  14.3331  14.3386  14.3724
    14.4084  14.4101  14.4490  14.5165  14.6157  14.6350  14.7141  14.7261
    14.7595  14.7801  14.8619  14.8682  14.9202  14.9215  14.9714  14.9904
    15.0438  15.0797  15.1003  15.1101  15.1577  15.1740  15.2234  15.2537
    15.2890  15.2925  15.3758  15.3839  15.5114  15.6114  15.6619  15.7301
    15.7532  15.7651  15.7778  15.8046  15.8270  15.8641  15.9246  15.9403
    16.0675  16.0834  16.0949  16.3101  16.3518  16.3735  16.3800  16.3958
    16.5168  16.5995  16.8060  16.8091  16.8847  17.0123  17.1943  17.5622
    17.8210  17.8610  18.3290  19.3920  20.0562  20.4575  20.5509  20.7977
    20.8771  20.9958  21.4683  21.6657  22.0056  22.0319  22.2487  22.4376
    22.7576  22.8754  22.8869  23.1651  23.1803  23.8327  23.9317  24.3960
    24.5343  24.6361  24.6993  24.7587  24.8054  24.9385  25.2924  25.2966
    25.3250

          k = 0.0000 0.2946 0.0000 ( 17818 PWs)   bands (ev):

     0.1599   0.2570   0.5703   0.6683   1.0767   1.1245   1.2681   1.3052
     1.8234   1.9354   2.6757   2.8161   4.2896   4.5437   4.6037   4.9402
     6.4491   6.6750   6.8520   7.4220   7.8894   8.3837   9.2894   9.4027
     9.9904  10.2000  10.4326  10.5312  10.7068  10.8850  10.9377  11.0025
    11.1756  11.2978  11.3417  11.4198  11.4929  11.5701  11.5910  11.6207
    11.7362  11.8015  11.8427  11.8623  11.8844  11.9009  11.9430  11.9606
    12.0042  12.0271  12.1063  12.1161  12.1191  12.1564  12.1812  12.2135
    12.2192  12.2967  12.2995  12.3807  12.4201  12.4377  12.5181  12.5283
    12.6354  12.6811  12.6935  12.7535  12.7625  12.8821  12.9165  13.0448
    13.1339  13.1673  13.1903  13.3508  13.3538  13.4167  13.4189  13.5529
    13.6401  13.7093  13.7464  13.7879  13.8365  13.8482  13.8818  13.9181
    13.9404  14.0525  14.0764  14.1455  14.2112  14.2195  14.2590  14.2823
    14.3426  14.3482  14.3710  14.4712  14.5278  14.5363  14.5642  14.5965
    14.6237  14.6425  14.7167  14.7455  14.8397  14.8602  14.8999  14.9407
    14.9846  15.0061  15.0154  15.0587  15.1101  15.1583  15.2243  15.2249
    15.2628  15.2902  15.3313  15.4420  15.4602  15.4703  15.5152  15.5240
    15.5639  15.6799  15.6900  15.7680  15.7894  15.8133  15.9028  16.0599
    16.0933  16.1629  16.2249  16.3340  16.3677  16.3905  16.4081  16.5131
    16.5292  16.5911  16.7010  16.7068  16.9667  17.0193  17.2581  17.4441
    17.9051  17.9137  18.6242  19.6925  19.9388  20.6330  20.7243  20.8773
    21.1637  21.2867  21.5644  21.7793  22.3466  22.6118  22.6264  22.6518
    22.7738  22.8288  22.8794  22.9605  23.2004  23.4172  23.9137  24.1907
    24.2149  24.4875  24.7389  24.8792  24.9496  25.1337  25.1730  25.2574
    25.3314

          k = 0.0000-0.3536 0.0000 ( 17844 PWs)   bands (ev):

     0.2094   0.2094   0.6315   0.6315   1.1829   1.1829   1.2068   1.2068
     1.8570   1.8570   2.7625   2.7625   4.5619   4.5619   4.5937   4.5937
     6.5742   6.5742   7.2252   7.2252   7.9949   7.9949   9.6282   9.6283
     9.7827   9.7827  10.6437  10.6437  10.7838  10.7838  10.8630  10.8630
    11.2871  11.2871  11.4462  11.4462  11.5357  11.5357  11.5994  11.5994
    11.7875  11.7875  11.8815  11.8815  11.9826  11.9826  12.0047  12.0047
    12.0191  12.0191  12.0353  12.0353  12.1131  12.1131  12.2211  12.2211
    12.2515  12.2515  12.3091  12.3091  12.4439  12.4439  12.4764  12.4764
    12.5455  12.5455  12.8129  12.8129  12.8914  12.8914  12.9376  12.9376
    13.2415  13.2415  13.2486  13.2486  13.4259  13.4259  13.4914  13.4914
    13.7107  13.7107  13.7676  13.7676  13.9163  13.9163  13.9917  13.9917
    14.0011  14.0011  14.0527  14.0528  14.0943  14.0943  14.2466  14.2466
    14.2536  14.2536  14.3501  14.3501  14.3805  14.3805  14.5431  14.5431
    14.5560  14.5560  14.7480  14.7480  14.8149  14.8149  14.8969  14.8969
    14.9211  14.9211  15.0936  15.0936  15.1284  15.1284  15.2701  15.2701
    15.3042  15.3042  15.3667  15.3667  15.4006  15.4006  15.5185  15.5185
    15.5489  15.5489  15.6715  15.6715  15.7765  15.7765  16.0232  16.0232
    16.1193  16.1193  16.3609  16.3609  16.3879  16.3879  16.4890  16.4890
    16.5632  16.5632  16.6351  16.6351  17.0145  17.0145  17.3415  17.3415
    17.9315  17.9315  19.1543  19.1543  20.5604  20.5604  20.7582  20.7583
    21.0067  21.0067  22.2217  22.2217  22.2437  22.2437  22.8224  22.8224
    23.0605  23.0605  23.0708  23.0708  23.1311  23.1311  23.5158  23.5158
    24.6218  24.6218  24.7694  24.7695  24.9962  24.9962  25.1783  25.1784
    25.4307

          k = 0.1250 0.0000 0.0000 ( 17777 PWs)   bands (ev):

     0.0581   0.2941   0.2943   0.4749   1.1108   1.1817   1.1821   1.7266
     1.7282   2.1753   2.5826   2.5834   3.7734   4.6920   5.0381   5.0384
     6.1310   6.8040   6.8905   6.8908   8.5756   8.6337   9.0798   9.7819
     9.8797  10.3997  10.5148  10.5152  10.8564  11.1498  11.1534  11.1546
    11.2161  11.2994  11.3165  11.3271  11.3905  11.4055  11.4827  11.5216
    11.5296  11.5379  11.5934  11.6012  11.6291  11.7001  11.7243  11.7343
    11.7607  11.7688  11.8016  11.8261  11.8432  11.8915  12.1530  12.1536
    12.1583  12.1954  12.5468  12.5479  12.6074  12.6640  12.7382  12.7398
    12.9017  12.9489  13.0518  13.0560  13.1176  13.1204  13.1239  13.1746
    13.2132  13.2388  13.3680  13.3724  13.3831  13.3999  13.4234  13.4728
    13.4981  13.5503  13.5880  13.6698  13.6894  13.7754  13.8032  13.8955
    13.9357  13.9658  13.9711  14.0845  14.0854  14.0864  14.2111  14.2934
    14.3477  14.3527  14.4288  14.4993  14.5008  14.5900  14.7373  14.7878
    14.8072  14.8232  14.8522  14.8558  14.8670  14.9086  14.9728  15.0851
    15.0877  15.1062  15.1173  15.2577  15.2731  15.3276  15.3476  15.4419
    15.4529  15.5181  15.6311  15.6903  15.7023  15.7393  15.7858  15.8263
    15.8635  15.8773  15.9143  16.0126  16.1039  16.1093  16.2145  16.2899
    16.2912  16.3390  16.3391  16.3572  16.4768  16.8295  16.8302  17.0253
    17.0881  17.1066  17.1613  17.1629  17.1636  17.7393  17.8754  17.8760
    18.0389  18.0401  18.3099  18.3099  18.7929  18.7959  18.9947  19.4705
    19.4733  19.7493  20.0750  20.1216  21.2227  21.2230  21.2876  21.6236
    22.1496  22.3837  22.3840  23.5556  23.5794  23.8906  24.0029  24.5177
    24.5225  24.6518  24.6579  25.0622  25.0997  25.1071  25.2180  25.2312
    25.3844

          k = 0.1250 0.0589 0.0000 ( 17791 PWs)   bands (ev):

     0.0633   0.2727   0.3283   0.4954   1.1016   1.1341   1.2310   1.6535
     1.7760   2.2106   2.4741   2.6731   3.7943   4.6855   4.8972   5.1990
     6.1549   6.7011   6.8299   7.0271   8.6123   8.6725   8.9883   9.8184
     9.9154  10.4329  10.4621  10.5405  10.8934  10.9776  11.1223  11.1765
    11.2113  11.2458  11.2932  11.3270  11.3840  11.4273  11.4802  11.5112
    11.5156  11.5484  11.5594  11.5951  11.6501  11.6502  11.7464  11.7496
    11.7833  11.8196  11.8400  11.8689  11.8749  11.9363  11.9821  12.1705
    12.2101  12.4100  12.5133  12.6178  12.6222  12.6619  12.7087  12.7564
    12.8926  12.9319  13.0493  13.0654  13.0966  13.1340  13.1442  13.1658
    13.2057  13.2067  13.2899  13.3167  13.3556  13.3654  13.4758  13.4897
    13.4932  13.5412  13.6062  13.6737  13.6959  13.7742  13.8116  13.9018
    13.9310  13.9721  13.9970  14.0300  14.1312  14.1341  14.2444  14.3040
    14.3114  14.3653  14.4254  14.4526  14.5794  14.5803  14.6917  14.7675
    14.8045  14.8168  14.8173  14.8701  14.8830  14.9185  14.9704  15.0370
    15.0627  15.0893  15.1609  15.2689  15.2711  15.3320  15.3872  15.4158
    15.4695  15.5149  15.6106  15.6549  15.6716  15.7608  15.7613  15.8160
    15.8700  15.8748  15.9152  15.9585  16.0516  16.1197  16.1721  16.2566
    16.2681  16.2756  16.2876  16.3212  16.4958  16.6919  16.8977  16.9460
    17.0265  17.0745  17.1395  17.2559  17.2629  17.3142  17.4639  17.6735
    17.7731  17.9106  18.6055  18.6130  18.9975  19.0521  19.0779  19.6822
    19.7958  19.8065  20.1169  20.1557  20.9271  21.3121  21.6336  21.6649
    22.1640  22.2684  22.8246  23.5623  23.6148  23.8824  23.9039  23.9862
    24.0165  24.3319  24.4566  24.7369  25.0111  25.0529  25.3162  25.4334
    25.6060

          k = 0.1250 0.1179 0.0000 ( 17815 PWs)   bands (ev):

     0.0782   0.2604   0.3756   0.5524   1.0775   1.0958   1.2736   1.5619
     1.8035   2.3021   2.3510   2.7409   3.8590   4.6680   4.7831   5.3512
     6.2252   6.4962   6.9069   7.1004   8.7181   8.7400   8.7926   9.9236
    10.0200  10.0924  10.5261  10.5278  10.7645  10.9976  11.0087  11.2501
    11.2513  11.2766  11.2902  11.3249  11.3948  11.4015  11.4396  11.4976
    11.5718  11.5756  11.6055  11.6246  11.6506  11.6713  11.7279  11.7778
    11.8791  11.8953  11.9132  11.9171  11.9517  12.0332  12.0656  12.2105
    12.2424  12.4156  12.5096  12.5609  12.6112  12.6324  12.6632  12.7294
    12.8227  12.9018  12.9715  13.0282  13.0423  13.0840  13.1134  13.1329
    13.1649  13.2331  13.2405  13.3465  13.3472  13.4238  13.4279  13.4836
    13.5570  13.5836  13.6014  13.6667  13.7006  13.7730  13.8822  13.8865
    13.9170  13.9252  13.9708  14.0801  14.1379  14.2106  14.2502  14.2525
    14.3411  14.3656  14.4087  14.4633  14.6131  14.6554  14.6778  14.6917
    14.7407  14.7690  14.8349  14.8545  14.8659  14.9310  14.9736  15.0053
    15.0343  15.1480  15.1950  15.2339  15.3269  15.3538  15.3547  15.4085
    15.4297  15.4752  15.4989  15.5956  15.6446  15.7074  15.7391  15.7658
    15.8315  15.8691  15.8900  15.8941  15.9728  16.0345  16.1194  16.1511
    16.1957  16.2333  16.2458  16.2592  16.5131  16.5275  16.6891  16.7157
    16.7975  16.9495  16.9900  17.0625  17.0982  17.1305  17.4245  17.4651
    17.5536  17.8905  18.5230  18.7640  19.3201  19.4490  19.6824  19.9681
    20.2329  20.2619  20.3748  20.4825  20.6678  21.3820  21.6593  22.1383
    22.1801  22.4235  23.2279  23.4849  23.5589  23.6380  23.7390  23.7702
    23.8406  23.9456  24.0615  24.1635  24.7392  24.9995  25.3161  25.5925
    25.6783

          k = 0.1250 0.1768 0.0000 ( 17796 PWs)   bands (ev):

     0.1017   0.2519   0.4349   0.6296   1.0509   1.0755   1.3014   1.4618
     1.8213   2.2207   2.4225   2.7834   3.9733   4.6443   4.6968   5.4075
     6.3381   6.3787   7.0334   7.1118   8.3952   8.8980   8.9779   9.4500
    10.0881  10.1863  10.5444  10.6728  10.7003  10.9229  11.0044  11.1464
    11.2718  11.3269  11.3537  11.3551  11.3886  11.4209  11.4354  11.5683
    11.5767  11.6618  11.6726  11.7076  11.7221  11.7368  11.8287  11.8488
    11.9415  11.9982  12.0040  12.0343  12.0422  12.1127  12.1779  12.2607
    12.2974  12.3732  12.4462  12.4958  12.5549  12.5985  12.6196  12.6832
    12.7347  12.7840  12.8543  12.9040  12.9121  12.9626  13.0278  13.0879
    13.1280  13.1939  13.3242  13.3407  13.3847  13.4376  13.4646  13.5220
    13.5403  13.6024  13.6370  13.6541  13.7419  13.7873  13.8213  13.8215
    13.8999  13.9565  13.9948  14.0551  14.0597  14.2190  14.2206  14.2689
    14.2777  14.3314  14.3853  14.5015  14.5996  14.6239  14.6736  14.7077
    14.7534  14.7925  14.8138  14.8524  14.8897  14.9175  14.9282  14.9691
    15.0391  15.1435  15.1585  15.1724  15.2239  15.2768  15.2880  15.3495
    15.3546  15.4510  15.5186  15.6016  15.6075  15.6392  15.6787  15.6881
    15.7426  15.8155  15.8551  15.8976  15.9434  15.9561  15.9840  16.0168
    16.1388  16.1744  16.1879  16.2377  16.2546  16.2723  16.3863  16.5248
    16.5516  16.7210  16.9158  17.0447  17.1273  17.1485  17.1724  17.5987
    17.6223  18.0956  18.2888  18.6286  19.6921  20.0577  20.2039  20.3256
    20.4010  20.4499  20.5143  21.2220  21.2416  21.4871  21.6781  22.1114
    22.1383  22.2977  23.0348  23.1997  23.5520  23.5860  23.7539  23.8046
    23.8937  24.0195  24.1632  24.1910  24.7177  24.8286  25.1492  25.1982
    25.5106

          k = 0.1250 0.2357 0.0000 ( 17785 PWs)   bands (ev):

     0.1315   0.2408   0.5031   0.6905   1.0508   1.0807   1.3041   1.3604
     1.8386   2.0940   2.5467   2.7982   4.1439   4.6213   4.6367   5.2622
     6.4725   6.4839   7.0693   7.2050   8.0126   8.8388   9.1344   9.2332
    10.2971  10.3961  10.4007  10.6310  10.6623  10.8431  11.0214  11.1512
    11.2512  11.2972  11.3485  11.4128  11.4286  11.4759  11.5219  11.6485
    11.6654  11.7490  11.7825  11.8151  11.8262  11.8896  11.8967  11.9587
    11.9683  12.0608  12.0785  12.1153  12.1625  12.1675  12.2583  12.3003
    12.3099  12.3883  12.3979  12.4731  12.4865  12.5082  12.5905  12.6078
    12.6449  12.7152  12.7214  12.7782  12.8271  12.9106  12.9810  13.0722
    13.1373  13.1548  13.3212  13.3326  13.3860  13.4685  13.4778  13.5149
    13.5575  13.5975  13.6011  13.6425  13.6810  13.7746  13.7855  13.8386
    13.8977  13.9194  13.9395  13.9956  14.0549  14.1379  14.1513  14.1909
    14.2063  14.3433  14.4996  14.5487  14.5639  14.5902  14.6096  14.6592
    14.6933  14.7294  14.7713  14.8270  14.8289  14.8503  14.8829  14.8850
    14.9385  15.0352  15.0553  15.1052  15.1600  15.2020  15.2424  15.3569
    15.3860  15.3911  15.4153  15.4374  15.4946  15.5769  15.6293  15.6421
    15.6985  15.7536  15.7593  15.7772  15.8109  15.9227  15.9803  16.0147
    16.0345  16.0470  16.1778  16.2099  16.2619  16.2727  16.2848  16.4202
    16.5598  16.5946  16.8290  16.8610  17.1587  17.2577  17.2789  17.6898
    17.7561  18.0550  18.3428  18.5949  19.9105  20.1408  20.4675  20.6271
    20.7070  21.0548  21.0888  21.4909  21.5641  21.6588  21.7335  21.9696
    21.9940  22.1618  22.5554  22.8109  23.6653  23.7061  24.0033  24.0077
    24.1033  24.1551  24.3351  24.4845  24.5784  24.6464  24.8895  25.3092
    25.5688

          k = 0.1250 0.2946 0.0000 ( 17801 PWs)   bands (ev):

     0.1642   0.2223   0.5754   0.6922   1.1072   1.1148   1.2650   1.2714
     1.8644   1.9863   2.6550   2.7828   4.3709   4.5996   4.6091   4.9830
     6.6444   6.7137   6.9981   7.3459   7.7182   8.3129   9.4199   9.5453
    10.0752  10.2770  10.5282  10.6403  10.7214  10.9494  10.9865  11.0779
    11.2240  11.2256  11.3857  11.4819  11.4926  11.5672  11.6273  11.6785
    11.7323  11.8205  11.8835  11.8861  11.9304  11.9649  11.9706  12.0220
    12.0369  12.0857  12.1311  12.1567  12.1947  12.2124  12.2805  12.2881
    12.3505  12.3557  12.3692  12.4368  12.4567  12.4892  12.4996  12.5538
    12.5749  12.6520  12.7300  12.7959  12.8108  12.8986  12.9513  13.1460
    13.1516  13.1885  13.2036  13.2872  13.3350  13.3767  13.4731  13.5391
    13.5961  13.6281  13.6501  13.6848  13.6951  13.7564  13.7650  13.8310
    13.8311  13.8749  13.8761  13.9546  13.9723  14.0185  14.0795  14.1131
    14.2639  14.2959  14.3458  14.4076  14.4592  14.5619  14.6052  14.6534
    14.6624  14.7272  14.7389  14.7804  14.7964  14.8375  14.8544  14.9201
    14.9454  14.9937  15.0207  15.0380  15.0549  15.1425  15.1455  15.1567
    15.1894  15.2279  15.2589  15.2617  15.4638  15.4797  15.5009  15.5802
    15.7008  15.7194  15.7553  15.8973  15.9132  15.9902  16.0002  16.0255
    16.1058  16.1226  16.1356  16.2319  16.2501  16.2707  16.2785  16.3430
    16.4983  16.5440  16.7565  16.7573  17.2083  17.2922  17.4316  17.7722
    17.8269  17.8829  18.5942  18.7533  19.8369  20.5536  20.7410  20.8660
    21.0201  21.0450  21.2583  21.3707  21.5030  21.5883  21.8037  21.9786
    22.0596  22.1722  22.4811  22.9875  23.8502  23.9107  24.0227  24.0799
    24.1807  24.2097  24.3119  24.3335  24.6039  24.8509  25.0469  25.2263
    25.5158

          k = 0.1250-0.3536 0.0000 ( 17808 PWs)   bands (ev):

     0.1959   0.1959   0.6438   0.6438   1.1679   1.1679   1.2091   1.2091
     1.9099   1.9099   2.7352   2.7352   4.5684   4.5684   4.6910   4.6910
     6.7849   6.7849   7.1270   7.1270   7.8983   7.8983   9.7400   9.7400
     9.8998   9.8998  10.7368  10.7368  10.8366  10.8366  10.9428  10.9428
    11.2753  11.2753  11.4227  11.4227  11.5545  11.5545  11.6859  11.6859
    11.8050  11.8050  11.8830  11.8830  12.0001  12.0001  12.0456  12.0456
    12.1196  12.1196  12.1641  12.1641  12.1711  12.1711  12.2724  12.2724
    12.3299  12.3299  12.3616  12.3616  12.4765  12.4765  12.5252  12.5252
    12.5805  12.5805  12.8343  12.8343  12.8883  12.8883  12.9589  12.9589
    13.1728  13.1728  13.2401  13.2401  13.3874  13.3874  13.4489  13.4489
    13.6556  13.6556  13.6866  13.6866  13.7659  13.7659  13.7982  13.7982
    13.8611  13.8611  13.9183  13.9183  13.9514  13.9514  14.0205  14.0205
    14.1125  14.1125  14.2675  14.2675  14.6012  14.6012  14.6560  14.6560
    14.7246  14.7246  14.7758  14.7758  14.8315  14.8315  14.9025  14.9025
    14.9410  14.9410  14.9647  14.9647  14.9963  14.9963  15.0513  15.0513
    15.1200  15.1200  15.3064  15.3064  15.3448  15.3448  15.6060  15.6060
    15.6518  15.6518  15.8963  15.8963  15.9953  15.9953  16.0756  16.0756
    16.1253  16.1253  16.1533  16.1533  16.2462  16.2462  16.2880  16.2880
    16.5058  16.5059  16.7276  16.7276  17.2608  17.2608  17.6207  17.6207
    17.8503  17.8503  18.7886  18.7886  20.2015  20.2015  20.9703  20.9703
    21.1644  21.1644  21.2245  21.2245  21.3470  21.3470  21.9553  21.9553
    22.0600  22.0600  23.1228  23.1228  23.6165  23.6165  24.1500  24.1500
    24.2017  24.2017  24.2478  24.2478  25.0224  25.0225  25.3007  25.3007
    25.5788

          k = 0.2500 0.0000 0.0000 ( 17793 PWs)   bands (ev):

     0.1697   0.1723   0.1724   0.7608   1.1557   1.2576   1.2580   1.5631
     1.6918   2.1978   2.4851   2.4857   4.0546   4.7316   4.7317   5.0966
     6.2794   6.7461   7.5340   7.5343   8.5991   9.0237   9.1443   9.9436
    10.1822  10.3500  10.5869  10.5872  10.7284  10.9648  11.0220  11.2317
    11.2319  11.3081  11.3411  11.3429  11.3451  11.4700  11.4775  11.4883
    11.5128  11.5309  11.5626  11.5982  11.6048  11.6296  11.6610  11.6696
    11.7622  11.8060  11.8550  11.9410  11.9443  12.1137  12.1637  12.1657
    12.3491  12.3497  12.6122  12.7968  12.8229  12.8741  12.8829  12.9680
    12.9739  13.0682  13.1814  13.2038  13.2277  13.2339  13.2442  13.2747
    13.3235  13.4635  13.4993  13.5081  13.5209  13.5272  13.5607  13.6226
    13.6451  13.6549  13.6654  13.6747  13.6859  13.7083  13.7251  13.7582
    13.8190  13.8364  13.9615  13.9792  13.9931  14.0573  14.0728  14.1012
    14.1832  14.1886  14.2039  14.2163  14.3233  14.4565  14.4948  14.5107
    14.5197  14.6207  14.6302  14.6402  14.6476  14.7813  14.8728  14.9182
    14.9408  15.0208  15.0757  15.0770  15.0835  15.1103  15.1581  15.2783
    15.3317  15.5002  15.5091  15.5234  15.6274  15.6645  15.7545  15.7575
    15.8815  15.9532  15.9880  16.0228  16.0294  16.1247  16.1372  16.1464
    16.1479  16.2711  16.2737  16.2949  16.3259  16.3313  16.8547  16.8550
    16.8861  17.2094  17.2347  17.2347  17.2421  17.3364  17.6273  17.9638
    17.9649  18.2462  18.3990  18.3992  19.0335  19.0370  19.3639  19.3686
    19.4237  19.7609  20.1209  20.3260  20.3262  20.5578  20.7504  20.7513
    21.9513  21.9521  22.0601  22.1316  23.2236  23.2255  23.2689  23.2935
    23.2971  23.5985  23.6079  23.8541  23.8546  24.5099  24.6263  24.6310
    24.9140

          k = 0.2500 0.0589 0.0000 ( 17783 PWs)   bands (ev):

     0.1511   0.1715   0.2107   0.7692   1.1501   1.2249   1.2867   1.5218
     1.7229   2.2229   2.4099   2.5559   4.0745   4.6581   4.8281   5.0744
     6.3123   6.7813   7.3235   7.6836   8.4918   9.0583   9.1811   9.9875
    10.2191  10.3877  10.5214  10.6274  10.7698  10.9776  10.9996  11.0527
    11.1964  11.2910  11.3403  11.3766  11.3772  11.4649  11.4903  11.5167
    11.5197  11.5439  11.5892  11.5981  11.6355  11.6574  11.6728  11.7195
    11.7240  11.8361  11.8393  11.8744  12.0117  12.1343  12.1496  12.1640
    12.2079  12.6254  12.6503  12.7918  12.8075  12.8320  12.8563  12.9456
    13.0493  13.0650  13.1177  13.1691  13.2347  13.2563  13.2738  13.3082
    13.3315  13.4329  13.4369  13.4817  13.5489  13.5506  13.5825  13.5879
    13.6625  13.6633  13.6848  13.6849  13.7051  13.7130  13.7412  13.7547
    13.7938  13.8496  13.9165  13.9777  13.9905  14.0255  14.0575  14.0815
    14.1147  14.1216  14.2277  14.2289  14.2671  14.3671  14.4810  14.4886
    14.5165  14.5868  14.6081  14.6131  14.6616  14.7836  14.8658  14.8806
    14.9764  15.0187  15.0525  15.0845  15.0893  15.1261  15.2065  15.2993
    15.3776  15.4923  15.4950  15.5408  15.5813  15.6734  15.6752  15.8034
    15.8578  15.9134  15.9659  16.0214  16.0871  16.0926  16.1199  16.1274
    16.2265  16.2546  16.2638  16.2838  16.2924  16.2975  16.6244  16.9123
    17.0341  17.0860  17.1980  17.2281  17.2585  17.3281  17.3944  17.6881
    17.7276  18.3071  18.4164  18.6309  18.7511  19.0867  19.4634  19.6135
    19.8043  19.8649  19.9676  20.1668  20.5435  20.5887  20.7205  21.1040
    22.0290  22.0684  22.1356  22.2614  22.4304  22.5939  22.8736  23.2094
    23.3087  23.7974  24.1501  24.2335  24.3894  24.5545  24.5654  24.7242
    25.3009

          k = 0.2500 0.1179 0.0000 ( 17763 PWs)   bands (ev):

     0.1448   0.1763   0.2664   0.7871   1.1385   1.1926   1.3078   1.4450
     1.7741   2.2918   2.3321   2.6164   4.1353   4.6077   4.9424   5.0160
     6.4113   6.8782   7.0689   7.7674   8.2196   9.1596   9.2892  10.1084
    10.1597  10.3270  10.4914  10.6410  10.6864  10.8854  11.0630  11.0912
    11.1373  11.1391  11.4191  11.4541  11.4643  11.5005  11.5454  11.5718
    11.5905  11.6068  11.6167  11.6310  11.6853  11.7088  11.7517  11.7762
    11.8010  11.8596  11.9063  11.9427  12.0255  12.1321  12.1775  12.2116
    12.2650  12.6393  12.6675  12.7516  12.7584  12.7900  12.8206  12.9068
    12.9829  13.0545  13.0909  13.1023  13.1508  13.2397  13.2767  13.2874
    13.3150  13.3501  13.4589  13.4768  13.5406  13.5655  13.5954  13.6077
    13.6286  13.6610  13.6756  13.7074  13.7413  13.7565  13.7658  13.7867
    13.7956  13.8178  13.8587  13.9007  13.9280  13.9682  14.0132  14.0194
    14.0526  14.0858  14.0885  14.1903  14.3098  14.3663  14.4190  14.4370
    14.4582  14.5140  14.5726  14.5821  14.6158  14.7516  14.7597  14.9118
    15.0018  15.0067  15.0385  15.0564  15.1006  15.1535  15.2370  15.3166
    15.4445  15.4499  15.5326  15.5838  15.5839  15.6639  15.7469  15.7641
    15.8273  15.8781  15.8992  15.9882  15.9926  16.0241  16.0418  16.1166
    16.1169  16.1384  16.1825  16.2001  16.3215  16.3907  16.5520  16.6614
    16.8125  16.9695  17.1006  17.1948  17.2326  17.2989  17.4102  17.5364
    17.8519  17.8587  18.2295  18.4731  18.8910  19.5644  19.5718  19.6636
    19.9127  19.9777  20.2191  20.3075  20.6915  20.7761  21.1989  21.6845
    21.7377  21.9594  22.0950  22.1424  22.1489  22.3228  22.9327  23.0850
    23.3095  23.4145  24.1706  24.6852  25.1202  25.1487  25.3008  25.3946
    25.4693

          k = 0.2500 0.1768 0.0000 ( 17751 PWs)   bands (ev):

     0.1500   0.1825   0.3381   0.7929   1.1366   1.1660   1.3183   1.3645
     1.8259   2.2530   2.3879   2.6612   4.2384   4.5791   4.9406   5.0557
     6.5767   6.8091   7.0155   7.7875   7.8719   9.3210   9.4624   9.4702
    10.2914  10.4962  10.6073  10.6437  10.6513  10.9147  11.0522  11.0832
    11.2017  11.2625  11.4460  11.4558  11.5441  11.5841  11.5859  11.6122
    11.6176  11.6614  11.6828  11.7835  11.7860  11.8564  11.8645  11.9063
    11.9119  11.9513  12.0006  12.0465  12.0666  12.1355  12.2224  12.3052
    12.3348  12.5734  12.5754  12.6832  12.7194  12.7662  12.7841  12.8528
    12.9139  12.9554  12.9977  13.0521  13.0549  13.1981  13.2224  13.2577
    13.2647  13.3035  13.4054  13.4344  13.4758  13.4969  13.5053  13.5224
    13.5658  13.5803  13.6527  13.6685  13.6932  13.7166  13.7404  13.7660
    13.7701  13.8430  13.8739  13.9001  13.9007  13.9309  13.9336  13.9729
    13.9885  14.0609  14.1117  14.1612  14.2237  14.3080  14.3842  14.4048
    14.4541  14.4568  14.5113  14.5420  14.5959  14.6639  14.6655  14.8788
    14.9790  15.0016  15.0527  15.0840  15.1999  15.2136  15.2633  15.3468
    15.3723  15.4178  15.4572  15.4748  15.5927  15.6250  15.6526  15.7670
    15.7817  15.8314  15.8890  15.9173  15.9360  15.9475  15.9795  16.0196
    16.0271  16.0429  16.0907  16.0915  16.1265  16.3849  16.4309  16.5265
    16.7330  16.7522  17.0007  17.1652  17.2212  17.3594  17.4400  17.7448
    17.7966  17.9439  18.1248  18.6380  18.7125  19.3310  19.4095  19.7266
    20.0398  20.5397  20.5550  20.6424  20.8896  21.0874  21.2409  21.4202
    21.4587  22.0778  22.1423  22.1786  22.3260  22.8111  23.0237  23.1811
    23.3803  23.4902  24.2309  24.6854  24.9071  25.4607  25.5212  25.7800
    25.8631

          k = 0.2500 0.2357 0.0000 ( 17768 PWs)   bands (ev):

     0.1619   0.1877   0.4229   0.7635   1.1505   1.1581   1.2933   1.3158
     1.8810   2.1727   2.4903   2.6841   4.3786   4.5704   4.8727   5.1224
     6.6168   6.7960   7.1625   7.5404   7.7498   8.7906   9.5312   9.6892
    10.4746  10.5225  10.6635  10.7049  10.7515  10.8240  11.1124  11.1649
    11.2923  11.3898  11.4038  11.5112  11.5439  11.5924  11.6561  11.6886
    11.7023  11.7081  11.7711  11.8766  11.9549  11.9745  12.0052  12.0126
    12.0837  12.0840  12.1256  12.1415  12.1513  12.2099  12.3060  12.3834
    12.4118  12.4817  12.5345  12.5877  12.6724  12.7058  12.7860  12.8032
    12.8244  12.8525  12.8935  12.9286  12.9832  13.0734  13.1446  13.1892
    13.1899  13.2730  13.3326  13.3631  13.3717  13.4004  13.4398  13.4697
    13.4726  13.5185  13.5501  13.5549  13.5877  13.6406  13.6815  13.6907
    13.7189  13.7390  13.7596  13.8562  13.8945  13.9460  13.9679  14.0064
    14.0540  14.0571  14.0924  14.1297  14.1783  14.2386  14.2872  14.3478
    14.3660  14.4917  14.5291  14.6107  14.6325  14.6680  14.6888  14.8529
    14.9290  15.0164  15.0171  15.0945  15.1175  15.1796  15.2066  15.2586
    15.2768  15.2976  15.3444  15.3708  15.4298  15.5273  15.5478  15.5761
    15.6208  15.7057  15.7671  15.8568  15.8891  15.9091  15.9903  16.0138
    16.0314  16.0410  16.0881  16.1203  16.1959  16.2930  16.3589  16.5716
    16.5755  16.7810  16.9680  17.0548  17.2043  17.2766  17.6129  17.6135
    17.9910  18.1451  18.4749  18.6596  18.9628  18.9992  19.2504  19.9109
    20.1605  20.3618  20.4130  20.8365  20.8720  21.0727  21.1918  21.7888
    21.9539  22.1904  22.2438  22.2566  22.5362  22.9881  23.0738  23.1585
    23.7529  23.8908  24.4109  24.6616  25.1628  25.5895  25.8324  25.8506
    25.9606

          k = 0.2500 0.2946 0.0000 ( 17790 PWs)   bands (ev):

     0.1750   0.1891   0.5161   0.6980   1.1506   1.1831   1.2517   1.2990
     1.9435   2.0924   2.5803   2.6800   4.5207   4.5768   4.8535   5.0813
     6.5821   6.9037   7.3020   7.4408   7.6628   8.1864   9.7741   9.9523
    10.2707  10.4880  10.7666  10.7748  10.8793  11.0129  11.1486  11.1690
    11.2632  11.4194  11.4271  11.5398  11.5695  11.6592  11.6630  11.7513
    11.7609  11.7942  11.8143  11.9349  12.0301  12.0376  12.0841  12.1011
    12.1580  12.1953  12.2338  12.2970  12.3134  12.3663  12.4014  12.4434
    12.4737  12.4978  12.5743  12.6005  12.6231  12.6590  12.6926  12.7370
    12.7457  12.7516  12.8352  12.8513  12.8839  12.9451  13.0051  13.1077
    13.1107  13.2029  13.2449  13.2584  13.3272  13.3488  13.3654  13.4130
    13.4166  13.4457  13.4629  13.5234  13.5324  13.5704  13.6029  13.6184
    13.6202  13.6866  13.7222  13.7593  13.8017  13.8716  13.8725  13.9210
    13.9318  13.9930  14.1844  14.2033  14.2583  14.3097  14.3831  14.4506
    14.4901  14.5843  14.6207  14.6606  14.7166  14.7448  14.7849  14.8022
    14.8522  14.8628  14.8993  14.9397  14.9397  15.0218  15.0313  15.0931
    15.1090  15.1412  15.2392  15.2854  15.3228  15.3332  15.3657  15.5000
    15.6578  15.7510  15.7846  15.8306  15.8427  15.9667  16.0032  16.0386
    16.0491  16.0775  16.0931  16.1425  16.2100  16.3094  16.3597  16.4786
    16.6588  16.7728  16.8358  17.0665  17.1589  17.3863  17.4352  17.8797
    17.9254  18.2434  18.6082  18.6915  18.8844  19.3185  19.6284  20.0348
    20.0683  20.1169  20.2854  20.6373  20.7247  21.1607  21.5644  21.7679
    21.9816  22.1797  22.3993  22.4103  22.7343  22.8572  22.9505  23.3079
    24.6629  24.6632  24.8865  24.9516  25.1877  25.5080  25.6665  25.6942
    25.7583

          k = 0.2500-0.3536 0.0000 ( 17788 PWs)   bands (ev):

     0.1849   0.1850   0.6110   0.6110   1.1675   1.1675   1.2700   1.2700
     2.0147   2.0147   2.6454   2.6454   4.5805   4.5805   4.9480   4.9480
     6.7198   6.7198   7.5351   7.5351   7.6866   7.6866  10.0286  10.0286
    10.2281  10.2281  10.8396  10.8396  11.0556  11.0556  11.1779  11.1779
    11.2418  11.2418  11.4968  11.4968  11.6302  11.6302  11.7700  11.7700
    11.7966  11.7966  11.9014  11.9014  12.0298  12.0298  12.1286  12.1286
    12.1863  12.1863  12.3091  12.3091  12.4740  12.4740  12.5186  12.5186
    12.5387  12.5387  12.5539  12.5539  12.6197  12.6197  12.6570  12.6570
    12.7140  12.7140  12.8186  12.8186  12.8773  12.8773  12.9822  12.9822
    13.1039  13.1039  13.2515  13.2515  13.2873  13.2873  13.2990  13.2990
    13.4322  13.4322  13.4793  13.4793  13.5482  13.5482  13.5999  13.5999
    13.6328  13.6328  13.6940  13.6940  13.7413  13.7413  13.8787  13.8787
    13.9324  13.9324  14.1741  14.1741  14.5022  14.5022  14.5704  14.5704
    14.5782  14.5783  14.6231  14.6231  14.7051  14.7051  14.7672  14.7672
    14.8184  14.8184  14.8438  14.8438  14.8791  14.8791  14.9696  14.9696
    15.0101  15.0101  15.1651  15.1651  15.3483  15.3483  15.4153  15.4153
    15.7174  15.7174  15.7898  15.7898  15.9556  15.9556  16.0134  16.0134
    16.0620  16.0620  16.0998  16.0998  16.3102  16.3102  16.4125  16.4125
    16.6638  16.6638  16.9562  16.9562  17.2904  17.2904  17.5912  17.5912
    18.2623  18.2623  18.4844  18.4844  19.3214  19.3214  19.6644  19.6644
    20.3128  20.3128  20.4540  20.4540  21.0137  21.0137  21.4795  21.4795
    21.9305  21.9305  22.4956  22.4956  22.6360  22.6360  23.9042  23.9042
    24.2895  24.2895  25.0584  25.0585  25.7509  25.7510  25.8264  25.8268
    25.9659

          k = 0.3750 0.0000 0.0000 ( 17794 PWs)   bands (ev):

     0.0734   0.0735   0.3217   0.9647   1.2104   1.2843   1.2847   1.5628
     1.6446   2.1127   2.4208   2.4212   4.4489   4.5411   4.5412   5.6991
     5.9886   7.2930   7.8907   8.0716   8.0719   9.4105   9.8848   9.9203
    10.3191  10.4463  10.5853  10.6524  10.6527  10.7178  10.8446  10.9585
    10.9707  10.9729  11.1377  11.2678  11.2777  11.2781  11.3703  11.3978
    11.5617  11.5781  11.6295  11.7898  11.7914  11.8798  11.8866  12.0237
    12.0460  12.0522  12.0784  12.0929  12.2852  12.2949  12.4641  12.4652
    12.5186  12.6491  12.6499  12.7753  12.9341  12.9388  12.9694  13.0375
    13.0601  13.0623  13.0750  13.1853  13.2032  13.2059  13.2569  13.3258
    13.3618  13.3962  13.4091  13.4268  13.4732  13.4802  13.5074  13.5333
    13.5411  13.6263  13.6306  13.6349  13.6395  13.6924  13.7230  13.7368
    13.7559  13.7561  13.7891  13.8163  13.8355  13.8964  13.9198  13.9346
    14.0717  14.1007  14.1665  14.1794  14.2034  14.2346  14.2752  14.4733
    14.5396  14.5493  14.5617  14.5967  14.7357  14.7482  14.7731  14.9344
    15.0386  15.0393  15.0871  15.1056  15.2156  15.2913  15.3595  15.3596
    15.3744  15.4067  15.4456  15.4930  15.5434  15.6375  15.7296  15.7357
    15.7367  15.8024  15.9819  16.0059  16.0388  16.0576  16.0966  16.1156
    16.1241  16.1952  16.2044  16.2610  16.3137  16.3189  16.3593  16.6455
    16.8123  16.8180  16.8230  17.1193  17.2407  17.2417  17.2806  17.3332
    17.8768  18.0821  18.0852  18.1828  18.6334  18.6350  19.2134  19.2188
    19.6458  19.9823  19.9855  20.4877  20.4977  20.5656  21.2964  21.6310
    21.6325  21.7604  21.7738  21.9228  21.9432  21.9604  22.1450  22.1499
    22.3891  22.4064  22.8541  22.8680  23.5586  24.0851  24.1581  24.1596
    24.5439

          k = 0.3750 0.0589 0.0000 ( 17796 PWs)   bands (ev):

     0.0633   0.1029   0.3192   0.9443   1.2223   1.2603   1.3091   1.5148
     1.6956   2.1329   2.3871   2.4548   4.4636   4.5028   4.6046   5.6420
     6.0388   7.3211   7.8056   7.8734   8.1871   9.4846   9.9497   9.9568
    10.3551  10.4822  10.6052  10.6233  10.6807  10.7540  10.8782  10.8806
    10.9960  11.0322  11.1715  11.1829  11.3082  11.3147  11.4099  11.4370
    11.4477  11.5992  11.6093  11.7269  11.8068  11.8863  11.9189  12.0047
    12.0341  12.0946  12.1056  12.1144  12.2286  12.3884  12.4536  12.4827
    12.5309  12.5902  12.7292  12.7749  12.8851  12.9316  12.9578  13.0119
    13.0429  13.0578  13.0978  13.1783  13.1796  13.2525  13.2693  13.3078
    13.3417  13.3800  13.4225  13.4277  13.4791  13.4791  13.5112  13.5114
    13.5398  13.5922  13.6209  13.6322  13.6612  13.6849  13.7264  13.7294
    13.7435  13.7503  13.7616  13.8262  13.8626  13.8780  13.9084  13.9616
    13.9934  14.0955  14.1572  14.1776  14.1966  14.2630  14.3029  14.4288
    14.4761  14.5225  14.5516  14.6422  14.6806  14.7343  14.7599  14.9388
    15.0010  15.0283  15.0563  15.0745  15.2112  15.2512  15.2527  15.2844
    15.3248  15.3683  15.3861  15.4880  15.5964  15.6363  15.6887  15.7268
    15.8200  15.9140  15.9858  15.9875  16.0169  16.0433  16.0458  16.0771
    16.1125  16.1450  16.1778  16.1798  16.2620  16.2885  16.4736  16.4806
    16.7671  16.9038  17.0485  17.1496  17.1716  17.2728  17.3015  17.3761
    17.5574  17.9545  18.2562  18.2679  18.3254  18.8472  19.1402  19.4389
    19.6852  19.7590  19.8282  20.5823  20.6619  20.9900  21.2250  21.2840
    21.3117  21.3455  21.3790  21.6627  21.9344  22.2276  22.5265  22.5954
    22.6219  22.7236  23.2507  23.3758  23.5818  23.9667  24.1020  24.3296
    24.5748

          k = 0.3750 0.1179 0.0000 ( 17793 PWs)   bands (ev):

     0.0711   0.1519   0.3116   0.8895   1.2393   1.2512   1.3310   1.4448
     1.7758   2.1888   2.3520   2.4866   4.4867   4.5053   4.6963   5.5223
     6.1601   7.2762   7.6013   7.7342   8.2126   9.6416  10.0505  10.1455
    10.4374  10.4586  10.5888  10.6360  10.6978  10.7338  10.8579  10.9746
    10.9975  11.1057  11.1363  11.2659  11.2970  11.4161  11.4682  11.5114
    11.5288  11.5666  11.6313  11.7411  11.8034  11.9109  11.9480  12.0146
    12.0690  12.1367  12.1394  12.1969  12.2543  12.4218  12.4827  12.5185
    12.5651  12.5974  12.7271  12.7634  12.8232  12.8652  12.9270  12.9966
    13.0122  13.0375  13.0937  13.1386  13.1406  13.2379  13.2602  13.2630
    13.3171  13.3275  13.3664  13.4050  13.4150  13.4335  13.4725  13.5340
    13.5443  13.5794  13.5912  13.6139  13.6626  13.6692  13.7139  13.7297
    13.7425  13.7633  13.7739  13.7833  13.8658  13.8766  13.9471  13.9610
    13.9781  14.0247  14.0593  14.1334  14.1839  14.3065  14.3189  14.3731
    14.4438  14.4668  14.4766  14.5271  14.7229  14.7358  14.7822  14.7833
    14.8328  14.9430  14.9850  15.0119  15.0480  15.1119  15.1159  15.1869
    15.2146  15.3406  15.4344  15.4845  15.6045  15.6342  15.6642  15.7579
    15.7964  15.8446  15.8760  15.9295  15.9331  15.9893  16.0241  16.0443
    16.0517  16.0689  16.1204  16.1378  16.1736  16.2920  16.3255  16.6819
    16.7556  16.9352  17.0283  17.0946  17.2148  17.2640  17.4122  17.5440
    17.5963  17.8080  18.1511  18.2770  18.4398  18.7229  18.9454  19.1861
    19.8092  19.8504  20.0284  20.6012  20.6324  20.7371  20.8457  20.9837
    21.2964  21.3624  21.3836  21.9728  22.0545  22.3288  22.5252  22.8938
    23.4762  23.5223  23.6512  24.0107  24.1528  24.1752  24.5389  24.5996
    24.6619

          k = 0.3750 0.1768 0.0000 ( 17788 PWs)   bands (ev):

     0.0941   0.2194   0.2975   0.8105   1.2247   1.2856   1.3481   1.3787
     1.8630   2.2680   2.3127   2.5120   4.4908   4.5640   4.8173   5.3999
     6.3396   7.0218   7.2770   7.8847   8.1339   9.8184   9.9085  10.1989
    10.4108  10.5461  10.6183  10.7102  10.7599  10.9038  10.9510  11.0114
    11.1203  11.2124  11.2767  11.3290  11.3713  11.4789  11.5558  11.5793
    11.6556  11.6894  11.7349  11.7718  11.8041  11.9318  11.9735  12.0399
    12.1446  12.1833  12.2097  12.2940  12.3134  12.3958  12.5283  12.5736
    12.6151  12.6444  12.6944  12.7176  12.7758  12.8391  12.8516  12.9575
    12.9901  12.9918  13.0185  13.0700  13.1126  13.1504  13.1732  13.1891
    13.2557  13.2805  13.3137  13.3362  13.3362  13.3844  13.4477  13.4916
    13.4969  13.5342  13.5945  13.6264  13.6443  13.6515  13.6905  13.6974
    13.7149  13.7353  13.7721  13.7780  13.8338  13.8659  13.9241  13.9297
    13.9504  13.9795  14.0793  14.0909  14.1298  14.2009  14.2593  14.3120
    14.3588  14.3995  14.4487  14.4637  14.5671  14.5998  14.6505  14.7431
    14.7837  14.8055  14.8424  14.8774  14.9734  14.9917  15.0309  15.0731
    15.0893  15.3194  15.3595  15.4154  15.4584  15.5301  15.6146  15.6759
    15.7156  15.7309  15.7787  15.8662  15.8941  15.9067  15.9263  15.9986
    16.0079  16.0273  16.0285  16.1171  16.2603  16.3095  16.4967  16.5518
    16.7750  16.9347  16.9826  17.0273  17.2069  17.4375  17.5298  17.6627
    17.7098  17.8309  18.2597  18.4020  18.5389  18.5880  18.6660  19.1291
    19.4630  20.0270  20.0460  20.1472  20.3042  20.4398  20.7138  21.2816
    21.4641  21.9227  21.9562  22.0496  22.1278  22.3134  23.0756  23.6050
    23.7664  23.9276  24.2374  24.3441  24.5448  24.6740  24.7629  25.1730
    25.2561

          k = 0.3750 0.2357 0.0000 ( 17756 PWs)   bands (ev):

     0.1280   0.2757   0.3030   0.7154   1.2190   1.3170   1.3214   1.3588
     1.9545   2.2648   2.3539   2.5246   4.5134   4.6148   4.9630   5.3153
     6.5813   6.7346   6.9399   7.9323   8.1246   9.3970  10.0013  10.3767
    10.4877  10.6844  10.7290  10.8233  10.9178  10.9473  11.0944  11.1788
    11.2854  11.3016  11.3868  11.4182  11.4802  11.6062  11.6203  11.6745
    11.7059  11.7157  11.8412  11.8671  11.9336  11.9482  11.9978  12.0584
    12.2049  12.2571  12.3280  12.3407  12.3514  12.4831  12.5230  12.6164
    12.6473  12.6685  12.6811  12.7078  12.7682  12.8249  12.8627  12.8892
    12.8901  12.9327  12.9830  12.9950  13.0283  13.0495  13.0647  13.1683
    13.1683  13.2174  13.2319  13.2748  13.3269  13.3755  13.3829  13.3951
    13.4414  13.4587  13.5018  13.5318  13.5575  13.5679  13.6182  13.6653
    13.7112  13.7301  13.7641  13.7857  13.8068  13.8128  13.8840  13.8841
    13.9504  13.9866  14.0178  14.0592  14.1161  14.1352  14.1434  14.2098
    14.2501  14.2554  14.3121  14.4251  14.4264  14.4467  14.5435  14.6660
    14.7059  14.7325  14.7516  14.8054  14.8507  14.8923  14.9631  14.9809
    15.1378  15.1735  15.2010  15.3314  15.3604  15.3814  15.4247  15.4980
    15.5024  15.6041  15.7826  15.7935  15.8205  15.9084  15.9086  15.9344
    15.9956  16.0525  16.1576  16.1877  16.2807  16.3826  16.4969  16.5850
    16.7303  16.8811  17.0125  17.1598  17.2161  17.3397  17.4781  17.7966
    17.9058  18.1171  18.2003  18.2551  18.4350  18.6610  18.8903  19.0464
    19.4634  19.7247  19.8694  19.8992  20.2008  20.3304  20.8222  21.5299
    21.6401  21.7465  22.1852  22.4710  22.8578  23.2256  23.3281  23.6167
    23.9258  24.2750  24.3156  24.5327  24.7871  25.1263  25.3465  25.4703
    25.6281

          k = 0.3750 0.2946 0.0000 ( 17761 PWs)   bands (ev):

     0.1681   0.2458   0.3992   0.6110   1.2245   1.2754   1.3413   1.3618
     2.0461   2.2049   2.4305   2.5178   4.5511   4.6256   5.1142   5.2785
     6.5252   6.6496   6.8894   7.6164   8.3917   8.9950  10.1740  10.4172
    10.5525  10.7435  10.8867  10.9279  10.9650  11.0775  11.3192  11.3224
    11.3675  11.4128  11.4812  11.5011  11.5591  11.6116  11.6551  11.7603
    11.7726  11.8234  11.8267  11.9195  11.9471  11.9935  12.0474  12.1212
    12.1591  12.2483  12.3438  12.3983  12.5312  12.5811  12.6095  12.6350
    12.6953  12.6967  12.7383  12.7718  12.8119  12.8140  12.8450  12.8559
    12.8724  12.8817  12.9258  12.9437  12.9943  13.0325  13.0366  13.0751
    13.0758  13.1757  13.2113  13.2178  13.2506  13.2701  13.2779  13.2829
    13.3614  13.3732  13.4233  13.4491  13.4679  13.5062  13.5236  13.5663
    13.6006  13.6306  13.6520  13.7147  13.7632  13.7731  13.7901  13.8334
    13.8859  13.9136  13.9575  14.0334  14.0959  14.1247  14.1497  14.2166
    14.2713  14.3117  14.3355  14.3777  14.4511  14.4905  14.5137  14.5507
    14.5775  14.6331  14.6667  14.7119  14.7610  14.7829  14.8837  14.9267
    14.9831  14.9959  15.1156  15.1962  15.2178  15.3249  15.3296  15.4546
    15.4780  15.5679  15.6676  15.7382  15.8616  15.8762  15.9033  15.9051
    15.9886  16.0874  16.1373  16.3460  16.3574  16.4268  16.4609  16.6374
    16.7618  16.8905  16.9273  17.1331  17.2621  17.4886  17.5343  17.6033
    17.9880  18.0785  18.1170  18.5119  18.6269  18.6963  18.9112  19.1051
    19.2450  19.4070  19.4994  19.5860  20.6803  20.9566  20.9922  21.3086
    21.4490  21.9108  22.4059  22.7865  23.1342  23.3987  23.5700  23.9391
    24.1337  24.3101  24.5525  24.8065  24.9782  25.3349  25.5551  25.7688
    26.0877

          k = 0.3750-0.3536 0.0000 ( 17776 PWs)   bands (ev):

     0.2089   0.2089   0.5036   0.5036   1.2430   1.2430   1.3562   1.3562
     2.1313   2.1313   2.4867   2.4867   4.5953   4.5953   5.2295   5.2295
     6.4883   6.4883   7.2463   7.2463   8.6753   8.6753  10.3156  10.3156
    10.6889  10.6889  10.9030  10.9030  11.1797  11.1797  11.2925  11.2925
    11.4160  11.4160  11.5636  11.5636  11.6683  11.6683  11.7375  11.7375
    11.7936  11.7936  11.8439  11.8440  11.9993  11.9993  12.0261  12.0261
    12.2805  12.2805  12.3342  12.3342  12.5453  12.5453  12.7072  12.7072
    12.7700  12.7700  12.8224  12.8224  12.8498  12.8498  12.8805  12.8805
    12.9241  12.9241  12.9360  12.9360  12.9726  12.9726  12.9975  12.9975
    13.0677  13.0677  13.1734  13.1734  13.1894  13.1894  13.2096  13.2096
    13.2841  13.2841  13.4099  13.4099  13.4534  13.4534  13.5127  13.5127
    13.5397  13.5397  13.6322  13.6322  13.6786  13.6786  13.7899  13.7899
    13.8577  13.8577  14.0348  14.0348  14.1437  14.1437  14.2819  14.2819
    14.3416  14.3416  14.4013  14.4013  14.4448  14.4448  14.4871  14.4871
    14.5651  14.5651  14.6389  14.6389  14.7037  14.7037  14.7693  14.7693
    15.0227  15.0227  15.0579  15.0579  15.2331  15.2331  15.3858  15.3858
    15.5555  15.5555  15.6547  15.6547  15.8798  15.8798  15.8988  15.8988
    16.0174  16.0174  16.2469  16.2469  16.4237  16.4237  16.6184  16.6184
    16.7514  16.7514  17.0632  17.0632  17.3429  17.3429  17.7415  17.7415
    17.8021  17.8021  18.3765  18.3765  18.8895  18.8895  19.0593  19.0593
    19.1626  19.1626  19.3264  19.3264  21.0170  21.0170  21.1324  21.1324
    22.1255  22.1255  22.3812  22.3812  22.7312  22.7312  24.3048  24.3048
    24.7377  24.7377  24.9867  24.9867  25.0675  25.0675  25.4128  25.4128
    25.7304

          k =-0.5000 0.0000 0.0000 ( 17814 PWs)   bands (ev):

     0.0367   0.0368   0.4113   0.9456   1.2377   1.2826   1.2830   1.6198
     1.7724   1.9493   2.4048   2.4053   4.4790   4.4791   4.7059   5.7316
     6.1353   7.4027   8.1750   8.2792   8.2795   8.4196  10.0941  10.3389
    10.6577  10.6878  10.6883  10.7359  10.7916  10.8065  10.8330  10.8556
    10.8778  10.8803  10.9284  10.9641  11.0115  11.0879  11.2557  11.2661
    11.5763  11.6274  11.6463  11.8704  11.8715  12.0348  12.1620  12.1847
    12.2579  12.3023  12.3183  12.3219  12.4352  12.4909  12.5195  12.5196
    12.5199  12.5221  12.6490  12.6990  12.9178  12.9393  12.9454  13.0003
    13.0379  13.0532  13.1335  13.1412  13.2190  13.2233  13.2356  13.2470
    13.3005  13.3578  13.3698  13.3797  13.3809  13.4376  13.4420  13.4999
    13.5039  13.5108  13.5232  13.5432  13.6015  13.6044  13.6045  13.6073
    13.6289  13.6429  13.6868  13.7188  13.8311  13.8548  13.9026  13.9470
    13.9488  14.1217  14.1574  14.1822  14.2304  14.2707  14.3876  14.3898
    14.5108  14.5647  14.5678  14.5884  14.6897  14.7146  14.8002  14.8197
    14.8285  14.8458  15.1542  15.3183  15.3289  15.4573  15.4626  15.5101
    15.5912  15.6335  15.6434  15.7500  15.7849  15.8150  15.8254  15.8363
    15.9403  15.9485  15.9928  16.0121  16.0423  16.0436  16.0887  16.0984
    16.1106  16.1560  16.2061  16.2128  16.2399  16.2721  16.3225  16.3867
    16.5392  16.5999  16.6263  16.6444  16.8464  17.0239  17.0911  17.0925
    17.2976  17.3763  18.2308  18.2323  18.4895  18.4944  19.1839  19.4821
    19.4951  20.1664  20.4138  20.4148  20.9207  20.9637  21.2215  21.2319
    21.2552  21.2554  21.3031  21.3303  22.1049  22.1173  22.1259  22.3258
    22.3806  22.4123  22.6529  22.7933  22.8020  23.0828  23.6501  23.6510
    24.7422

          k =-0.5000 0.0589 0.0000 ( 17814 PWs)   bands (ev):

     0.0360   0.0576   0.4068   0.9175   1.2549   1.2596   1.3110   1.5792
     1.8219   1.9650   2.3946   2.4141   4.4506   4.5330   4.7122   5.7558
     6.1047   7.2248   8.1427   8.3112   8.3501   8.4951  10.1299  10.3720
    10.6676  10.6683  10.6913  10.7648  10.8254  10.8389  10.8669  10.8684
    10.8895  10.8904  10.9655  11.0013  11.0512  11.1280  11.2262  11.3025
    11.5536  11.5758  11.6024  11.8569  11.9379  12.0462  12.1601  12.1951
    12.2741  12.3107  12.3307  12.3310  12.4403  12.4536  12.4861  12.5080
    12.5098  12.5551  12.6635  12.7553  12.9073  12.9347  12.9479  12.9683
    13.0262  13.0540  13.0820  13.1598  13.2173  13.2357  13.2481  13.2628
    13.2945  13.3323  13.3532  13.3628  13.3745  13.4254  13.4351  13.4798
    13.4868  13.5004  13.5130  13.5297  13.5448  13.5583  13.5972  13.6323
    13.6564  13.6612  13.6787  13.7115  13.8213  13.8565  13.8762  13.9025
    13.9843  14.1359  14.1431  14.1713  14.2405  14.3078  14.3285  14.4009
    14.5740  14.5746  14.5990  14.6434  14.6655  14.6782  14.7870  14.8038
    14.8041  14.8263  15.0089  15.2119  15.3782  15.4368  15.4395  15.4506
    15.4815  15.5631  15.5794  15.6235  15.7446  15.7651  15.8272  15.8526
    15.8654  15.8740  15.9202  15.9313  16.0012  16.0138  16.0145  16.0464
    16.0588  16.1192  16.1297  16.2048  16.2541  16.2826  16.3139  16.4925
    16.5374  16.5897  16.6703  16.9296  17.0620  17.1260  17.1476  17.1562
    17.3356  17.4163  18.0686  18.2027  18.5016  18.6193  19.1991  19.2016
    19.2852  20.1585  20.1672  20.2994  20.4020  20.4341  21.4058  21.4480
    21.4620  21.5366  21.9041  21.9648  21.9970  22.1309  22.1390  22.3488
    22.3803  22.4391  22.6706  22.7661  22.9009  23.0996  24.0512  24.1849
    24.9335

          k =-0.5000 0.1179 0.0000 ( 17794 PWs)   bands (ev):

     0.0540   0.0988   0.3930   0.8473   1.2444   1.2924   1.3404   1.5102
     1.9158   2.0100   2.3833   2.4193   4.4444   4.6170   4.7262   5.8231
     6.0401   6.8981   7.9058   8.2313   8.6752   8.7000  10.2349  10.4680
    10.5754  10.6115  10.7869  10.8418  10.8536  10.9106  10.9221  10.9302
    10.9711  10.9912  11.0732  11.1092  11.1673  11.1937  11.2454  11.3553
    11.4667  11.5046  11.5358  11.9149  11.9888  12.0753  12.1614  12.2008
    12.3121  12.3154  12.3563  12.3636  12.3897  12.4491  12.4516  12.4969
    12.5634  12.6206  12.6866  12.8449  12.8497  12.8774  12.9115  12.9699
    13.0037  13.0415  13.0689  13.1504  13.1748  13.2392  13.2527  13.2643
    13.2682  13.2790  13.2796  13.3370  13.3548  13.4039  13.4230  13.4437
    13.4520  13.4524  13.4662  13.4782  13.5418  13.5449  13.5670  13.6366
    13.6584  13.6719  13.6836  13.7262  13.7370  13.8150  13.8219  13.9335
    14.0338  14.0612  14.1605  14.1690  14.2337  14.3535  14.3860  14.3895
    14.5033  14.5362  14.5995  14.6233  14.6422  14.6870  14.7539  14.7737
    14.7891  14.7974  14.8466  15.0744  15.1722  15.1813  15.3104  15.3472
    15.3556  15.3633  15.4564  15.4723  15.5055  15.5561  15.5615  15.6681
    15.7580  15.7909  15.8572  15.8749  15.8771  15.8941  15.9079  16.0746
    16.1009  16.1250  16.1788  16.1857  16.2159  16.3603  16.3847  16.4742
    16.5488  16.6934  16.9567  17.0330  17.1573  17.2074  17.3839  17.4022
    17.5939  17.7040  17.8333  17.8948  18.6054  18.6342  19.0706  19.1326
    19.2477  19.6603  19.8363  19.8625  20.0021  20.1708  21.3756  21.4798
    21.7686  21.8709  22.1506  22.2051  22.2168  22.3515  22.4202  22.4343
    22.7260  22.9780  22.9996  23.1518  23.5768  23.6812  24.7369  25.0348
    25.2720

          k =-0.5000 0.1768 0.0000 ( 17756 PWs)   bands (ev):

     0.0878   0.1595   0.3693   0.7546   1.2390   1.3319   1.3671   1.4426
     2.0191   2.0778   2.3696   2.4162   4.4583   4.7330   4.7366   5.8986
     6.0020   6.6008   7.5831   8.0330   8.9886   9.0101  10.4008  10.4013
    10.5198  10.6161  10.8366  10.9214  10.9330  10.9521  11.0575  11.0681
    11.1308  11.1496  11.1755  11.2402  11.2754  11.3485  11.3488  11.4294
    11.4465  11.4822  11.5359  11.9521  11.9698  12.1079  12.1354  12.1922
    12.2742  12.3675  12.3807  12.4304  12.4481  12.4624  12.4683  12.5377
    12.6455  12.6799  12.7057  12.7355  12.7571  12.8723  12.9295  12.9742
    13.0216  13.0438  13.0735  13.0916  13.1244  13.1581  13.1760  13.2000
    13.2107  13.2452  13.2705  13.2786  13.2826  13.3553  13.3873  13.4106
    13.4112  13.4185  13.4307  13.4991  13.5520  13.5552  13.5859  13.5973
    13.6364  13.6408  13.6869  13.7336  13.7671  13.7814  13.8493  13.9057
    13.9940  14.0764  14.1023  14.1345  14.2440  14.2610  14.2987  14.3837
    14.4373  14.4495  14.5151  14.5525  14.5915  14.6060  14.6317  14.6632
    14.7515  14.7954  14.8246  14.8317  14.9555  14.9570  15.0394  15.0674
    15.0857  15.1713  15.2533  15.2597  15.2939  15.3187  15.5493  15.5681
    15.6284  15.6743  15.6946  15.7613  15.8718  15.8848  15.9765  15.9834
    15.9840  16.0511  16.1067  16.2483  16.2949  16.3446  16.3907  16.6575
    16.7593  16.8007  16.8407  17.1325  17.2630  17.3112  17.5565  17.5756
    17.5938  17.7184  18.0548  18.2593  18.2848  18.3045  19.0177  19.0575
    19.2946  19.3380  19.3509  20.0077  20.1807  20.3594  20.9740  21.0059
    21.3149  21.4879  22.3192  22.5472  22.8258  23.0573  23.1184  23.2261
    23.2438  23.3366  23.9667  23.9793  24.4668  24.5673  24.6962  24.8503
    24.9527

          k =-0.5000 0.2357 0.0000 ( 17778 PWs)   bands (ev):

     0.1336   0.2374   0.3354   0.6501   1.2445   1.3647   1.3819   1.3874
     2.1187   2.1583   2.3501   2.3997   4.4910   4.7146   4.8965   5.8435
     6.0492   6.5118   7.2074   7.7306   9.3174   9.3178  10.2015  10.3916
    10.6137  10.7942  10.8163  10.9556  11.0044  11.0759  11.1795  11.1845
    11.2377  11.3083  11.3354  11.3563  11.4462  11.4775  11.5215  11.5295
    11.5670  11.5931  11.6601  11.7419  11.9508  12.1228  12.1374  12.1859
    12.2655  12.3153  12.4539  12.4853  12.5251  12.5478  12.5597  12.5759
    12.6446  12.6479  12.6753  12.7742  12.8541  12.8651  12.8857  12.9267
    12.9636  13.0084  13.0670  13.0705  13.0829  13.0880  13.1104  13.1189
    13.1750  13.2079  13.2117  13.2366  13.2783  13.2939  13.3266  13.3724
    13.3863  13.4148  13.4327  13.4970  13.5574  13.5656  13.5711  13.5759
    13.5888  13.6676  13.7368  13.7942  13.8137  13.8146  13.8496  13.8778
    13.8786  13.9467  13.9779  14.0623  14.0940  14.1184  14.2728  14.3023
    14.3040  14.3175  14.3679  14.3864  14.4580  14.4806  14.5524  14.5535
    14.5629  14.6065  14.6553  14.6714  14.6835  14.7766  14.8859  14.9037
    15.0269  15.0847  15.1007  15.1625  15.2839  15.3305  15.3442  15.4330
    15.4609  15.4776  15.6988  15.8426  15.8475  15.8622  15.8749  15.8963
    15.8967  16.0546  16.1000  16.1490  16.2211  16.4666  16.5714  16.6465
    16.7951  16.9263  17.0033  17.0344  17.3237  17.3461  17.4901  17.5486
    17.8045  17.9724  17.9911  17.9991  18.6045  18.6384  18.7600  18.8299
    18.9236  18.9613  19.4806  20.2033  20.5508  20.6432  20.7801  20.9569
    21.0488  21.3409  22.4881  22.7392  22.9793  23.3822  23.9331  24.0867
    24.1392  24.2263  24.2989  24.3434  24.4117  24.6364  25.0741  25.1092
    25.7187

          k =-0.5000 0.2946 0.0000 ( 17762 PWs)   bands (ev):

     0.1863   0.2918   0.3297   0.5409   1.2615   1.3306   1.3874   1.3985
     2.2051   2.2396   2.3195   2.3652   4.5407   4.6665   5.0992   5.6092
     6.2106   6.6956   6.8239   7.3694   9.5848   9.6506  10.0087  10.2079
    10.8125  10.8259  10.9568  10.9584  11.0467  11.1821  11.2072  11.2551
    11.2940  11.4139  11.4622  11.5535  11.5855  11.6082  11.6143  11.6275
    11.6529  11.7042  11.8166  11.8172  11.9103  12.0375  12.1219  12.1221
    12.2096  12.2166  12.3047  12.5477  12.6263  12.6421  12.6563  12.6920
    12.6941  12.7537  12.7788  12.8163  12.8387  12.8799  12.9179  12.9585
    12.9651  12.9663  12.9775  12.9807  13.0210  13.0268  13.0348  13.1196
    13.1309  13.1991  13.2025  13.2150  13.2626  13.3287  13.3433  13.3460
    13.3885  13.4178  13.4179  13.4302  13.5055  13.5167  13.5234  13.5623
    13.5633  13.6030  13.6168  13.7043  13.7901  13.7951  13.8012  13.8188
    13.8359  13.8865  13.9268  13.9591  14.0342  14.0453  14.1104  14.1325
    14.1551  14.2169  14.2508  14.2730  14.3028  14.3448  14.4013  14.4193
    14.4669  14.4976  14.5285  14.6292  14.7207  14.7605  14.8826  14.8942
    14.9326  14.9433  15.0418  15.1362  15.1429  15.1595  15.2661  15.2884
    15.4120  15.6285  15.7068  15.7573  15.7944  15.8311  15.8334  15.8758
    15.9627  15.9888  16.0432  16.1336  16.2211  16.4830  16.6052  16.7531
    16.8504  16.8647  17.1075  17.1344  17.1887  17.2517  17.7049  17.7101
    17.7120  17.8369  18.0772  18.2524  18.2796  18.4553  18.6039  18.6995
    19.1623  19.3959  19.6808  20.2256  20.2488  20.2558  20.4018  20.5319
    22.1641  22.3846  22.7185  23.0026  23.1951  23.4963  23.5692  23.8190
    23.8601  24.2352  24.7531  24.9132  25.2019  25.2727  25.3712  25.4896
    25.9787

          k =-0.5000-0.3536 0.0000 ( 17712 PWs)   bands (ev):

     0.2408   0.2408   0.4324   0.4324   1.2902   1.2902   1.3987   1.3987
     2.2723   2.2723   2.3110   2.3110   4.6028   4.6028   5.3417   5.3417
     6.4785   6.4785   7.0065   7.0065   9.8108   9.8108   9.9566   9.9566
    10.8369  10.8369  11.0443  11.0443  11.1650  11.1650  11.2301  11.2301
    11.2846  11.2847  11.6006  11.6006  11.6205  11.6205  11.6875  11.6875
    11.8288  11.8288  11.8923  11.8923  11.9388  11.9388  12.0161  12.0161
    12.1524  12.1524  12.3952  12.3952  12.6578  12.6578  12.7400  12.7400
    12.7880  12.7880  12.8267  12.8267  12.9014  12.9014  12.9255  12.9255
    12.9530  12.9531  13.0398  13.0398  13.0509  13.0509  13.1040  13.1040
    13.1873  13.1873  13.1946  13.1946  13.2635  13.2635  13.2782  13.2782
    13.2830  13.2830  13.3995  13.3995  13.4692  13.4692  13.4823  13.4823
    13.5653  13.5653  13.6340  13.6340  13.6873  13.6873  13.8083  13.8083
    13.8184  13.8184  13.9889  13.9889  14.0086  14.0086  14.1020  14.1020
    14.1845  14.1845  14.2545  14.2545  14.2791  14.2791  14.3544  14.3544
    14.4105  14.4105  14.5021  14.5021  14.7915  14.7915  14.8339  14.8339
    15.0012  15.0012  15.0178  15.0178  15.1111  15.1111  15.1712  15.1713
    15.5590  15.5590  15.7735  15.7735  15.8089  15.8089  15.8276  15.8276
    15.9401  15.9401  16.0698  16.0698  16.3457  16.3457  16.7312  16.7312
    16.9373  16.9373  16.9521  16.9521  17.4481  17.4481  17.4704  17.4704
    17.9726  17.9726  18.1403  18.1403  18.3402  18.3402  18.4771  18.4771
    19.7137  19.7137  19.9328  19.9328  19.9420  19.9420  20.3336  20.3336
    22.9637  22.9637  23.2716  23.2716  23.4287  23.4287  23.6013  23.6014
    23.6147  23.6147  23.9921  23.9922  26.3280  26.3287  26.4241  26.4253
    26.4748

     the Fermi energy is    18.1201 ev

!    total energy              =  -21687.74985253 Ry

     total all-electron energy =  -1064655.440402 Ry
     estimated scf accuracy    <       0.00000058 Ry
     smearing contrib. (-TS)   =      -0.02321146 Ry
     internal energy E=F+TS    =  -21687.72664107 Ry

     The total energy is F=E-TS. E is the sum of the following terms:
     one-electron contribution =      66.72596071 Ry
     hartree contribution      =     387.55636859 Ry
     xc contribution           =    -907.24326899 Ry
     ewald contribution        =   -1841.03167455 Ry
     one-center paw contrib.   =  -19393.73402683 Ry

     convergence has been achieved in  20 iterations

     Forces acting on atoms (cartesian axes, Ry/au):

     atom    1 type  1   force =    -0.69733367   -0.00000274    7.23048889
     atom    2 type  1   force =    -0.69733367    0.00000274    7.23048889
     atom    3 type  1   force =    -1.03646807    0.00000000    7.35717481
     atom    4 type  1   force =    -1.03647138    0.00000000    7.35719233
     atom    5 type  1   force =     0.00875289    0.00000942    0.02962341
     atom    6 type  1   force =     0.00875289   -0.00000942    0.02962341
     atom    7 type  1   force =     0.00046012    0.00000000   -0.00044303
     atom    8 type  1   force =     0.00045747    0.00000000   -0.00044987
     atom    9 type  1   force =    -0.00055812    0.00000335    0.00164964
     atom   10 type  1   force =    -0.00055812   -0.00000335    0.00164964
     atom   11 type  1   force =     0.00037164    0.00000000   -0.00067192
     atom   12 type  1   force =     0.00037091    0.00000000   -0.00067638
     atom   13 type  1   force =    -0.00484663    0.00000049    0.00189425
     atom   14 type  1   force =    -0.00484663   -0.00000049    0.00189425
     atom   15 type  1   force =     0.03263611    0.00000000   -0.01104677
     atom   16 type  1   force =     0.03263389    0.00000000   -0.01104006
     atom   17 type  1   force =    -0.03305044    0.00000451    0.01022237
     atom   18 type  1   force =    -0.03305044   -0.00000451    0.01022237
     atom   19 type  1   force =     0.00579986    0.00000000   -0.00221320
     atom   20 type  1   force =     0.00580133    0.00000000   -0.00221192
     atom   21 type  1   force =    -0.00082171    0.00000417    0.00060738
     atom   22 type  1   force =    -0.00082171   -0.00000417    0.00060738
     atom   23 type  1   force =    -0.00881084    0.00000000   -0.02958465
     atom   24 type  1   force =    -0.00881318    0.00000000   -0.02959341
     atom   25 type  1   force =     1.03662582   -0.00000376   -7.35717684
     atom   26 type  1   force =     1.03662582    0.00000376   -7.35717684
     atom   27 type  1   force =     0.69724765    0.00000000   -7.23053588
     atom   28 type  1   force =     0.69724821    0.00000000   -7.23051825

     Total force =    20.781836     Total SCF correction =     0.002849

     Writing all to output data dir ./pwscf.save/
 
     init_run     :     15.06s CPU     15.48s WALL (       1 calls)
     electrons    :    849.18s CPU    858.30s WALL (       1 calls)
     forces       :      6.55s CPU      6.61s WALL (       1 calls)

     Called by init_run:
     wfcinit      :     14.35s CPU     14.65s WALL (       1 calls)
     potinit      :      0.41s CPU      0.46s WALL (       1 calls)
     hinit0       :      0.15s CPU      0.18s WALL (       1 calls)

     Called by electrons:
     c_bands      :    769.22s CPU    777.47s WALL (      20 calls)
     sum_band     :     72.58s CPU     73.24s WALL (      20 calls)
     v_of_rho     :      0.43s CPU      0.54s WALL (      21 calls)
     newd         :      0.72s CPU      0.81s WALL (      21 calls)
     PAW_pot      :      6.54s CPU      6.56s WALL (      21 calls)
     mix_rho      :      0.08s CPU      0.08s WALL (      20 calls)

     Called by c_bands:
     init_us_2    :      4.42s CPU      4.45s WALL (    1470 calls)
     init_us_2:cp :      4.41s CPU      4.45s WALL (    1470 calls)
     cegterg      :    736.84s CPU    744.80s WALL (     700 calls)

     Called by *egterg:
     cdiaghg      :     84.81s CPU     85.51s WALL (    3977 calls)
     h_psi        :    347.85s CPU    351.93s WALL (    4012 calls)
     s_psi        :     70.52s CPU     70.82s WALL (    4012 calls)
     g_psi        :      1.13s CPU      1.14s WALL (    3277 calls)

     Called by h_psi:
     h_psi:calbec :     78.19s CPU     78.46s WALL (    4012 calls)
     vloc_psi     :    192.50s CPU    194.89s WALL (    4012 calls)
     add_vuspsi   :     75.89s CPU     76.15s WALL (    4012 calls)

     General routines
     calbec       :    111.28s CPU    111.65s WALL (    4852 calls)
     fft          :      0.42s CPU      0.59s WALL (     242 calls)
     ffts         :      0.02s CPU      0.02s WALL (      20 calls)
     fftw         :    211.55s CPU    213.94s WALL (  802478 calls)
 
     Parallel routines
 
     PWSCF        :  14m38.09s CPU  14m56.83s WALL

 
   This run was terminated on:   8:26:45   2Mar2024            

=------------------------------------------------------------------------------=
   JOB DONE.
=------------------------------------------------------------------------------=
