MPI startup(): Warning: I_MPI_PMI_LIBRARY will be ignored since the hydra process manager was found
MPI startup(): Warning: I_MPI_PMI_LIBRARY will be ignored since the hydra process manager was found
MPI startup(): Warning: I_MPI_PMI_LIBRARY will be ignored since the hydra process manager was found
MPI startup(): Warning: I_MPI_PMI_LIBRARY will be ignored since the hydra process manager was found
MPI startup(): Warning: I_MPI_PMI_LIBRARY will be ignored since the hydra process manager was found
MPI startup(): Warning: I_MPI_PMI_LIBRARY will be ignored since the hydra process manager was found
MPI startup(): Warning: I_MPI_PMI_LIBRARY will be ignored since the hydra process manager was found
MPI startup(): Warning: I_MPI_PMI_LIBRARY will be ignored since the hydra process manager was found
MPI startup(): Warning: I_MPI_PMI_LIBRARY will be ignored since the hydra process manager was found
MPI startup(): Warning: I_MPI_PMI_LIBRARY will be ignored since the hydra process manager was found

     Program PWSCF v.7.0 starts on 18Mar2024 at 11:12:27 

     This program is part of the open-source Quantum ESPRESSO suite
     for quantum simulation of materials; please cite
         "P. Giannozzi et al., J. Phys.:Condens. Matter 21 395502 (2009);
         "P. Giannozzi et al., J. Phys.:Condens. Matter 29 465901 (2017);
         "P. Giannozzi et al., J. Chem. Phys. 152 154105 (2020);
          URL http://www.quantum-espresso.org", 
     in publications or presentations arising from this work. More details at
     http://www.quantum-espresso.org/quote

     Parallel version (MPI), running on    10 processors

     MPI processes distributed on     1 nodes
     R & G space division:  proc/nbgrp/npool/nimage =      10
     139544 MiB available memory on the printing compute node when the environment starts
 
     Reading input from GSF110R_0.0.in
Warning: card &CELL ignored
Warning: card / ignored

     Current dimensions of program PWSCF are:
     Max number of different atomic species (ntypx) = 10
     Max number of k-points (npk) =  40000
     Max angular momentum in pseudopotentials (lmaxx) =  4
     file Au.pbe-n-kjpaw_psl.1.0.0.UPF: wavefunction(s)  6S 5D renormalized
     Found identity + (  0.0000 -0.5000  0.0000) symmetry
     This is a supercell, fractional translations are disabled

     Subspace diagonalization in iterative solution of the eigenvalue problem:
     one sub-group per band group will be used
     scalapack distributed-memory algorithm (size of sub-group:  3*  3 procs)

 
     Parallelization info
     --------------------
     sticks:   dense  smooth     PW     G-vecs:    dense   smooth      PW
     Min         167     133     38                19889    14227    2178
     Max         168     134     39                19904    14242    2183
     Sum        1677    1339    389               198971   142317   21821
 
     Using Slab Decomposition
 


     bravais-lattice index     =            0
     lattice parameter (alat)  =       7.7101  a.u.
     unit-cell volume          =    2979.1368 (a.u.)^3
     number of atoms/cell      =           28
     number of atomic types    =            1
     number of electrons       =       308.00
     number of Kohn-Sham states=          185
     kinetic-energy cutoff     =      50.0000  Ry
     charge density cutoff     =     250.0000  Ry
     scf convergence threshold =      1.0E-06
     mixing beta               =       0.1000
     number of iterations used =            8  plain     mixing
     energy convergence thresh.=      1.0E-04
     force convergence thresh. =      1.0E-03
     Exchange-correlation= SLA  PW   PBX  PBC
                           (   1   4   3   4   0   0   0)
     nstep                     =           50


     celldm(1)=   7.710083  celldm(2)=   0.000000  celldm(3)=   0.000000
     celldm(4)=   0.000000  celldm(5)=   0.000000  celldm(6)=   0.000000

     crystal axes: (cart. coord. in units of alat)
               a(1) = (   1.000000   0.000000   0.000000 )  
               a(2) = (   0.000000   1.414214   0.000000 )  
               a(3) = (   0.000000   0.000000   4.596194 )  

     reciprocal axes: (cart. coord. in units 2 pi/alat)
               b(1) = (  1.000000  0.000000  0.000000 )  
               b(2) = (  0.000000  0.707107  0.000000 )  
               b(3) = (  0.000000  0.000000  0.217571 )  


     PseudoPot. # 1 for Au read from file:
     ./Au.pbe-n-kjpaw_psl.1.0.0.UPF
     MD5 check sum: 4db85c736373c707a97ce4c36c2a9d23
     Pseudo is Projector augmented-wave + core cor, Zval = 11.0
     Generated using &quot;atomic&quot; code by A. Dal Corso  v.6.3
     Shape of augmentation charge: PSQ
     Using radial grid of 1279 points,  6 beta functions with: 
                l(1) =   0
                l(2) =   0
                l(3) =   1
                l(4) =   1
                l(5) =   2
                l(6) =   2
     Q(r) pseudized with 0 coefficients 


     atomic species   valence    mass     pseudopotential
        Au            11.00   196.96657     Au( 1.00)

     No symmetry found



   Cartesian axes

     site n.     atom                  positions (alat units)
         1           Au  tau(   1) = (   0.5000000   0.3535534   0.0000000  )
         2           Au  tau(   2) = (   0.5000000   1.0606602   0.0000000  )
         3           Au  tau(   3) = (   0.0000000   0.0000000   0.3535534  )
         4           Au  tau(   4) = (   0.0000000   0.7071068   0.3535534  )
         5           Au  tau(   5) = (   0.5000000   0.3535534   0.7071068  )
         6           Au  tau(   6) = (   0.5000000   1.0606602   0.7071068  )
         7           Au  tau(   7) = (   0.0000000   0.0000000   1.0606602  )
         8           Au  tau(   8) = (   0.0000000   0.7071068   1.0606602  )
         9           Au  tau(   9) = (   0.5000000   0.3535534   1.4142136  )
        10           Au  tau(  10) = (   0.5000000   1.0606602   1.4142136  )
        11           Au  tau(  11) = (   0.0000000   0.0000000   1.7677670  )
        12           Au  tau(  12) = (   0.0000000   0.7071068   1.7677670  )
        13           Au  tau(  13) = (   0.5000000   0.3535534   2.1213203  )
        14           Au  tau(  14) = (   0.5000000   1.0606602   2.1213203  )
        15           Au  tau(  15) = (   0.0000000   0.0000000   2.4748737  )
        16           Au  tau(  16) = (   0.0000000   0.7071068   2.4748737  )
        17           Au  tau(  17) = (   0.5000000   0.3535534   2.8284271  )
        18           Au  tau(  18) = (   0.5000000   1.0606602   2.8284271  )
        19           Au  tau(  19) = (   0.0000000   0.0000000   3.1819805  )
        20           Au  tau(  20) = (   0.0000000   0.7071068   3.1819805  )
        21           Au  tau(  21) = (   0.5000000   0.3535534   3.5355339  )
        22           Au  tau(  22) = (   0.5000000   1.0606602   3.5355339  )
        23           Au  tau(  23) = (   0.0000000   0.0000000   3.8890873  )
        24           Au  tau(  24) = (   0.0000000   0.7071068   3.8890873  )
        25           Au  tau(  25) = (   0.5000000   0.3535534   4.2426407  )
        26           Au  tau(  26) = (   0.5000000   1.0606602   4.2426407  )
        27           Au  tau(  27) = (   0.0000000   0.0000000   4.5961941  )
        28           Au  tau(  28) = (   0.0000000   0.7071068   4.5961941  )

     number of k points=    50  Gaussian smearing, width (Ry)=  0.2000
                       cart. coord. in units 2pi/alat
        k(    1) = (   0.0000000   0.0000000   0.0000000), wk =   0.0208333
        k(    2) = (   0.0000000   0.0589256   0.0000000), wk =   0.0416667
        k(    3) = (   0.0000000   0.1178511   0.0000000), wk =   0.0416667
        k(    4) = (   0.0000000   0.1767767   0.0000000), wk =   0.0416667
        k(    5) = (   0.0000000   0.2357023   0.0000000), wk =   0.0416667
        k(    6) = (   0.0000000   0.2946278   0.0000000), wk =   0.0416667
        k(    7) = (   0.0000000  -0.3535534   0.0000000), wk =   0.0208333
        k(    8) = (   0.1250000   0.0000000   0.0000000), wk =   0.0416667
        k(    9) = (   0.1250000   0.0589256   0.0000000), wk =   0.0416667
        k(   10) = (   0.1250000   0.1178511   0.0000000), wk =   0.0416667
        k(   11) = (   0.1250000   0.1767767   0.0000000), wk =   0.0416667
        k(   12) = (   0.1250000   0.2357023   0.0000000), wk =   0.0416667
        k(   13) = (   0.1250000   0.2946278   0.0000000), wk =   0.0416667
        k(   14) = (   0.1250000  -0.3535534   0.0000000), wk =   0.0416667
        k(   15) = (   0.1250000  -0.2946278   0.0000000), wk =   0.0416667
        k(   16) = (   0.1250000  -0.2357023   0.0000000), wk =   0.0416667
        k(   17) = (   0.1250000  -0.1767767   0.0000000), wk =   0.0416667
        k(   18) = (   0.1250000  -0.1178511   0.0000000), wk =   0.0416667
        k(   19) = (   0.1250000  -0.0589256   0.0000000), wk =   0.0416667
        k(   20) = (   0.2500000   0.0000000   0.0000000), wk =   0.0416667
        k(   21) = (   0.2500000   0.0589256   0.0000000), wk =   0.0416667
        k(   22) = (   0.2500000   0.1178511   0.0000000), wk =   0.0416667
        k(   23) = (   0.2500000   0.1767767   0.0000000), wk =   0.0416667
        k(   24) = (   0.2500000   0.2357023   0.0000000), wk =   0.0416667
        k(   25) = (   0.2500000   0.2946278   0.0000000), wk =   0.0416667
        k(   26) = (   0.2500000  -0.3535534   0.0000000), wk =   0.0416667
        k(   27) = (   0.2500000  -0.2946278   0.0000000), wk =   0.0416667
        k(   28) = (   0.2500000  -0.2357023   0.0000000), wk =   0.0416667
        k(   29) = (   0.2500000  -0.1767767   0.0000000), wk =   0.0416667
        k(   30) = (   0.2500000  -0.1178511   0.0000000), wk =   0.0416667
        k(   31) = (   0.2500000  -0.0589256   0.0000000), wk =   0.0416667
        k(   32) = (   0.3750000   0.0000000   0.0000000), wk =   0.0416667
        k(   33) = (   0.3750000   0.0589256   0.0000000), wk =   0.0416667
        k(   34) = (   0.3750000   0.1178511   0.0000000), wk =   0.0416667
        k(   35) = (   0.3750000   0.1767767   0.0000000), wk =   0.0416667
        k(   36) = (   0.3750000   0.2357023   0.0000000), wk =   0.0416667
        k(   37) = (   0.3750000   0.2946278   0.0000000), wk =   0.0416667
        k(   38) = (   0.3750000  -0.3535534   0.0000000), wk =   0.0416667
        k(   39) = (   0.3750000  -0.2946278   0.0000000), wk =   0.0416667
        k(   40) = (   0.3750000  -0.2357023   0.0000000), wk =   0.0416667
        k(   41) = (   0.3750000  -0.1767767   0.0000000), wk =   0.0416667
        k(   42) = (   0.3750000  -0.1178511   0.0000000), wk =   0.0416667
        k(   43) = (   0.3750000  -0.0589256   0.0000000), wk =   0.0416667
        k(   44) = (  -0.5000000   0.0000000   0.0000000), wk =   0.0208333
        k(   45) = (  -0.5000000   0.0589256   0.0000000), wk =   0.0416667
        k(   46) = (  -0.5000000   0.1178511   0.0000000), wk =   0.0416667
        k(   47) = (  -0.5000000   0.1767767   0.0000000), wk =   0.0416667
        k(   48) = (  -0.5000000   0.2357023   0.0000000), wk =   0.0416667
        k(   49) = (  -0.5000000   0.2946278   0.0000000), wk =   0.0416667
        k(   50) = (  -0.5000000  -0.3535534   0.0000000), wk =   0.0208333

     Dense  grid:   198971 G-vectors     FFT dimensions: (  40,  60, 180)

     Smooth grid:   142317 G-vectors     FFT dimensions: (  36,  50, 160)

     Estimated max dynamical RAM per process >     363.77 MB

     Estimated total dynamical RAM >       3.55 GB

     Initial potential from superposition of free atoms

     starting charge     307.9969, renormalised to     308.0000
     Starting wfcs are  252 randomized atomic wfcs
     Checking if some PAW data can be deallocated... 

     total cpu time spent up to now is       26.2 secs

     Self-consistent Calculation

     iteration #  1     ecut=    50.00 Ry     beta= 0.10
     Davidson diagonalization with overlap
     ethr =  1.00E-02,  avg # of iterations =  4.5

     total cpu time spent up to now is       97.8 secs

     total energy              =  -21683.88364806 Ry
     estimated scf accuracy    <      30.32617482 Ry

     iteration #  2     ecut=    50.00 Ry     beta= 0.10
     Davidson diagonalization with overlap
     ethr =  9.85E-03,  avg # of iterations =  7.7

     total cpu time spent up to now is      167.5 secs

     total energy              =  -21680.42495977 Ry
     estimated scf accuracy    <     442.14045239 Ry

     iteration #  3     ecut=    50.00 Ry     beta= 0.10
     Davidson diagonalization with overlap
     ethr =  9.85E-03,  avg # of iterations =  4.6

     total cpu time spent up to now is      224.7 secs

     total energy              =  -21688.59071889 Ry
     estimated scf accuracy    <       3.37413881 Ry

     iteration #  4     ecut=    50.00 Ry     beta= 0.10
     Davidson diagonalization with overlap
     ethr =  1.10E-03,  avg # of iterations =  7.4

     total cpu time spent up to now is      291.2 secs

     total energy              =  -21688.36250418 Ry
     estimated scf accuracy    <       1.28546158 Ry

     iteration #  5     ecut=    50.00 Ry     beta= 0.10
     Davidson diagonalization with overlap
     ethr =  4.17E-04,  avg # of iterations =  6.4

     total cpu time spent up to now is      360.0 secs

     total energy              =  -21688.38926464 Ry
     estimated scf accuracy    <       0.51589329 Ry

     iteration #  6     ecut=    50.00 Ry     beta= 0.10
     Davidson diagonalization with overlap
     ethr =  1.67E-04,  avg # of iterations =  8.0

     total cpu time spent up to now is      447.1 secs

     total energy              =  -21688.51263376 Ry
     estimated scf accuracy    <       0.25937203 Ry

     iteration #  7     ecut=    50.00 Ry     beta= 0.10
     Davidson diagonalization with overlap
     c_bands:  3 eigenvalues not converged
     ethr =  8.42E-05,  avg # of iterations =  3.9

     total cpu time spent up to now is      503.3 secs

     total energy              =  -21688.52949256 Ry
     estimated scf accuracy    <       0.12432169 Ry

     iteration #  8     ecut=    50.00 Ry     beta= 0.10
     Davidson diagonalization with overlap
     c_bands:  4 eigenvalues not converged
     ethr =  4.04E-05,  avg # of iterations =  5.5

     total cpu time spent up to now is      563.9 secs

     total energy              =  -21688.52175733 Ry
     estimated scf accuracy    <       0.06170532 Ry

     iteration #  9     ecut=    50.00 Ry     beta= 0.10
     Davidson diagonalization with overlap
     c_bands:  1 eigenvalues not converged
     c_bands:  1 eigenvalues not converged
     c_bands:  1 eigenvalues not converged
     ethr =  2.00E-05,  avg # of iterations =  8.5

     total cpu time spent up to now is      656.6 secs

     total energy              =  -21688.51724501 Ry
     estimated scf accuracy    <       0.23219991 Ry

     iteration # 10     ecut=    50.00 Ry     beta= 0.10
     Davidson diagonalization with overlap
     ethr =  2.00E-05,  avg # of iterations =  5.3

     total cpu time spent up to now is      728.0 secs

     total energy              =  -21688.54218728 Ry
     estimated scf accuracy    <       0.00556356 Ry

     iteration # 11     ecut=    50.00 Ry     beta= 0.10
     Davidson diagonalization with overlap
     c_bands:  1 eigenvalues not converged
     c_bands:  1 eigenvalues not converged
     c_bands:  1 eigenvalues not converged
     c_bands:  1 eigenvalues not converged
     c_bands:  1 eigenvalues not converged
     c_bands:  1 eigenvalues not converged
     c_bands:  1 eigenvalues not converged
     c_bands:  1 eigenvalues not converged
     c_bands:  1 eigenvalues not converged
     ethr =  1.81E-06,  avg # of iterations = 11.9

     total cpu time spent up to now is      842.0 secs

     total energy              =  -21688.54287651 Ry
     estimated scf accuracy    <       0.00517884 Ry

     iteration # 12     ecut=    50.00 Ry     beta= 0.10
     Davidson diagonalization with overlap
     c_bands:  1 eigenvalues not converged
     ethr =  1.68E-06,  avg # of iterations =  3.2

     total cpu time spent up to now is      897.8 secs

     total energy              =  -21688.54356446 Ry
     estimated scf accuracy    <       0.00086623 Ry

     iteration # 13     ecut=    50.00 Ry     beta= 0.10
     Davidson diagonalization with overlap
     c_bands:  1 eigenvalues not converged
     ethr =  2.81E-07,  avg # of iterations =  4.8

     total cpu time spent up to now is      971.8 secs

     total energy              =  -21688.54361877 Ry
     estimated scf accuracy    <       0.00036416 Ry

     iteration # 14     ecut=    50.00 Ry     beta= 0.10
     Davidson diagonalization with overlap
     ethr =  1.18E-07,  avg # of iterations =  5.7

     total cpu time spent up to now is     1059.6 secs

     total energy              =  -21688.54363134 Ry
     estimated scf accuracy    <       0.00067611 Ry

     iteration # 15     ecut=    50.00 Ry     beta= 0.10
     Davidson diagonalization with overlap
     ethr =  1.18E-07,  avg # of iterations =  2.7

     total cpu time spent up to now is     1127.7 secs

     total energy              =  -21688.54374896 Ry
     estimated scf accuracy    <       0.00010605 Ry

     iteration # 16     ecut=    50.00 Ry     beta= 0.10
     Davidson diagonalization with overlap
     ethr =  3.44E-08,  avg # of iterations =  2.9

     total cpu time spent up to now is     1184.2 secs

     total energy              =  -21688.54377370 Ry
     estimated scf accuracy    <       0.00003627 Ry

     iteration # 17     ecut=    50.00 Ry     beta= 0.10
     Davidson diagonalization with overlap
     ethr =  1.18E-08,  avg # of iterations =  4.9

     total cpu time spent up to now is     1256.5 secs

     total energy              =  -21688.54378946 Ry
     estimated scf accuracy    <       0.00003348 Ry

     iteration # 18     ecut=    50.00 Ry     beta= 0.10
     Davidson diagonalization with overlap
     ethr =  1.09E-08,  avg # of iterations =  2.0

     total cpu time spent up to now is     1310.1 secs

     total energy              =  -21688.54380606 Ry
     estimated scf accuracy    <       0.00004877 Ry

     iteration # 19     ecut=    50.00 Ry     beta= 0.10
     Davidson diagonalization with overlap
     ethr =  1.09E-08,  avg # of iterations =  1.3

     total cpu time spent up to now is     1357.7 secs

     total energy              =  -21688.54382383 Ry
     estimated scf accuracy    <       0.00000332 Ry

     iteration # 20     ecut=    50.00 Ry     beta= 0.10
     Davidson diagonalization with overlap
     ethr =  1.08E-09,  avg # of iterations =  5.5

     total cpu time spent up to now is     1443.5 secs

     total energy              =  -21688.54383749 Ry
     estimated scf accuracy    <       0.00000120 Ry

     iteration # 21     ecut=    50.00 Ry     beta= 0.10
     Davidson diagonalization with overlap
     ethr =  3.91E-10,  avg # of iterations =  4.1

     total cpu time spent up to now is     1513.0 secs

     End of self-consistent calculation

          k = 0.0000 0.0000 0.0000 ( 17807 PWs)   bands (ev):

    -0.3859   0.1272   0.1272   0.1858   0.4887   0.4887   0.6052   1.2614
     1.2904   1.6991   2.2301   2.2301   3.5476   4.3749   5.0004   5.0004
     6.0035   6.2956   6.2957   6.4629   8.4183   8.4617   8.8059   9.7147
     9.7655  10.3265  10.6803  10.6803  10.8164  10.8514  10.8514  10.9461
    11.0867  11.1442  11.1442  11.2352  11.2352  11.3214  11.3523  11.3523
    11.4333  11.4913  11.5370  11.5386  11.5386  11.6296  11.6296  11.7089
    11.7856  11.9023  11.9288  11.9288  11.9403  11.9403  12.0246  12.0246
    12.0394  12.2129  12.2331  12.2331  12.2741  12.2741  12.5157  12.5985
    12.6542  12.6542  12.6742  12.6754  12.7703  12.8091  12.8394  12.8394
    13.0190  13.0190  13.0400  13.1883  13.2219  13.2306  13.2915  13.3276
    13.3655  13.3780  13.5278  13.5585  13.6186  13.6295  13.7765  13.8124
    13.9805  13.9805  14.1701  14.1873  14.1993  14.2146  14.2552  14.2552
    14.2613  14.3442  14.4211  14.4211  14.5596  14.5763  14.5905  14.6673
    14.6673  14.7380  14.7679  14.7679  14.7850  14.8044  14.8222  14.8951
    15.0148  15.0932  15.0932  15.1521  15.1640  15.1640  15.1724  15.4107
    15.4303  15.5109  15.5109  15.5141  15.5141  15.6913  15.7772  15.7793
    15.8203  15.8203  15.8988  15.8988  15.9187  15.9187  16.0696  16.1822
    16.1822  16.2202  16.2202  16.2631  16.4897  16.8784  16.8784  16.9253
    16.9674  16.9674  16.9730  17.0093  17.5220  17.5220  17.6985  17.8191
    17.8191  17.9901  17.9901  18.0041  18.3611  18.3612  18.8289  18.8289
    19.8771  20.1664  20.2606  20.5900  21.1591  21.5281  21.5281  22.3764
    22.7839  22.8636  22.8636  23.1075  23.1792  23.6589  24.2390  24.7244
    24.7244  24.9044  24.9044  25.0382  25.0382  25.3434  25.6517  25.7234
    25.8362

          k = 0.0000 0.0589 0.0000 ( 17795 PWs)   bands (ev):

    -0.3783   0.1077   0.1687   0.2108   0.3770   0.5986   0.5992   1.2244
     1.2841   1.7424   2.1032   2.3251   3.5695   4.3728   4.8108   5.2301
     6.0213   6.0799   6.4459   6.4910   8.4552   8.5017   8.7250   9.7483
     9.8018  10.3578  10.5684  10.6253  10.7747  10.8496  10.8606  10.9696
    11.0505  11.1147  11.1423  11.2075  11.2763  11.3436  11.3623  11.3771
    11.4635  11.4636  11.5130  11.5474  11.5688  11.5705  11.6797  11.7294
    11.7345  11.7759  11.9180  11.9384  11.9474  11.9791  11.9919  12.0606
    12.1388  12.2293  12.2549  12.2603  12.3426  12.4901  12.5339  12.5951
    12.6012  12.6500  12.6575  12.6845  12.7278  12.7587  12.7832  12.8898
    13.0209  13.0615  13.1445  13.1495  13.1671  13.1860  13.2213  13.3372
    13.3692  13.3975  13.4981  13.5204  13.5932  13.6243  13.7473  13.8530
    13.9271  14.0040  14.1771  14.2172  14.2221  14.2512  14.2528  14.3251
    14.3522  14.4070  14.4117  14.4313  14.5414  14.6107  14.6180  14.6256
    14.6411  14.6945  14.7055  14.7495  14.7816  14.8129  14.8490  14.8794
    15.0375  15.0794  15.0862  15.0972  15.1265  15.1667  15.1762  15.3979
    15.4358  15.4705  15.5061  15.5350  15.5360  15.6920  15.7192  15.7455
    15.8023  15.8086  15.8373  15.8949  15.9236  15.9386  16.0326  16.1259
    16.1555  16.1960  16.2125  16.2268  16.4888  16.5500  16.9212  16.9526
    16.9554  16.9567  17.0147  17.1279  17.1308  17.2020  17.2489  17.3862
    17.7091  17.9860  18.1284  18.2903  18.5669  18.7192  19.2780  19.3319
    19.9161  20.2645  20.2762  20.5623  21.2321  21.3811  21.8877  22.3946
    22.6330  22.8113  23.1566  23.1625  23.3284  23.6354  24.1480  24.2386
    24.2577  24.2679  25.3398  25.4639  25.5441  25.6415  25.6620  25.7991
    25.8377

          k = 0.0000 0.1179 0.0000 ( 17803 PWs)   bands (ev):

    -0.3556   0.1097   0.2316   0.2663   0.2796   0.5844   0.7065   1.1369
     1.2651   1.8462   1.9454   2.3883   3.6366   4.3670   4.6595   5.5003
     5.8039   6.0716   6.5327   6.5775   8.4997   8.5647   8.6205   9.8463
     9.9086   9.9298  10.4496  10.6098  10.7929  10.9072  10.9384  11.0431
    11.0791  11.1149  11.1913  11.1965  11.3405  11.4076  11.4133  11.4349
    11.4424  11.4508  11.5178  11.5482  11.5764  11.5915  11.5978  11.6406
    11.6507  11.8056  11.8267  11.9307  11.9701  12.0232  12.0612  12.1442
    12.2067  12.2802  12.2960  12.3520  12.4465  12.5433  12.5466  12.5769
    12.5789  12.5879  12.6063  12.6127  12.6671  12.7228  12.9082  12.9151
    12.9810  13.0171  13.1036  13.1382  13.1764  13.2458  13.2544  13.2894
    13.3249  13.4071  13.4537  13.4881  13.6273  13.6481  13.7245  13.8628
    13.9310  13.9572  14.1871  14.2152  14.2321  14.2758  14.2971  14.4061
    14.4517  14.4525  14.4601  14.4722  14.5094  14.5206  14.6238  14.6443
    14.6535  14.6721  14.6874  14.7742  14.8322  14.8413  14.8455  14.8808
    14.8962  14.9708  14.9948  15.0999  15.1870  15.2014  15.2283  15.3086
    15.3707  15.4075  15.5030  15.5164  15.5468  15.6046  15.6545  15.6914
    15.7193  15.7267  15.7806  15.7985  15.9157  15.9224  15.9259  15.9822
    16.0584  16.2161  16.2178  16.2184  16.3303  16.4989  16.5467  16.5693
    16.6178  16.6947  16.8910  16.9097  16.9139  16.9292  17.0343  17.4547
    17.7389  17.7657  18.2434  18.4242  19.2413  19.4253  20.0295  20.0928
    20.1019  20.3037  20.4876  20.5523  21.2868  21.4477  22.3416  22.4503
    22.7320  22.8857  23.1094  23.3020  23.4438  23.5570  23.6587  23.7916
    24.0907  24.3547  25.0442  25.1843  25.3583  25.3945  25.6556  25.6861
    25.8403

          k = 0.0000 0.1768 0.0000 ( 17795 PWs)   bands (ev):

    -0.3183   0.1313   0.1585   0.3144   0.3600   0.5925   0.8085   1.0265
     1.2337   1.7593   1.9759   2.4200   3.7538   4.3601   4.5440   5.4810
     5.8104   6.1469   6.5631   6.7280   8.1704   8.7428   8.8151   9.2606
    10.0006  10.0789  10.5950  10.6051  10.6333  11.0460  11.0559  11.0756
    11.1346  11.1676  11.1802  11.1960  11.2201  11.2948  11.4186  11.4341
    11.4869  11.5230  11.5336  11.5391  11.6438  11.6895  11.6984  11.7234
    11.7377  11.7443  11.9157  11.9256  11.9810  12.1029  12.1244  12.1374
    12.2932  12.3159  12.3428  12.4041  12.4385  12.4514  12.4786  12.4878
    12.5013  12.5343  12.5838  12.6504  12.6536  12.6769  12.6953  12.9323
    12.9723  13.0775  13.1016  13.1219  13.1515  13.1588  13.2742  13.4218
    13.4290  13.4411  13.4628  13.5385  13.6946  13.7022  13.7348  13.7706
    13.7805  14.0907  14.1481  14.1770  14.1952  14.2664  14.2775  14.3313
    14.3798  14.4357  14.4475  14.4532  14.4806  14.5367  14.5538  14.6558
    14.6588  14.6866  14.7649  14.7870  14.7917  14.8522  14.8738  14.8927
    14.9520  14.9537  14.9726  15.0823  15.0921  15.1832  15.2055  15.2217
    15.2878  15.3081  15.3541  15.5155  15.5260  15.5462  15.5517  15.5561
    15.6437  15.6737  15.6865  15.7429  15.7684  15.8696  15.9129  15.9293
    15.9386  16.0557  16.1133  16.1223  16.1302  16.2008  16.2239  16.2465
    16.2906  16.5456  16.7971  16.8363  16.8888  16.8922  17.0682  17.5905
    17.6366  17.7819  18.1862  18.8043  19.9914  20.1541  20.2001  20.2080
    20.4813  20.7955  20.8792  21.0078  21.3261  21.7949  22.4431  22.5424
    22.6273  22.8017  22.9745  23.0208  23.4002  23.5384  23.9262  23.9274
    24.4189  24.4988  24.5862  24.7711  25.0049  25.3379  25.3688  25.5873
    25.6764

          k = 0.0000 0.2357 0.0000 ( 17822 PWs)   bands (ev):

    -0.2670   0.0559   0.1696   0.3770   0.4143   0.6940   0.9037   0.9048
     1.1901   1.5497   2.1090   2.4200   3.9269   4.3555   4.4607   5.1313
     6.1577   6.2369   6.5473   6.9500   7.7800   8.6415   8.9832   9.0800
    10.1964  10.3005  10.3089  10.6330  10.6940  10.7833  11.0085  11.1460
    11.1542  11.2306  11.2387  11.2765  11.2766  11.3646  11.4037  11.4806
    11.4999  11.5982  11.6381  11.6802  11.7302  11.7440  11.7698  11.8202
    11.8307  11.8456  11.8724  11.9936  12.0502  12.0726  12.1341  12.1575
    12.2232  12.2624  12.2681  12.3267  12.3700  12.3938  12.4034  12.4315
    12.5489  12.5692  12.5764  12.5935  12.6259  12.7615  12.8247  12.8305
    12.8665  12.9344  13.1561  13.1862  13.2115  13.2946  13.3347  13.4249
    13.4538  13.4819  13.5532  13.5635  13.6339  13.7004  13.7289  13.7981
    13.8722  14.0487  14.0657  14.0682  14.1118  14.2140  14.2147  14.2885
    14.2964  14.3169  14.3344  14.3911  14.4791  14.4856  14.5959  14.6041
    14.6650  14.6935  14.7107  14.7416  14.7889  14.8028  14.8266  14.8690
    14.9068  14.9546  14.9769  14.9860  14.9992  15.0779  15.0960  15.1027
    15.1430  15.1595  15.2365  15.2530  15.3451  15.4683  15.5302  15.5919
    15.6077  15.6316  15.6566  15.6617  15.6633  15.6782  15.7147  15.8427
    15.9038  15.9230  15.9371  16.2004  16.2099  16.2121  16.2174  16.2221
    16.3033  16.6115  16.6837  16.7149  16.8381  16.8684  17.1160  17.4560
    17.7834  17.8300  18.2231  19.2518  19.9023  20.4389  20.5732  20.7453
    20.8387  20.9242  21.4436  21.5960  21.8317  21.9089  22.2577  22.3948
    22.6561  22.7323  22.8385  23.0839  23.1285  23.7878  23.8580  24.3231
    24.4729  24.6943  24.6996  24.7025  24.7784  24.9043  25.1424  25.2567
    25.2667

          k = 0.0000 0.2946 0.0000 ( 17818 PWs)   bands (ev):

    -0.2027  -0.0397   0.2207   0.3362   0.5278   0.7779   0.8778   0.9906
     1.1346   1.3248   2.2288   2.3880   4.1596   4.3581   4.4053   4.7787
     6.3314   6.4963   6.5377   7.2495   7.3627   8.0954   9.2761   9.4072
     9.9618  10.2004  10.4130  10.5535  10.7895  10.8261  10.9999  11.0268
    11.0678  11.2347  11.3173  11.3478  11.4554  11.4579  11.4954  11.5058
    11.5196  11.6575  11.7378  11.7769  11.7880  11.8107  11.8156  11.8917
    11.9239  11.9786  11.9849  12.0102  12.0237  12.0254  12.0372  12.0805
    12.0884  12.1103  12.2114  12.2798  12.3097  12.3246  12.3729  12.4286
    12.5079  12.5723  12.5849  12.6128  12.6631  12.7739  12.8328  12.9518
    13.0410  13.0585  13.1063  13.1234  13.2014  13.2912  13.3210  13.4605
    13.5901  13.6076  13.6462  13.6810  13.6916  13.7086  13.7381  13.7551
    13.8473  13.9448  13.9721  13.9991  14.0827  14.1131  14.1443  14.1700
    14.2364  14.2366  14.2758  14.3824  14.4256  14.4305  14.4462  14.4476
    14.5026  14.5374  14.5536  14.6270  14.7270  14.7342  14.7551  14.8121
    14.8546  14.8657  14.8933  14.8997  14.9871  15.0126  15.0708  15.0974
    15.1081  15.1594  15.2023  15.2980  15.3288  15.3353  15.3424  15.3837
    15.4102  15.5390  15.5444  15.6583  15.6711  15.7182  15.7578  15.8858
    15.9389  15.9790  16.0099  16.1775  16.2099  16.2232  16.2404  16.3618
    16.5426  16.5645  16.5698  16.6703  16.7811  16.8304  17.1780  17.3466
    17.8732  17.8812  18.4731  19.4682  19.7778  20.6844  20.7064  20.8605
    21.0789  21.1768  21.5030  21.7346  22.2823  22.4207  22.5801  22.6801
    22.7065  22.7818  22.8015  22.8173  23.1183  23.2676  23.8508  24.1565
    24.2512  24.4220  24.7480  24.9357  24.9552  25.0707  25.1815  25.2169
    25.3445

          k = 0.0000-0.3536 0.0000 ( 17844 PWs)   bands (ev):

    -0.1265  -0.1265   0.2788   0.2788   0.6506   0.6506   1.0679   1.0679
     1.0958   1.0958   2.3238   2.3238   4.3729   4.3729   4.4479   4.4479
     6.4210   6.4210   6.9431   6.9431   7.6308   7.6308   9.6084   9.6084
     9.7855   9.7855  10.6279  10.6279  10.8093  10.8093  10.9157  10.9157
    11.2193  11.2193  11.3053  11.3053  11.4728  11.4728  11.5367  11.5367
    11.7007  11.7007  11.7577  11.7577  11.8821  11.8821  11.9007  11.9007
    11.9132  11.9132  11.9353  11.9353  11.9456  11.9456  12.1468  12.1468
    12.1597  12.1597  12.1747  12.1748  12.2179  12.2179  12.3966  12.3966
    12.4438  12.4438  12.7448  12.7449  12.7882  12.7882  12.8246  12.8246
    12.9981  12.9981  13.1714  13.1714  13.3297  13.3297  13.3758  13.3758
    13.6171  13.6171  13.7056  13.7056  13.7365  13.7365  13.8889  13.8890
    13.9117  13.9117  13.9424  13.9424  13.9723  13.9723  14.1306  14.1306
    14.1371  14.1371  14.2466  14.2466  14.2757  14.2757  14.4080  14.4080
    14.4134  14.4134  14.6369  14.6369  14.6971  14.6971  14.7516  14.7516
    14.7742  14.7742  14.9534  14.9534  14.9807  14.9807  15.1375  15.1375
    15.1669  15.1669  15.2310  15.2310  15.2489  15.2489  15.3818  15.3818
    15.4059  15.4059  15.5274  15.5274  15.6758  15.6758  15.8756  15.8757
    15.9641  15.9641  16.1943  16.1943  16.2060  16.2060  16.3282  16.3282
    16.4529  16.4529  16.7244  16.7244  16.7520  16.7520  17.2546  17.2546
    17.8983  17.8983  18.9486  18.9486  20.3889  20.3889  20.7863  20.7863
    20.9855  20.9855  22.1600  22.1600  22.1992  22.1992  22.6879  22.6879
    22.9674  22.9674  23.0157  23.0157  23.0400  23.0400  23.4557  23.4557
    24.7075  24.7075  24.7218  24.7218  24.9628  24.9628  25.2623  25.2623
    25.3246

          k = 0.1250 0.0000 0.0000 ( 17777 PWs)   bands (ev):

    -0.3399  -0.0132  -0.0132   0.3070   0.6283   0.6418   0.6418   1.1790
     1.2342   1.7316   2.1653   2.1654   3.6597   4.5304   4.7604   4.7604
     6.1123   6.3821   6.6520   6.6520   8.5720   8.6362   8.6527   9.7834
     9.8738  10.3610  10.6444  10.6444  10.7981  10.9229  10.9893  10.9893
    11.1447  11.2101  11.2101  11.2484  11.3121  11.3121  11.4061  11.4570
    11.4710  11.4710  11.4944  11.5269  11.5269  11.6588  11.6629  11.6629
    11.6831  11.6831  11.6900  11.7012  11.7012  11.7903  11.9804  11.9804
    12.0158  12.1139  12.3578  12.3578  12.5348  12.5659  12.6573  12.6573
    12.7948  12.8391  12.9559  12.9559  12.9909  12.9909  13.0384  13.0738
    13.1013  13.1097  13.1759  13.2500  13.2807  13.2807  13.3107  13.3959
    13.4070  13.4264  13.5276  13.5645  13.5906  13.6111  13.6231  13.6702
    13.8291  13.8849  13.8849  13.9387  13.9914  13.9914  14.0678  14.1675
    14.2300  14.2300  14.3204  14.3760  14.3760  14.4781  14.6137  14.6587
    14.6662  14.6791  14.7119  14.7358  14.7358  14.7593  14.7926  14.8981
    14.9594  14.9830  14.9830  15.1089  15.1365  15.2085  15.2085  15.3034
    15.3034  15.3674  15.4997  15.5696  15.5696  15.6396  15.6792  15.6792
    15.7162  15.7344  15.7344  15.8695  15.9539  15.9539  16.0721  16.1446
    16.1446  16.1446  16.1951  16.1951  16.3197  16.7618  16.7618  16.9346
    16.9495  16.9495  16.9995  17.0186  17.0641  17.7278  17.7807  17.7807
    17.9588  17.9588  18.2302  18.2302  18.7355  18.7356  18.9610  19.4271
    19.4271  19.8417  20.0644  20.1995  21.1401  21.1401  21.2776  21.7306
    21.8755  22.2392  22.2393  23.4943  23.6304  23.7855  23.8824  24.4714
    24.4714  24.6383  24.6384  25.0113  25.0418  25.0418  25.1549  25.1550
    25.3339

          k = 0.1250 0.0589 0.0000 ( 17791 PWs)   bands (ev):

    -0.3338  -0.0474   0.0378   0.3288   0.5546   0.6240   0.7321   1.1277
     1.2522   1.7656   2.0417   2.2627   3.6811   4.5223   4.6316   4.9117
     6.1352   6.4111   6.4735   6.7809   8.5650   8.6087   8.6754   9.8187
     9.9104  10.3933  10.5879  10.6656  10.7209  10.8361  10.9438  10.9727
    11.1331  11.1731  11.2192  11.2780  11.3078  11.3387  11.4161  11.4359
    11.4779  11.4797  11.4819  11.5190  11.5337  11.5560  11.6659  11.6834
    11.6852  11.6943  11.7633  11.7781  11.7895  11.8065  11.8742  12.0345
    12.1257  12.2332  12.3009  12.4546  12.5360  12.5718  12.6069  12.6550
    12.7845  12.8174  12.9538  12.9544  12.9787  13.0187  13.0531  13.0535
    13.0557  13.0908  13.1140  13.2215  13.2449  13.2827  13.3559  13.3809
    13.4184  13.4393  13.5023  13.5501  13.5594  13.5997  13.7001  13.7222
    13.8401  13.8929  13.8948  13.9342  13.9915  14.0265  14.0647  14.1842
    14.2116  14.2277  14.2935  14.3500  14.4454  14.4637  14.5500  14.6376
    14.6663  14.6951  14.6951  14.7365  14.7414  14.7796  14.8019  14.8339
    14.9338  14.9668  15.0253  15.1220  15.1262  15.1919  15.2766  15.2834
    15.3129  15.3660  15.4885  15.5523  15.5530  15.6350  15.6427  15.6725
    15.7059  15.7223  15.7621  15.8155  15.9045  15.9574  16.0410  16.0611
    16.1178  16.1195  16.1311  16.1959  16.3384  16.5608  16.7788  16.8011
    16.9323  16.9933  17.0581  17.1480  17.1490  17.1866  17.3159  17.5930
    17.7580  17.8627  18.5256  18.5480  18.9385  18.9833  19.0430  19.6262
    19.7509  19.8963  20.1078  20.2269  20.7594  21.2998  21.6489  21.7373
    21.8804  22.1894  22.6356  23.4943  23.6767  23.8003  23.8478  23.8980
    23.9351  24.3309  24.3515  24.7221  24.9679  25.0011  25.1975  25.3462
    25.4760

          k = 0.1250 0.1179 0.0000 ( 17815 PWs)   bands (ev):

    -0.3161  -0.0685   0.1070   0.3857   0.4757   0.6191   0.8218   1.0322
     1.2583   1.8541   1.8940   2.3317   3.7469   4.5000   4.5310   5.0622
     6.2011   6.2771   6.4994   6.8521   8.3264   8.7156   8.7915   9.9214
     9.9646  10.0175  10.4874  10.5913  10.8027  10.8858  10.9463  11.0015
    11.1705  11.2303  11.2482  11.2686  11.3231  11.3627  11.3715  11.4030
    11.4907  11.5106  11.5125  11.5402  11.5725  11.5824  11.6238  11.6671
    11.7395  11.7971  11.8280  11.8383  11.8617  11.9360  11.9679  12.0955
    12.1525  12.2499  12.2863  12.4662  12.4961  12.5185  12.5872  12.6191
    12.6758  12.7500  12.8178  12.9306  12.9379  13.0110  13.0158  13.0394
    13.0466  13.1137  13.1349  13.2287  13.2418  13.2984  13.3545  13.3686
    13.4048  13.4761  13.4857  13.5186  13.5943  13.6181  13.7786  13.7892
    13.7910  13.8359  13.8520  13.9684  14.0142  14.0751  14.1142  14.1717
    14.2015  14.2429  14.2648  14.3682  14.4333  14.5191  14.5300  14.5855
    14.6100  14.6186  14.6626  14.7229  14.7317  14.7805  14.8478  14.8780
    14.8793  14.9840  15.0561  15.0978  15.1928  15.2180  15.2205  15.2654
    15.3236  15.3339  15.3603  15.4828  15.5567  15.5798  15.5995  15.6103
    15.6901  15.7152  15.7219  15.7478  15.8397  15.8699  15.9738  15.9821
    16.0666  16.0822  16.0917  16.0943  16.3495  16.3782  16.5579  16.5877
    16.6596  16.8538  16.9035  16.9942  16.9951  17.0671  17.2627  17.3517
    17.5348  17.8571  18.4480  18.7105  19.2829  19.3697  19.6452  20.0535
    20.2323  20.2542  20.3063  20.4240  20.5097  21.3639  21.7577  21.8654
    22.1793  22.3788  23.0643  23.4636  23.5030  23.6319  23.6496  23.7188
    23.7836  23.8713  23.9449  24.1324  24.7596  24.9461  24.9775  25.5294
    25.6469

          k = 0.1250 0.1768 0.0000 ( 17796 PWs)   bands (ev):

    -0.2877  -0.0831   0.1940   0.4121   0.4384   0.6510   0.9079   0.9185
     1.2453   1.7249   1.9717   2.3708   3.8612   4.4590   4.4691   5.1407
     6.1491   6.3007   6.6519   6.8677   7.9865   8.8893   8.9808   9.2652
    10.0825  10.1871  10.6122  10.6354  10.6387  10.9748  10.9849  11.0768
    11.1190  11.2466  11.2481  11.3050  11.3101  11.3446  11.4435  11.4671
    11.4847  11.5590  11.5881  11.6196  11.6446  11.6478  11.6745  11.7436
    11.8299  11.8813  11.9045  11.9507  11.9541  11.9922  12.0845  12.1696
    12.2088  12.2173  12.2836  12.3803  12.4431  12.4631  12.4638  12.5765
    12.6036  12.6404  12.7018  12.7830  12.8616  12.8665  12.9433  12.9654
    13.0448  13.1009  13.2034  13.2337  13.2651  13.3422  13.3653  13.4066
    13.4204  13.4935  13.5036  13.5528  13.6456  13.6507  13.6844  13.6924
    13.7989  13.8233  13.8640  13.8956  13.9468  14.1022  14.1173  14.1406
    14.1409  14.2170  14.2800  14.3940  14.4721  14.5083  14.5253  14.5719
    14.6320  14.6580  14.6880  14.7043  14.7336  14.7645  14.7863  14.8184
    14.9117  14.9568  15.0273  15.0413  15.1194  15.1226  15.1521  15.2031
    15.2401  15.2998  15.3837  15.4716  15.4747  15.5267  15.5276  15.5632
    15.6070  15.6623  15.7335  15.7492  15.7731  15.8063  15.8406  15.8698
    16.0064  16.0123  16.0541  16.0838  16.0922  16.0943  16.2908  16.3316
    16.4262  16.7466  16.7739  16.8299  17.0042  17.0907  17.1227  17.4967
    17.5849  18.0275  18.2021  18.5615  19.6539  19.9180  20.2777  20.2953
    20.3804  20.4227  20.4308  21.1689  21.1712  21.4624  21.7399  21.7926
    22.1752  22.2602  23.0311  23.0958  23.5501  23.5639  23.6898  23.7256
    23.8581  24.0216  24.0286  24.0717  24.6632  24.7699  24.8374  25.0576
    25.5542

          k = 0.1250 0.2357 0.0000 ( 17785 PWs)   bands (ev):

    -0.2506  -0.1001   0.2967   0.3719   0.4370   0.7669   0.7946   0.9880
     1.2172   1.5379   2.0956   2.3785   4.0286   4.4137   4.4362   5.0419
     6.2142   6.4202   6.8349   6.8766   7.5948   8.6207   9.1222   9.2363
    10.2875  10.3625  10.4033  10.6331  10.6768  10.8257  11.0691  11.1258
    11.1783  11.2651  11.3195  11.3404  11.3440  11.3888  11.4397  11.5341
    11.5797  11.5879  11.6969  11.7162  11.7262  11.7466  11.8135  11.8363
    11.8725  11.9295  11.9923  11.9982  12.0561  12.0712  12.1447  12.1685
    12.1805  12.2486  12.3221  12.3225  12.3531  12.4155  12.4889  12.4968
    12.5010  12.5741  12.5955  12.6743  12.7092  12.8078  12.9195  12.9541
    13.0482  13.0494  13.2057  13.2251  13.2637  13.3945  13.4024  13.4221
    13.4328  13.4496  13.4915  13.5111  13.6150  13.6356  13.6453  13.6904
    13.7560  13.8016  13.8350  13.8700  13.8818  14.0288  14.0300  14.0602
    14.0763  14.2302  14.3965  14.4406  14.4542  14.4681  14.5040  14.5116
    14.5908  14.6080  14.6422  14.6923  14.6986  14.7189  14.7375  14.7738
    14.8045  14.8946  14.9137  14.9446  15.0146  15.0856  15.0977  15.1810
    15.2215  15.2734  15.2944  15.2971  15.3599  15.4442  15.4612  15.5024
    15.5573  15.6138  15.6257  15.6333  15.6535  15.8102  15.8156  15.8684
    15.8701  15.9029  16.0498  16.0547  16.0919  16.0923  16.1037  16.3575
    16.4799  16.5173  16.7041  16.7310  17.0317  17.1424  17.2219  17.5922
    17.6873  17.9594  18.2370  18.4987  19.7476  20.1063  20.5930  20.5960
    20.6596  21.0090  21.0135  21.3706  21.5229  21.6137  21.7066  21.8413
    21.9695  22.1301  22.5206  22.7302  23.6666  23.6675  23.9287  23.9696
    24.1061  24.1148  24.3054  24.4137  24.4142  24.5129  24.7269  25.3523
    25.3830

          k = 0.1250 0.2946 0.0000 ( 17801 PWs)   bands (ev):

    -0.2079  -0.1270   0.3605   0.4063   0.4122   0.6657   0.9387   1.0604
     1.1761   1.3385   2.2080   2.3537   4.2498   4.3925   4.4085   4.7989
     6.4604   6.5450   6.7631   7.1820   7.1898   8.0539   9.4031   9.5476
    10.0451  10.2731  10.5149  10.6341  10.7404  10.9352  11.0420  11.0657
    11.1609  11.2908  11.3584  11.4189  11.4805  11.5006  11.5026  11.5388
    11.5664  11.6268  11.7763  11.7913  11.7950  11.8778  11.8799  11.8917
    11.9149  11.9161  12.0439  12.0492  12.0698  12.1201  12.1209  12.1462
    12.2410  12.2720  12.2733  12.3222  12.3531  12.3576  12.3958  12.4471
    12.4678  12.5188  12.6228  12.6752  12.7070  12.7920  12.8771  13.0565
    13.0688  13.0693  13.0847  13.1427  13.1443  13.2554  13.4220  13.4337
    13.5066  13.5365  13.5581  13.5620  13.6161  13.6234  13.6649  13.7036
    13.7053  13.7509  13.7590  13.7835  13.8268  13.8979  13.9522  13.9709
    14.1529  14.1787  14.2488  14.2878  14.3538  14.4644  14.4686  14.5124
    14.5519  14.6150  14.6339  14.6391  14.6822  14.6979  14.7277  14.7835
    14.8059  14.8439  14.9057  14.9063  14.9149  14.9970  15.0016  15.0475
    15.0531  15.0869  15.0931  15.1079  15.3288  15.3436  15.3468  15.3962
    15.5479  15.5729  15.6277  15.7020  15.8115  15.8672  15.8778  15.8821
    15.9465  15.9569  15.9694  16.0820  16.0846  16.0864  16.0889  16.2833
    16.4255  16.5332  16.6256  16.6478  17.0827  17.1847  17.3608  17.6692
    17.7360  17.7654  18.4469  18.5842  19.7259  20.5072  20.7949  20.8877
    20.9138  20.9344  21.2628  21.3262  21.4958  21.5048  21.7683  21.8989
    22.0361  22.0969  22.4249  22.9552  23.7863  23.8693  23.9747  23.9870
    24.1469  24.1870  24.2079  24.2859  24.5083  24.6964  25.0251  25.2571
    25.4636

          k = 0.1250-0.3536 0.0000 ( 17808 PWs)   bands (ev):

    -0.1647  -0.1647   0.3755   0.3755   0.5367   0.5367   1.1235   1.1235
     1.1349   1.1350   2.2962   2.2962   4.3922   4.3922   4.5154   4.5154
     6.6630   6.6630   6.8017   6.8017   7.5737   7.5737   9.7172   9.7172
     9.8998   9.8998  10.7387  10.7387  10.7811  10.7811  11.0369  11.0369
    11.2517  11.2517  11.4183  11.4183  11.4721  11.4721  11.5642  11.5642
    11.6620  11.6620  11.7542  11.7542  11.8183  11.8183  11.9377  11.9377
    11.9741  11.9741  12.0673  12.0673  12.0689  12.0690  12.1899  12.1899
    12.2578  12.2578  12.2621  12.2621  12.2810  12.2810  12.4151  12.4151
    12.4791  12.4791  12.7605  12.7605  12.8272  12.8272  12.8596  12.8596
    12.9149  12.9149  13.1772  13.1772  13.2587  13.2587  13.3391  13.3392
    13.5793  13.5793  13.6090  13.6090  13.6327  13.6327  13.7343  13.7343
    13.7527  13.7527  13.7756  13.7756  13.8122  13.8122  13.8734  13.8734
    13.9888  13.9888  14.1397  14.1397  14.4840  14.4840  14.5770  14.5770
    14.5770  14.5770  14.6445  14.6445  14.7167  14.7167  14.7693  14.7693
    14.8153  14.8153  14.8413  14.8413  14.8823  14.8823  14.9095  14.9095
    14.9161  14.9161  15.1509  15.1509  15.2119  15.2119  15.4680  15.4680
    15.4908  15.4908  15.8049  15.8049  15.8098  15.8098  15.9269  15.9269
    15.9785  15.9785  16.0089  16.0089  16.0771  16.0771  16.1203  16.1203
    16.5139  16.5139  16.5955  16.5955  17.1470  17.1470  17.5345  17.5345
    17.7377  17.7377  18.6002  18.6002  20.0946  20.0946  21.0159  21.0159
    21.1719  21.1719  21.1970  21.1970  21.2297  21.2297  21.9442  21.9442
    21.9581  21.9581  23.0784  23.0784  23.6042  23.6043  23.9578  23.9578
    24.1617  24.1617  24.2426  24.2426  24.9263  24.9263  25.2619  25.2620
    25.5628

          k = 0.1250-0.2946 0.0000 ( 17801 PWs)   bands (ev):

    -0.2079  -0.1270   0.3605   0.4063   0.4122   0.6657   0.9387   1.0604
     1.1761   1.3385   2.2080   2.3537   4.2498   4.3926   4.4085   4.7989
     6.4604   6.5450   6.7631   7.1820   7.1898   8.0539   9.4031   9.5476
    10.0451  10.2731  10.5149  10.6341  10.7404  10.9352  11.0420  11.0657
    11.1609  11.2908  11.3584  11.4189  11.4805  11.5006  11.5026  11.5388
    11.5664  11.6268  11.7763  11.7913  11.7950  11.8778  11.8799  11.8917
    11.9149  11.9161  12.0439  12.0492  12.0698  12.1201  12.1209  12.1462
    12.2410  12.2720  12.2733  12.3222  12.3531  12.3576  12.3958  12.4471
    12.4678  12.5188  12.6228  12.6752  12.7070  12.7920  12.8771  13.0565
    13.0688  13.0693  13.0847  13.1427  13.1443  13.2554  13.4220  13.4337
    13.5066  13.5365  13.5581  13.5620  13.6161  13.6234  13.6649  13.7036
    13.7053  13.7509  13.7590  13.7835  13.8268  13.8979  13.9522  13.9709
    14.1529  14.1787  14.2488  14.2878  14.3538  14.4644  14.4686  14.5124
    14.5519  14.6150  14.6339  14.6391  14.6822  14.6979  14.7277  14.7835
    14.8059  14.8439  14.9057  14.9063  14.9149  14.9970  15.0016  15.0475
    15.0531  15.0869  15.0931  15.1079  15.3288  15.3436  15.3468  15.3962
    15.5479  15.5729  15.6277  15.7020  15.8115  15.8672  15.8778  15.8821
    15.9465  15.9569  15.9694  16.0820  16.0846  16.0864  16.0889  16.2833
    16.4255  16.5332  16.6256  16.6478  17.0827  17.1847  17.3608  17.6692
    17.7360  17.7654  18.4469  18.5842  19.7259  20.5072  20.7949  20.8877
    20.9138  20.9344  21.2628  21.3262  21.4958  21.5048  21.7683  21.8989
    22.0361  22.0969  22.4249  22.9552  23.7863  23.8693  23.9747  23.9870
    24.1469  24.1870  24.2079  24.2859  24.5083  24.6964  25.0251  25.2571
    25.4636

          k = 0.1250-0.2357 0.0000 ( 17785 PWs)   bands (ev):

    -0.2506  -0.1001   0.2967   0.3719   0.4370   0.7669   0.7946   0.9880
     1.2172   1.5379   2.0956   2.3785   4.0286   4.4137   4.4362   5.0419
     6.2142   6.4202   6.8349   6.8766   7.5948   8.6207   9.1222   9.2363
    10.2875  10.3625  10.4033  10.6331  10.6768  10.8257  11.0691  11.1258
    11.1783  11.2651  11.3195  11.3404  11.3440  11.3888  11.4397  11.5341
    11.5797  11.5879  11.6969  11.7162  11.7262  11.7466  11.8135  11.8363
    11.8725  11.9295  11.9923  11.9982  12.0561  12.0712  12.1447  12.1685
    12.1805  12.2486  12.3221  12.3225  12.3531  12.4155  12.4889  12.4968
    12.5010  12.5741  12.5955  12.6743  12.7092  12.8078  12.9195  12.9541
    13.0482  13.0494  13.2057  13.2251  13.2637  13.3945  13.4024  13.4221
    13.4328  13.4496  13.4915  13.5111  13.6150  13.6356  13.6453  13.6904
    13.7560  13.8016  13.8350  13.8700  13.8818  14.0288  14.0300  14.0602
    14.0763  14.2302  14.3965  14.4406  14.4542  14.4681  14.5040  14.5116
    14.5908  14.6080  14.6422  14.6923  14.6986  14.7189  14.7375  14.7738
    14.8045  14.8946  14.9137  14.9446  15.0146  15.0856  15.0977  15.1810
    15.2215  15.2734  15.2944  15.2971  15.3599  15.4442  15.4612  15.5024
    15.5573  15.6138  15.6257  15.6333  15.6535  15.8102  15.8156  15.8684
    15.8701  15.9029  16.0498  16.0547  16.0919  16.0923  16.1037  16.3575
    16.4799  16.5173  16.7041  16.7310  17.0317  17.1424  17.2219  17.5922
    17.6873  17.9594  18.2370  18.4987  19.7476  20.1063  20.5930  20.5960
    20.6596  21.0090  21.0135  21.3706  21.5229  21.6137  21.7066  21.8413
    21.9695  22.1301  22.5206  22.7302  23.6666  23.6675  23.9287  23.9696
    24.1061  24.1148  24.3054  24.4137  24.4142  24.5129  24.7269  25.3522
    25.3830

          k = 0.1250-0.1768 0.0000 ( 17796 PWs)   bands (ev):

    -0.2877  -0.0831   0.1940   0.4121   0.4384   0.6510   0.9079   0.9185
     1.2453   1.7249   1.9717   2.3708   3.8612   4.4590   4.4691   5.1407
     6.1491   6.3008   6.6519   6.8677   7.9865   8.8893   8.9808   9.2652
    10.0825  10.1871  10.6122  10.6354  10.6387  10.9748  10.9849  11.0768
    11.1190  11.2466  11.2481  11.3050  11.3101  11.3446  11.4435  11.4671
    11.4847  11.5590  11.5881  11.6196  11.6446  11.6478  11.6745  11.7436
    11.8299  11.8813  11.9045  11.9507  11.9541  11.9922  12.0845  12.1696
    12.2088  12.2173  12.2836  12.3803  12.4431  12.4631  12.4638  12.5765
    12.6036  12.6404  12.7018  12.7830  12.8616  12.8665  12.9433  12.9654
    13.0448  13.1009  13.2034  13.2337  13.2651  13.3422  13.3653  13.4066
    13.4204  13.4935  13.5036  13.5528  13.6456  13.6507  13.6844  13.6924
    13.7989  13.8233  13.8640  13.8956  13.9468  14.1022  14.1173  14.1406
    14.1409  14.2170  14.2800  14.3940  14.4721  14.5083  14.5253  14.5719
    14.6320  14.6580  14.6880  14.7043  14.7336  14.7645  14.7863  14.8184
    14.9117  14.9568  15.0273  15.0413  15.1194  15.1226  15.1521  15.2031
    15.2401  15.2998  15.3837  15.4716  15.4747  15.5267  15.5276  15.5632
    15.6070  15.6623  15.7335  15.7492  15.7731  15.8063  15.8406  15.8698
    16.0064  16.0123  16.0541  16.0838  16.0922  16.0943  16.2908  16.3316
    16.4262  16.7466  16.7739  16.8299  17.0042  17.0907  17.1227  17.4967
    17.5849  18.0275  18.2021  18.5615  19.6539  19.9180  20.2777  20.2953
    20.3804  20.4227  20.4308  21.1689  21.1712  21.4624  21.7399  21.7926
    22.1752  22.2602  23.0311  23.0958  23.5501  23.5639  23.6898  23.7256
    23.8581  24.0216  24.0286  24.0717  24.6633  24.7699  24.8374  25.0576
    25.5542

          k = 0.1250-0.1179 0.0000 ( 17815 PWs)   bands (ev):

    -0.3161  -0.0685   0.1070   0.3857   0.4757   0.6191   0.8218   1.0322
     1.2583   1.8541   1.8940   2.3317   3.7469   4.5000   4.5310   5.0622
     6.2011   6.2771   6.4994   6.8521   8.3264   8.7156   8.7915   9.9214
     9.9646  10.0175  10.4874  10.5913  10.8027  10.8858  10.9463  11.0015
    11.1705  11.2303  11.2482  11.2686  11.3231  11.3627  11.3715  11.4030
    11.4907  11.5106  11.5125  11.5402  11.5725  11.5824  11.6238  11.6671
    11.7395  11.7971  11.8280  11.8383  11.8617  11.9360  11.9679  12.0955
    12.1525  12.2499  12.2863  12.4662  12.4961  12.5185  12.5872  12.6191
    12.6758  12.7500  12.8178  12.9306  12.9379  13.0110  13.0158  13.0394
    13.0466  13.1137  13.1349  13.2287  13.2418  13.2984  13.3545  13.3686
    13.4048  13.4761  13.4857  13.5186  13.5943  13.6181  13.7786  13.7892
    13.7910  13.8359  13.8520  13.9684  14.0142  14.0751  14.1142  14.1717
    14.2015  14.2429  14.2648  14.3682  14.4333  14.5191  14.5300  14.5855
    14.6100  14.6186  14.6626  14.7229  14.7317  14.7805  14.8478  14.8780
    14.8793  14.9840  15.0561  15.0978  15.1928  15.2180  15.2205  15.2654
    15.3236  15.3339  15.3603  15.4828  15.5567  15.5798  15.5995  15.6103
    15.6901  15.7152  15.7219  15.7478  15.8397  15.8699  15.9738  15.9821
    16.0666  16.0822  16.0917  16.0943  16.3495  16.3782  16.5579  16.5877
    16.6596  16.8538  16.9035  16.9942  16.9951  17.0671  17.2627  17.3517
    17.5348  17.8571  18.4480  18.7105  19.2829  19.3697  19.6452  20.0535
    20.2323  20.2542  20.3063  20.4240  20.5097  21.3639  21.7577  21.8654
    22.1793  22.3788  23.0643  23.4636  23.5030  23.6319  23.6496  23.7188
    23.7836  23.8713  23.9449  24.1324  24.7596  24.9462  24.9775  25.5295
    25.6469

          k = 0.1250-0.0589 0.0000 ( 17791 PWs)   bands (ev):

    -0.3338  -0.0474   0.0378   0.3288   0.5546   0.6240   0.7321   1.1277
     1.2522   1.7656   2.0417   2.2627   3.6811   4.5223   4.6316   4.9117
     6.1352   6.4111   6.4735   6.7809   8.5650   8.6087   8.6754   9.8187
     9.9104  10.3933  10.5879  10.6656  10.7209  10.8361  10.9438  10.9727
    11.1331  11.1731  11.2192  11.2780  11.3078  11.3387  11.4161  11.4359
    11.4779  11.4797  11.4819  11.5190  11.5337  11.5560  11.6659  11.6834
    11.6852  11.6943  11.7633  11.7781  11.7895  11.8065  11.8742  12.0345
    12.1257  12.2332  12.3009  12.4546  12.5360  12.5718  12.6069  12.6550
    12.7845  12.8174  12.9538  12.9544  12.9787  13.0187  13.0531  13.0535
    13.0557  13.0908  13.1140  13.2215  13.2449  13.2827  13.3559  13.3809
    13.4184  13.4393  13.5023  13.5501  13.5594  13.5997  13.7001  13.7222
    13.8401  13.8929  13.8948  13.9342  13.9915  14.0265  14.0647  14.1842
    14.2116  14.2277  14.2935  14.3500  14.4454  14.4637  14.5500  14.6376
    14.6663  14.6951  14.6951  14.7365  14.7414  14.7796  14.8019  14.8339
    14.9338  14.9668  15.0253  15.1219  15.1262  15.1919  15.2766  15.2834
    15.3129  15.3660  15.4885  15.5523  15.5530  15.6350  15.6427  15.6725
    15.7059  15.7223  15.7621  15.8155  15.9045  15.9574  16.0410  16.0611
    16.1178  16.1195  16.1311  16.1959  16.3384  16.5608  16.7788  16.8011
    16.9323  16.9933  17.0581  17.1480  17.1490  17.1866  17.3159  17.5930
    17.7580  17.8627  18.5256  18.5480  18.9385  18.9833  19.0430  19.6262
    19.7509  19.8963  20.1078  20.2269  20.7594  21.2998  21.6489  21.7373
    21.8804  22.1894  22.6356  23.4943  23.6767  23.8003  23.8478  23.8980
    23.9351  24.3309  24.3515  24.7221  24.9679  25.0011  25.1974  25.3462
    25.4759

          k = 0.2500 0.0000 0.0000 ( 17793 PWs)   bands (ev):

    -0.2078  -0.2078  -0.2031   0.6311   0.6946   0.8673   0.8673   0.9253
     1.1580   1.7496   2.0075   2.0075   3.9803   4.4229   4.4230   4.9824
     6.0819   6.5025   7.2779   7.2779   8.1875   9.0024   9.1455   9.9639
    10.1717  10.4561  10.5961  10.5962  10.6188  10.8762  10.9160  11.1703
    11.1703  11.2215  11.2376  11.2738  11.2738  11.3659  11.4222  11.4222
    11.4706  11.4706  11.4911  11.5120  11.5121  11.5469  11.5555  11.5555
    11.6858  11.6966  11.8086  11.8571  11.8572  11.9954  12.0320  12.0320
    12.1148  12.1148  12.3664  12.7055  12.7196  12.7280  12.7773  12.7773
    12.8844  12.8844  12.9641  13.0600  13.1387  13.1387  13.1492  13.1739
    13.1967  13.3613  13.3936  13.4372  13.4372  13.4430  13.5278  13.5367
    13.5488  13.5488  13.5493  13.5826  13.5826  13.5865  13.5973  13.6111
    13.6255  13.7525  13.8411  13.8538  13.8538  13.9597  13.9597  14.0195
    14.0914  14.0950  14.0950  14.1205  14.2079  14.2975  14.3882  14.3882
    14.3996  14.4750  14.4849  14.5167  14.5167  14.6658  14.7025  14.7829
    14.7829  14.9185  14.9346  14.9346  14.9599  14.9601  14.9813  15.1631
    15.1716  15.3803  15.3803  15.4207  15.4838  15.5258  15.6139  15.6139
    15.7734  15.8065  15.8332  15.8709  15.8915  15.8916  15.9982  15.9982
    16.0320  16.0403  16.1523  16.1523  16.1628  16.1628  16.7352  16.7352
    16.7973  17.0550  17.0550  17.1376  17.1694  17.3209  17.5586  17.8758
    17.8758  18.1614  18.3742  18.3742  18.9890  18.9890  19.2584  19.2584
    19.4100  19.7149  20.1614  20.1614  20.2716  20.6847  20.6847  20.7064
    21.8861  21.8861  21.9617  21.9883  23.2012  23.2012  23.2253  23.2358
    23.2358  23.6383  23.6383  23.7349  23.7349  24.5436  24.5762  24.5768
    24.8774

          k = 0.2500 0.0589 0.0000 ( 17783 PWs)   bands (ev):

    -0.2352  -0.2016  -0.1619   0.6298   0.7119   0.8021   0.8892   0.9321
     1.1716   1.7741   1.9037   2.0993   4.0005   4.3640   4.5070   4.9494
     6.1213   6.5401   7.0897   7.4081   8.0864   9.0365   9.1822  10.0051
    10.2087  10.4904  10.5569  10.6307  10.6542  10.8300  10.9182  10.9444
    11.1541  11.2027  11.2517  11.2719  11.3226  11.4077  11.4084  11.4191
    11.4468  11.4938  11.5286  11.5342  11.5618  11.5661  11.5845  11.6102
    11.6836  11.7162  11.7269  11.7963  11.9400  11.9444  12.0121  12.0484
    12.1217  12.3539  12.4096  12.6587  12.7025  12.7265  12.7861  12.7946
    12.8037  12.9571  12.9724  13.0382  13.1180  13.1443  13.1721  13.1904
    13.2359  13.3414  13.3453  13.3634  13.4466  13.4779  13.5079  13.5282
    13.5712  13.5726  13.5807  13.5823  13.5855  13.5928  13.6212  13.6237
    13.6321  13.7136  13.7994  13.8558  13.8558  13.9459  13.9570  13.9595
    14.0152  14.0328  14.1003  14.1366  14.1393  14.2056  14.3422  14.3791
    14.4035  14.4616  14.4703  14.4960  14.5304  14.6514  14.7145  14.7345
    14.8360  14.8946  14.9076  14.9370  14.9444  14.9943  15.0539  15.1713
    15.2520  15.3635  15.3827  15.4008  15.4482  15.5135  15.5244  15.6654
    15.7215  15.7390  15.8317  15.8849  15.9344  15.9537  15.9725  15.9888
    16.0350  16.0970  16.1097  16.1164  16.1233  16.1695  16.5045  16.8179
    16.8608  16.9411  17.1372  17.1610  17.1618  17.1635  17.3649  17.6191
    17.6538  18.2238  18.3587  18.6084  18.6571  19.1401  19.3637  19.4486
    19.7493  19.7631  19.9009  20.3122  20.4907  20.6541  20.7291  20.9446
    21.9412  21.9705  21.9948  22.2431  22.3854  22.5311  22.8780  23.1143
    23.2615  23.7220  24.1097  24.1982  24.3631  24.5889  24.6080  24.6336
    25.1358

          k = 0.2500 0.1179 0.0000 ( 17763 PWs)   bands (ev):

    -0.2460  -0.1979  -0.0972   0.6202   0.7392   0.7689   0.8032   0.9939
     1.1937   1.7911   1.8416   2.1744   4.0617   4.3305   4.6117   4.8640
     6.2343   6.6451   6.8586   7.4762   7.8234   9.1364   9.2904  10.0972
    10.1217  10.3162  10.5884  10.5889  10.6459  10.7557  11.0226  11.0272
    11.0347  11.0586  11.3364  11.3614  11.4020  11.4534  11.4623  11.5098
    11.5237  11.5398  11.5458  11.6299  11.6405  11.6471  11.6475  11.6874
    11.6943  11.7595  11.7710  11.8230  11.9269  11.9484  12.0518  12.1002
    12.1862  12.2978  12.5013  12.6218  12.6412  12.6851  12.7387  12.7686
    12.8586  12.9382  12.9729  13.0032  13.0513  13.0532  13.1709  13.1985
    13.2041  13.2628  13.3481  13.3769  13.4564  13.4580  13.5073  13.5097
    13.5350  13.5713  13.6027  13.6160  13.6179  13.6348  13.6488  13.6605
    13.6632  13.7063  13.7195  13.7672  13.8064  13.8362  13.8829  13.9064
    13.9497  13.9602  13.9861  14.0029  14.2051  14.2337  14.2643  14.3231
    14.3517  14.4132  14.4429  14.4550  14.4856  14.6052  14.6091  14.8036
    14.8678  14.8724  14.8837  14.9134  14.9379  14.9958  15.1114  15.1893
    15.3283  15.3552  15.3842  15.3921  15.4233  15.5278  15.6184  15.6307
    15.6903  15.7342  15.7437  15.8537  15.8648  15.8884  15.8948  15.9101
    15.9862  16.0075  16.0137  16.0708  16.1024  16.2988  16.4201  16.5483
    16.6759  16.8520  16.9187  17.1437  17.1593  17.1821  17.2823  17.4935
    17.7708  17.7914  18.2108  18.3926  18.7762  19.5086  19.5340  19.5545
    19.8884  19.9049  20.1644  20.4348  20.7257  20.8078  21.1512  21.6352
    21.6574  21.7801  21.9990  22.0158  22.1823  22.2243  22.9177  22.9727
    23.2175  23.3537  24.1965  24.7217  25.0839  25.1118  25.1389  25.1977
    25.4445

          k = 0.2500 0.1768 0.0000 ( 17751 PWs)   bands (ev):

    -0.2433  -0.1935  -0.0144   0.6037   0.6821   0.6932   0.8625   1.0505
     1.2068   1.6706   1.9366   2.2270   4.1657   4.3220   4.7216   4.7526
     6.4137   6.6185   6.8000   7.4754   7.4834   9.2957   9.3654   9.4632
    10.3010  10.4821  10.5874  10.5965  10.7396  10.8860  10.9040  11.0411
    11.1277  11.1739  11.3888  11.4572  11.4703  11.4975  11.5279  11.5537
    11.5841  11.5963  11.6376  11.6836  11.7450  11.7600  11.7887  11.7971
    11.8295  11.8336  11.8631  11.9196  11.9270  11.9458  12.1084  12.1922
    12.2332  12.2667  12.4481  12.5077  12.6435  12.6674  12.6803  12.7167
    12.8602  12.8718  12.9140  12.9213  12.9499  13.0531  13.1229  13.1263
    13.1849  13.1938  13.2878  13.3089  13.3800  13.4115  13.4192  13.4286
    13.4565  13.5168  13.5634  13.5758  13.6014  13.6229  13.6237  13.6361
    13.6505  13.6852  13.7415  13.7656  13.7834  13.7875  13.8216  13.8397
    13.8499  13.8677  13.9892  14.0418  14.1119  14.2077  14.2243  14.2734
    14.3315  14.3425  14.3700  14.4480  14.4586  14.4628  14.5348  14.7660
    14.8324  14.8559  14.9109  14.9484  15.0277  15.0661  15.1319  15.2304
    15.2453  15.2737  15.3180  15.3416  15.4424  15.4566  15.5146  15.6460
    15.6493  15.6760  15.7541  15.7835  15.7882  15.8215  15.8680  15.8684
    15.8725  15.9122  15.9158  15.9298  16.0052  16.1747  16.3508  16.4608
    16.4999  16.6573  16.8347  17.0133  17.1703  17.3176  17.3273  17.6670
    17.6972  17.8779  18.0601  18.5067  18.6342  19.2236  19.3655  19.7064
    20.0416  20.5259  20.5971  20.6371  20.9692  21.0651  21.1485  21.3647
    21.4100  22.0532  22.0564  22.0974  22.1615  22.7592  22.9063  23.0496
    23.3640  23.3844  24.2553  24.5480  24.9299  25.3040  25.5365  25.6461
    25.7722

          k = 0.2500 0.2357 0.0000 ( 17768 PWs)   bands (ev):

    -0.2316  -0.1913   0.0844   0.5713   0.5872   0.6345   0.9831   1.1003
     1.2075   1.5422   2.0398   2.2516   4.3115   4.3382   4.6371   4.7992
     6.4312   6.6542   6.9911   7.1066   7.4331   8.6799   9.5030   9.6889
    10.4384  10.5280  10.6161  10.6740  10.7291  10.9307  11.0435  11.1112
    11.2413  11.3299  11.3370  11.5353  11.5545  11.5578  11.5691  11.5707
    11.6213  11.6797  11.7009  11.7569  11.7894  11.8493  11.8930  11.9080
    11.9285  11.9338  12.0091  12.0122  12.0285  12.1033  12.1765  12.2751
    12.2759  12.3357  12.4120  12.4278  12.5966  12.6324  12.6424  12.6957
    12.7416  12.7695  12.7938  12.8344  12.9190  12.9783  13.0475  13.0715
    13.0955  13.1356  13.1959  13.2530  13.2756  13.2835  13.3244  13.3703
    13.3964  13.4274  13.4353  13.4714  13.5058  13.5461  13.5519  13.5964
    13.6017  13.6408  13.6416  13.6697  13.6959  13.8185  13.8370  13.8906
    13.9214  13.9571  13.9587  14.0191  14.0306  14.1154  14.1853  14.2123
    14.2282  14.3172  14.4131  14.4511  14.4966  14.5018  14.5466  14.7353
    14.7825  14.8745  14.8849  14.9566  15.0192  15.0407  15.0499  15.1236
    15.1314  15.1626  15.1807  15.2185  15.2884  15.3888  15.3953  15.4524
    15.4689  15.5480  15.6373  15.7349  15.7595  15.7672  15.8364  15.8721
    15.8832  15.8970  15.9210  15.9332  16.1762  16.1894  16.2363  16.3536
    16.3864  16.7750  16.8238  16.8460  17.0140  17.2267  17.5619  17.6324
    17.8593  17.9454  18.4117  18.5962  18.8716  18.9233  19.1905  19.8876
    20.1789  20.3268  20.3650  20.8251  20.9037  21.0265  21.2286  21.7401
    21.9463  22.1084  22.1279  22.1396  22.4789  22.8914  23.0579  23.0876
    23.6631  23.7289  24.3447  24.6491  25.1741  25.4635  25.7529  25.8335
    25.9028

          k = 0.2500 0.2946 0.0000 ( 17790 PWs)   bands (ev):

    -0.2163  -0.1938   0.1964   0.4444   0.5777   0.5999   1.1201   1.1419
     1.1964   1.4059   2.1336   2.2445   4.3790   4.4887   4.5316   4.7872
     6.3797   6.7666   6.9300   7.2311   7.3283   8.0786   9.7422   9.9491
    10.2320  10.4688  10.7194  10.7801  10.7977  11.1447  11.1506  11.2082
    11.2385  11.3958  11.4410  11.4726  11.5494  11.5746  11.5756  11.6528
    11.6627  11.7264  11.7284  11.7561  11.7670  11.9031  11.9214  11.9644
    12.0042  12.0118  12.1645  12.2014  12.2122  12.2479  12.3178  12.3428
    12.3547  12.4296  12.4884  12.4908  12.5554  12.5807  12.6040  12.6094
    12.6386  12.6434  12.7405  12.7427  12.7988  12.8647  12.9432  12.9605
    12.9885  13.1260  13.1450  13.1560  13.1662  13.1961  13.2656  13.2884
    13.3375  13.3792  13.3914  13.3967  13.4050  13.4696  13.4941  13.5210
    13.5563  13.5633  13.6096  13.6208  13.6784  13.6816  13.7052  13.7395
    13.8188  13.8620  14.0595  14.0864  14.1746  14.1818  14.2374  14.3279
    14.3778  14.4422  14.5145  14.5388  14.5607  14.5724  14.5881  14.7036
    14.7307  14.7457  14.7669  14.7911  14.7989  14.8722  14.9100  14.9295
    14.9574  14.9857  15.0931  15.0987  15.1698  15.2082  15.2336  15.3243
    15.5161  15.6233  15.6585  15.6965  15.7041  15.8108  15.8680  15.8916
    15.9094  15.9159  15.9268  15.9981  16.0418  16.2640  16.3018  16.4046
    16.4223  16.7094  16.7132  16.7951  16.9824  17.3162  17.4214  17.6436
    17.8642  18.2028  18.5283  18.6561  18.8238  19.2462  19.5524  19.9753
    19.9874  20.0935  20.2988  20.5982  20.6813  21.2037  21.5489  21.7848
    21.8550  22.0277  22.2552  22.3636  22.7619  22.8012  22.9278  23.2815
    24.6076  24.6214  24.7213  24.9117  25.1633  25.4597  25.5820  25.5988
    25.8841

          k = 0.2500-0.3536 0.0000 ( 17788 PWs)   bands (ev):

    -0.2025  -0.2025   0.3178   0.3178   0.5809   0.5809   1.1743   1.1743
     1.2637   1.2637   2.2044   2.2044   4.4441   4.4441   4.6666   4.6666
     6.5046   6.5046   7.1660   7.1660   7.5857   7.5857   9.9928   9.9928
    10.2191  10.2191  10.7809  10.7809  11.0234  11.0234  11.3213  11.3213
    11.3278  11.3278  11.4105  11.4105  11.5294  11.5294  11.6219  11.6219
    11.7088  11.7088  11.7463  11.7463  11.8740  11.8740  11.9463  11.9463
    12.0427  12.0427  12.2043  12.2043  12.4028  12.4028  12.4355  12.4355
    12.4632  12.4632  12.5003  12.5003  12.5165  12.5165  12.5650  12.5650
    12.5719  12.5719  12.7079  12.7079  12.8030  12.8030  12.8580  12.8580
    13.0627  13.0627  13.0863  13.0864  13.1273  13.1273  13.2067  13.2067
    13.3633  13.3633  13.3996  13.3996  13.4121  13.4121  13.4756  13.4756
    13.5419  13.5419  13.5731  13.5731  13.6368  13.6368  13.7028  13.7028
    13.7618  13.7618  14.0473  14.0473  14.4294  14.4294  14.4388  14.4388
    14.4556  14.4556  14.5544  14.5544  14.5628  14.5628  14.6298  14.6298
    14.6517  14.6517  14.6990  14.6990  14.7047  14.7047  14.8147  14.8147
    14.8395  14.8395  14.9986  14.9986  15.2307  15.2307  15.2425  15.2425
    15.5767  15.5767  15.6606  15.6606  15.8414  15.8414  15.8502  15.8502
    15.9102  15.9102  15.9328  15.9328  16.1665  16.1665  16.3784  16.3784
    16.5868  16.5868  16.6939  16.6939  17.1914  17.1914  17.4461  17.4461
    18.1917  18.1917  18.4487  18.4487  19.2658  19.2658  19.5974  19.5974
    20.3093  20.3093  20.4288  20.4288  20.8572  20.8573  21.5027  21.5027
    21.8416  21.8416  22.4823  22.4823  22.5796  22.5796  23.8603  23.8603
    24.2739  24.2739  24.9892  24.9892  25.7036  25.7036  25.7716  25.8477
    25.8490

          k = 0.2500-0.2946 0.0000 ( 17790 PWs)   bands (ev):

    -0.2163  -0.1938   0.1964   0.4444   0.5777   0.5999   1.1201   1.1419
     1.1964   1.4059   2.1336   2.2445   4.3790   4.4887   4.5316   4.7872
     6.3797   6.7666   6.9300   7.2311   7.3283   8.0786   9.7422   9.9491
    10.2320  10.4688  10.7194  10.7801  10.7977  11.1447  11.1506  11.2082
    11.2385  11.3958  11.4410  11.4726  11.5494  11.5746  11.5756  11.6528
    11.6627  11.7264  11.7284  11.7561  11.7670  11.9031  11.9214  11.9644
    12.0042  12.0118  12.1645  12.2014  12.2122  12.2479  12.3178  12.3428
    12.3547  12.4296  12.4884  12.4908  12.5554  12.5807  12.6040  12.6094
    12.6386  12.6434  12.7405  12.7427  12.7988  12.8647  12.9432  12.9605
    12.9885  13.1260  13.1450  13.1560  13.1662  13.1961  13.2656  13.2884
    13.3375  13.3792  13.3914  13.3967  13.4050  13.4696  13.4941  13.5210
    13.5563  13.5633  13.6096  13.6208  13.6784  13.6816  13.7052  13.7395
    13.8188  13.8620  14.0595  14.0864  14.1746  14.1818  14.2374  14.3279
    14.3778  14.4422  14.5145  14.5388  14.5607  14.5724  14.5881  14.7036
    14.7307  14.7457  14.7669  14.7911  14.7989  14.8722  14.9100  14.9295
    14.9574  14.9857  15.0931  15.0987  15.1698  15.2082  15.2336  15.3243
    15.5161  15.6233  15.6585  15.6965  15.7041  15.8108  15.8680  15.8916
    15.9094  15.9159  15.9268  15.9981  16.0418  16.2640  16.3018  16.4046
    16.4223  16.7094  16.7132  16.7951  16.9824  17.3162  17.4214  17.6436
    17.8642  18.2028  18.5283  18.6561  18.8238  19.2462  19.5524  19.9753
    19.9874  20.0935  20.2988  20.5982  20.6813  21.2037  21.5489  21.7848
    21.8550  22.0277  22.2552  22.3636  22.7619  22.8012  22.9278  23.2815
    24.6076  24.6214  24.7213  24.9117  25.1633  25.4596  25.5820  25.5988
    25.8892

          k = 0.2500-0.2357 0.0000 ( 17768 PWs)   bands (ev):

    -0.2316  -0.1913   0.0844   0.5713   0.5872   0.6345   0.9831   1.1003
     1.2075   1.5422   2.0398   2.2516   4.3115   4.3382   4.6371   4.7992
     6.4312   6.6542   6.9911   7.1066   7.4331   8.6799   9.5030   9.6889
    10.4384  10.5280  10.6161  10.6740  10.7291  10.9307  11.0435  11.1112
    11.2413  11.3299  11.3370  11.5353  11.5545  11.5578  11.5691  11.5707
    11.6213  11.6797  11.7009  11.7569  11.7894  11.8493  11.8930  11.9080
    11.9285  11.9338  12.0091  12.0122  12.0285  12.1033  12.1765  12.2751
    12.2759  12.3357  12.4120  12.4278  12.5966  12.6324  12.6424  12.6957
    12.7416  12.7695  12.7938  12.8344  12.9190  12.9783  13.0475  13.0715
    13.0955  13.1356  13.1959  13.2530  13.2756  13.2835  13.3244  13.3703
    13.3964  13.4274  13.4353  13.4714  13.5058  13.5461  13.5519  13.5964
    13.6017  13.6408  13.6416  13.6697  13.6959  13.8185  13.8370  13.8906
    13.9214  13.9571  13.9587  14.0191  14.0306  14.1154  14.1853  14.2123
    14.2282  14.3172  14.4131  14.4511  14.4966  14.5018  14.5466  14.7353
    14.7825  14.8745  14.8849  14.9566  15.0192  15.0407  15.0499  15.1236
    15.1314  15.1626  15.1807  15.2185  15.2884  15.3888  15.3953  15.4524
    15.4689  15.5480  15.6373  15.7349  15.7595  15.7672  15.8364  15.8721
    15.8832  15.8970  15.9210  15.9332  16.1762  16.1894  16.2363  16.3536
    16.3864  16.7750  16.8238  16.8460  17.0140  17.2267  17.5619  17.6324
    17.8593  17.9454  18.4117  18.5962  18.8716  18.9233  19.1905  19.8876
    20.1789  20.3268  20.3650  20.8251  20.9037  21.0265  21.2286  21.7401
    21.9463  22.1084  22.1279  22.1396  22.4789  22.8914  23.0579  23.0876
    23.6631  23.7289  24.3447  24.6491  25.1741  25.4635  25.7529  25.8334
    25.9029

          k = 0.2500-0.1768 0.0000 ( 17751 PWs)   bands (ev):

    -0.2433  -0.1935  -0.0144   0.6037   0.6821   0.6932   0.8625   1.0505
     1.2068   1.6706   1.9366   2.2270   4.1657   4.3220   4.7216   4.7526
     6.4137   6.6185   6.8000   7.4754   7.4834   9.2957   9.3653   9.4632
    10.3010  10.4821  10.5874  10.5965  10.7396  10.8860  10.9040  11.0411
    11.1277  11.1739  11.3888  11.4572  11.4703  11.4975  11.5279  11.5537
    11.5841  11.5963  11.6376  11.6836  11.7450  11.7600  11.7887  11.7971
    11.8295  11.8336  11.8631  11.9196  11.9270  11.9458  12.1084  12.1922
    12.2332  12.2667  12.4481  12.5077  12.6435  12.6674  12.6803  12.7167
    12.8602  12.8718  12.9140  12.9213  12.9499  13.0531  13.1229  13.1263
    13.1849  13.1938  13.2878  13.3089  13.3800  13.4115  13.4192  13.4286
    13.4565  13.5168  13.5634  13.5758  13.6014  13.6229  13.6237  13.6361
    13.6505  13.6852  13.7415  13.7656  13.7834  13.7875  13.8216  13.8397
    13.8499  13.8677  13.9892  14.0418  14.1119  14.2077  14.2243  14.2734
    14.3315  14.3425  14.3700  14.4480  14.4586  14.4628  14.5348  14.7660
    14.8324  14.8559  14.9109  14.9484  15.0277  15.0661  15.1319  15.2304
    15.2453  15.2737  15.3180  15.3416  15.4424  15.4566  15.5146  15.6460
    15.6493  15.6760  15.7541  15.7835  15.7882  15.8215  15.8680  15.8684
    15.8725  15.9122  15.9158  15.9298  16.0052  16.1747  16.3508  16.4608
    16.4999  16.6573  16.8347  17.0133  17.1703  17.3176  17.3273  17.6670
    17.6972  17.8779  18.0601  18.5067  18.6342  19.2236  19.3655  19.7064
    20.0416  20.5259  20.5971  20.6371  20.9692  21.0651  21.1485  21.3647
    21.4100  22.0532  22.0564  22.0974  22.1615  22.7592  22.9063  23.0496
    23.3640  23.3844  24.2553  24.5480  24.9299  25.3040  25.5365  25.6461
    25.7722

          k = 0.2500-0.1179 0.0000 ( 17763 PWs)   bands (ev):

    -0.2460  -0.1979  -0.0972   0.6202   0.7392   0.7689   0.8032   0.9939
     1.1937   1.7911   1.8416   2.1744   4.0617   4.3305   4.6117   4.8640
     6.2343   6.6451   6.8586   7.4762   7.8234   9.1364   9.2904  10.0972
    10.1217  10.3162  10.5884  10.5889  10.6459  10.7557  11.0226  11.0272
    11.0347  11.0586  11.3364  11.3614  11.4020  11.4534  11.4623  11.5098
    11.5237  11.5398  11.5458  11.6299  11.6405  11.6471  11.6475  11.6874
    11.6943  11.7595  11.7710  11.8230  11.9269  11.9484  12.0518  12.1002
    12.1862  12.2978  12.5013  12.6218  12.6412  12.6851  12.7387  12.7686
    12.8586  12.9382  12.9729  13.0032  13.0513  13.0532  13.1709  13.1985
    13.2041  13.2628  13.3481  13.3769  13.4564  13.4580  13.5073  13.5097
    13.5350  13.5713  13.6027  13.6160  13.6179  13.6348  13.6488  13.6605
    13.6632  13.7063  13.7195  13.7672  13.8064  13.8362  13.8829  13.9064
    13.9497  13.9602  13.9861  14.0029  14.2051  14.2337  14.2643  14.3231
    14.3517  14.4132  14.4429  14.4550  14.4856  14.6052  14.6091  14.8036
    14.8678  14.8724  14.8837  14.9134  14.9379  14.9958  15.1114  15.1893
    15.3283  15.3552  15.3842  15.3921  15.4233  15.5278  15.6184  15.6307
    15.6903  15.7342  15.7437  15.8537  15.8648  15.8884  15.8948  15.9101
    15.9862  16.0075  16.0137  16.0708  16.1024  16.2988  16.4201  16.5483
    16.6759  16.8520  16.9187  17.1437  17.1593  17.1821  17.2823  17.4935
    17.7708  17.7914  18.2108  18.3926  18.7762  19.5086  19.5340  19.5545
    19.8884  19.9049  20.1644  20.4348  20.7257  20.8078  21.1512  21.6352
    21.6574  21.7801  21.9990  22.0158  22.1823  22.2243  22.9177  22.9727
    23.2175  23.3537  24.1965  24.7217  25.0840  25.1117  25.1392  25.1977
    25.4446

          k = 0.2500-0.0589 0.0000 ( 17783 PWs)   bands (ev):

    -0.2352  -0.2016  -0.1619   0.6298   0.7119   0.8021   0.8892   0.9321
     1.1716   1.7741   1.9037   2.0993   4.0005   4.3640   4.5070   4.9494
     6.1213   6.5401   7.0897   7.4081   8.0864   9.0365   9.1822  10.0051
    10.2087  10.4904  10.5569  10.6307  10.6542  10.8300  10.9182  10.9444
    11.1541  11.2027  11.2517  11.2719  11.3226  11.4077  11.4084  11.4191
    11.4468  11.4938  11.5286  11.5342  11.5618  11.5661  11.5845  11.6102
    11.6836  11.7162  11.7269  11.7963  11.9400  11.9444  12.0121  12.0484
    12.1217  12.3539  12.4096  12.6587  12.7025  12.7265  12.7861  12.7946
    12.8037  12.9571  12.9724  13.0382  13.1180  13.1443  13.1721  13.1904
    13.2359  13.3414  13.3453  13.3634  13.4466  13.4779  13.5079  13.5282
    13.5712  13.5726  13.5807  13.5823  13.5855  13.5928  13.6212  13.6237
    13.6321  13.7136  13.7994  13.8558  13.8558  13.9459  13.9570  13.9595
    14.0152  14.0328  14.1003  14.1366  14.1393  14.2056  14.3422  14.3791
    14.4035  14.4616  14.4703  14.4960  14.5304  14.6514  14.7145  14.7345
    14.8360  14.8946  14.9076  14.9370  14.9444  14.9943  15.0539  15.1713
    15.2520  15.3635  15.3827  15.4008  15.4482  15.5135  15.5244  15.6654
    15.7215  15.7390  15.8317  15.8849  15.9344  15.9537  15.9725  15.9888
    16.0350  16.0970  16.1097  16.1164  16.1233  16.1695  16.5045  16.8179
    16.8608  16.9411  17.1372  17.1610  17.1618  17.1635  17.3649  17.6191
    17.6538  18.2238  18.3587  18.6084  18.6571  19.1401  19.3637  19.4486
    19.7493  19.7631  19.9009  20.3122  20.4907  20.6541  20.7291  20.9446
    21.9412  21.9705  21.9948  22.2431  22.3854  22.5311  22.8780  23.1143
    23.2615  23.7220  24.1097  24.1982  24.3631  24.5889  24.6080  24.6336
    25.1358

          k = 0.3750 0.0000 0.0000 ( 17794 PWs)   bands (ev):

    -0.3422  -0.3422   0.0159   0.6143   0.7960   1.0337   1.0337   1.0467
     1.0503   1.6643   1.8497   1.8497   4.2135   4.2135   4.4683   5.6301
     5.6851   7.1617   7.4436   7.7821   7.7821   9.3495   9.8665   9.9264
    10.3608  10.3736  10.5594  10.5897  10.5897  10.6163  10.8047  10.8314
    10.9146  10.9146  11.0918  11.2132  11.2296  11.2296  11.3096  11.3401
    11.5116  11.5116  11.7307  11.7308  11.8096  11.8096  11.8628  11.9151
    11.9487  11.9488  11.9883  12.0213  12.2018  12.2018  12.2341  12.2846
    12.3538  12.3538  12.4923  12.4923  12.6545  12.8269  12.8863  12.8863
    12.9902  13.0075  13.0075  13.0758  13.0854  13.0854  13.2072  13.2084
    13.2665  13.3208  13.3208  13.3513  13.3516  13.3516  13.3821  13.3861
    13.4214  13.5042  13.5042  13.5304  13.5311  13.5552  13.6175  13.6175
    13.6288  13.6300  13.6895  13.6895  13.7169  13.7553  13.7931  13.7962
    13.9496  14.0233  14.0653  14.0654  14.0939  14.0939  14.1469  14.3414
    14.4024  14.4024  14.4749  14.5148  14.5273  14.5963  14.5963  14.8070
    14.9070  14.9070  14.9730  14.9954  15.0986  15.1519  15.2450  15.2450
    15.2725  15.3038  15.3454  15.3479  15.3869  15.4005  15.5931  15.6000
    15.6000  15.6568  15.8333  15.8493  15.9238  15.9238  15.9735  15.9735
    15.9967  15.9970  16.0820  16.0820  16.1411  16.1411  16.2655  16.5354
    16.7014  16.7014  16.7599  16.9031  17.0959  17.0959  17.2435  17.2539
    17.8406  18.0079  18.0079  18.1081  18.6854  18.6854  18.9973  18.9973
    19.9165  19.9165  20.0765  20.3507  20.4128  20.4128  21.3778  21.5699
    21.5699  21.7213  21.7213  21.7337  21.8787  21.8787  22.0988  22.0988
    22.3597  22.3597  22.8104  22.8104  23.4967  23.9765  24.0880  24.0880
    24.4670

          k = 0.3750 0.0589 0.0000 ( 17796 PWs)   bands (ev):

    -0.3525  -0.3119   0.0103   0.5897   0.7907   0.9961   1.0554   1.0669
     1.0722   1.6839   1.7920   1.9098   4.1984   4.2543   4.4853   5.4942
     5.7920   7.2323   7.3382   7.6207   7.8650   9.4181   9.9383   9.9597
    10.3968  10.4095  10.5742  10.5945  10.5972  10.6541  10.8188  10.8369
    10.8661  10.9837  11.1233  11.1801  11.2053  11.2490  11.3470  11.3619
    11.3786  11.5588  11.6919  11.7189  11.8177  11.8208  11.8284  11.9088
    11.9243  12.0060  12.0265  12.0550  12.1433  12.2184  12.2828  12.3157
    12.3262  12.3776  12.4869  12.5654  12.6583  12.8394  12.8761  12.8840
    12.9265  12.9840  13.0206  13.0526  13.0685  13.1544  13.1931  13.2104
    13.2393  13.2868  13.3092  13.3539  13.3709  13.3836  13.3921  13.3924
    13.3967  13.4831  13.4868  13.5482  13.5560  13.5605  13.5928  13.5989
    13.6134  13.6229  13.6255  13.6658  13.7395  13.7560  13.8159  13.8224
    13.8842  13.9961  14.0068  14.1085  14.1219  14.1266  14.1637  14.3193
    14.3650  14.3818  14.3895  14.4334  14.5631  14.5900  14.6128  14.8284
    14.8997  14.9003  14.9246  14.9600  15.1099  15.1169  15.1332  15.1339
    15.1961  15.2485  15.2568  15.3405  15.4215  15.5028  15.5269  15.6032
    15.7034  15.7417  15.8352  15.8730  15.8828  15.9124  15.9210  15.9465
    15.9468  15.9469  15.9949  16.0977  16.0977  16.1200  16.3442  16.3675
    16.6266  16.8580  16.9598  16.9752  17.0082  17.1082  17.2681  17.2828
    17.4619  17.9188  18.1612  18.1872  18.3239  18.8258  19.0108  19.4040
    19.5868  19.7461  20.1077  20.3639  20.5561  20.9229  21.1885  21.2143
    21.2917  21.3157  21.3878  21.5726  21.7510  22.2227  22.4779  22.5353
    22.5392  22.6693  23.2382  23.2852  23.5166  23.9261  23.9959  24.2840
    24.4974

          k = 0.3750 0.1179 0.0000 ( 17793 PWs)   bands (ev):

    -0.3438  -0.2617  -0.0067   0.5241   0.7802   0.9557   1.0757   1.0945
     1.1308   1.7377   1.7385   1.9677   4.2085   4.3221   4.5349   5.2985
     5.9287   7.0840   7.3889   7.4171   7.8634   9.5687  10.0558  10.1427
    10.4525  10.5008  10.5130  10.5396  10.6009  10.7077  10.7679  10.9292
    10.9630  10.9675  11.0605  11.2067  11.2120  11.3506  11.4085  11.4501
    11.4848  11.5801  11.7104  11.7144  11.7591  11.8452  11.8564  11.9275
    11.9534  12.0335  12.1158  12.1285  12.1433  12.1803  12.3260  12.3323
    12.3705  12.4112  12.5280  12.5919  12.6731  12.8116  12.8469  12.8530
    12.8935  12.9457  12.9584  13.0146  13.0412  13.1511  13.1599  13.1620
    13.2060  13.2235  13.2670  13.3160  13.3264  13.3410  13.3676  13.4358
    13.4400  13.4525  13.4592  13.5057  13.5449  13.5599  13.5735  13.6184
    13.6211  13.6233  13.6266  13.6381  13.6967  13.7808  13.8484  13.8594
    13.8614  13.9037  13.9070  14.0292  14.1257  14.1654  14.1866  14.2567
    14.3083  14.3257  14.3331  14.3402  14.5928  14.6356  14.6373  14.6603
    14.7298  14.8301  14.8327  14.8697  14.9328  14.9711  15.0076  15.0153
    15.1097  15.1899  15.3078  15.3580  15.4901  15.5064  15.5149  15.6223
    15.6493  15.7166  15.7537  15.7677  15.8190  15.8415  15.8613  15.8837
    15.8876  15.9075  15.9563  15.9822  15.9952  16.1752  16.2039  16.5725
[...]
    12.9328  12.9328  12.9355  12.9355  13.0235  13.0235  13.0962  13.0962
    13.3955  13.3956  13.3963  13.3964  13.5519  13.5519  13.5535  13.5535
    13.7140  13.7140  13.8444  13.8444  13.8450  13.8450  14.0563  14.0563
    14.0570  14.0570  14.2427  14.2427  14.8295  14.8295  14.8305  14.8305
    14.9809  14.9809  15.0508  15.0508  15.0514  15.0514  15.2031  15.2031
    15.2037  15.2037  15.2690  15.2690  15.2697  15.2697  15.3253  15.3253
    15.3263  15.3263  15.3314  15.3314  15.3318  15.3318  15.3792  15.3792
    15.4037  15.4037  15.4048  15.4048  15.6219  15.6219  15.7160  15.7160
    15.7164  15.7164  15.8888  15.8888  15.8899  15.8899  16.1270  16.1270
    16.4762  16.4762  16.4791  16.4791  18.3754  18.3754  18.3765  18.3765
    20.5948  20.5948  20.5950  20.5950  20.6417  20.6417  20.7361  20.7361
    20.7373  20.7373  21.1298  21.1298  21.1307  21.1307  22.1405  22.1405
    22.1425  22.1426  22.5419  22.5420  22.5453  22.5453  23.8329  23.8332
    23.8360

          k =-0.5000 0.0589 0.0000 ( 17814 PWs)   bands (ev):

     9.4244   9.4244   9.4803   9.4803   9.7679   9.7679   9.7697   9.7697
     9.8871   9.8871   9.8887   9.8887   9.9941   9.9941   9.9959   9.9959
    10.0437  10.0437  10.0454  10.0454  11.0269  11.0269  11.0292  11.0292
    11.0987  11.0987  11.0994  11.0994  11.1029  11.1029  11.3068  11.3068
    11.3086  11.3086  11.6864  11.6864  11.6890  11.6890  11.7636  11.7636
    11.7658  11.7658  11.9281  11.9282  12.0663  12.0663  12.0677  12.0677
    12.2484  12.2484  12.2503  12.2503  12.3211  12.3211  12.3232  12.3232
    12.4418  12.4418  12.4423  12.4423  12.4590  12.4590  12.4615  12.4615
    12.5954  12.5954  12.5961  12.5961  12.6362  12.6362  12.6372  12.6372
    12.6517  12.6517  12.6526  12.6526  12.7556  12.7556  12.7576  12.7576
    12.9372  12.9372  12.9398  12.9398  12.9782  12.9782  13.0390  13.0390
    13.4547  13.4547  13.4554  13.4554  13.5674  13.5674  13.5689  13.5690
    13.7914  13.7914  13.7920  13.7920  13.8492  13.8492  14.0651  14.0652
    14.0659  14.0659  14.2057  14.2057  14.6518  14.6518  14.6526  14.6526
    15.0029  15.0029  15.0037  15.0037  15.0070  15.0070  15.0494  15.0494
    15.0502  15.0502  15.1749  15.1749  15.2168  15.2168  15.2175  15.2175
    15.2307  15.2307  15.2314  15.2314  15.2738  15.2738  15.2742  15.2742
    15.5373  15.5373  15.5383  15.5384  15.6154  15.6154  15.8434  15.8434
    15.8445  15.8445  15.8924  15.8924  15.8927  15.8927  16.1300  16.1300
    16.6831  16.6831  16.6855  16.6855  18.1702  18.1703  18.1712  18.1712
    20.0850  20.0850  20.0861  20.0861  20.8677  20.8677  20.9314  20.9314
    20.9315  20.9315  21.8476  21.8476  21.8492  21.8492  21.8881  21.8882
    21.8891  21.8891  22.5527  22.5527  22.5560  22.5561  24.2312  24.2314
    24.2334

          k =-0.5000 0.1179 0.0000 ( 17794 PWs)   bands (ev):

     9.4844   9.4844   9.5097   9.5097   9.8613   9.8613   9.8632   9.8632
     9.9759   9.9759   9.9775   9.9775  10.0319  10.0319  10.0336  10.0336
    10.1500  10.1500  10.1518  10.1518  11.0849  11.0849  11.0873  11.0873
    11.1325  11.1325  11.1331  11.1331  11.1781  11.1781  11.3343  11.3343
    11.3360  11.3360  11.6281  11.6282  11.6302  11.6302  11.7427  11.7427
    11.7454  11.7454  11.9319  11.9319  12.1563  12.1563  12.1576  12.1576
    12.1721  12.1721  12.1740  12.1741  12.2644  12.2644  12.2663  12.2663
    12.3515  12.3515  12.3538  12.3539  12.3659  12.3659  12.3664  12.3665
    12.5355  12.5355  12.5365  12.5365  12.6901  12.6902  12.6908  12.6908
    12.7431  12.7431  12.7442  12.7442  12.7513  12.7513  12.7527  12.7527
    12.7593  12.7593  12.9705  12.9705  12.9726  12.9726  13.0848  13.0848
    13.5935  13.5935  13.5941  13.5941  13.6054  13.6054  13.6069  13.6070
    13.6279  13.6279  13.6286  13.6286  14.0778  14.0778  14.0785  14.0785
    14.1088  14.1088  14.1197  14.1197  14.3999  14.3999  14.4008  14.4008
    14.5638  14.5638  14.5645  14.5645  14.6878  14.6878  14.8016  14.8016
    14.8026  14.8027  15.0669  15.0669  15.0676  15.0676  15.0723  15.0723
    15.1187  15.1187  15.1191  15.1191  15.4890  15.4890  15.4897  15.4897
    15.5690  15.5690  15.5702  15.5702  15.5959  15.5959  15.7232  15.7232
    15.7243  15.7243  16.0877  16.0877  16.2096  16.2096  16.2098  16.2098
    17.1427  17.1427  17.1445  17.1445  17.7775  17.7775  17.7782  17.7782
    19.3920  19.3920  19.3930  19.3930  21.3212  21.3212  21.3227  21.3227
    21.4735  21.4735  21.7066  21.7066  21.7069  21.7069  22.5878  22.5878
    22.5910  22.5911  22.8955  22.8955  22.8963  22.8963  24.9161  24.9169
    24.9171

          k =-0.5000 0.1768 0.0000 ( 17756 PWs)   bands (ev):

     9.5537   9.5537   9.5629   9.5629  10.0107  10.0107  10.0126  10.0126
    10.0899  10.0899  10.0917  10.0917  10.0984  10.0984  10.1001  10.1001
    10.3184  10.3184  10.3202  10.3202  11.1764  11.1764  11.1770  11.1770
    11.1773  11.1773  11.1792  11.1793  11.3196  11.3196  11.3971  11.3971
    11.3987  11.3987  11.4385  11.4385  11.4404  11.4405  11.8326  11.8326
    11.8352  11.8352  11.9422  11.9422  12.0617  12.0617  12.0637  12.0637
    12.2021  12.2021  12.2041  12.2041  12.2093  12.2093  12.2111  12.2111
    12.2604  12.2604  12.2616  12.2616  12.2910  12.2910  12.2922  12.2922
    12.4114  12.4114  12.4125  12.4125  12.5416  12.5416  12.6933  12.6933
    12.6948  12.6948  12.8348  12.8348  12.8354  12.8354  12.8820  12.8820
    12.8831  12.8831  13.0598  13.0598  13.0609  13.0609  13.1593  13.1593
    13.3512  13.3512  13.3520  13.3520  13.6476  13.6476  13.6491  13.6491
    13.7636  13.7636  13.7641  13.7641  13.9764  13.9764  14.0569  14.0569
    14.0576  14.0576  14.0814  14.0814  14.1221  14.1221  14.1229  14.1230
    14.1470  14.1470  14.1479  14.1479  14.4243  14.4243  14.5798  14.5798
    14.5812  14.5812  14.8429  14.8429  14.8436  14.8436  14.9124  14.9124
    14.9128  14.9128  15.1552  15.1552  15.5506  15.5506  15.5518  15.5518
    15.5640  15.5640  15.5743  15.5743  15.5754  15.5754  15.7529  15.7529
    15.7535  15.7535  15.9743  15.9743  16.5515  16.5515  16.5517  16.5517
    17.4024  17.4024  17.4030  17.4030  17.6862  17.6862  17.6877  17.6877
    18.8147  18.8147  18.8157  18.8157  20.8009  20.8009  20.8022  20.8023
    22.3277  22.3277  22.6555  22.6555  22.6587  22.6587  22.6772  22.6772
    22.6776  22.6776  23.9680  23.9680  23.9688  23.9688  24.5339  24.5350
    24.5355

          k =-0.5000 0.2357 0.0000 ( 17778 PWs)   bands (ev):

     9.6043   9.6043   9.6338   9.6338  10.1600  10.1600  10.1618  10.1618
    10.2069  10.2069  10.2089  10.2089  10.2136  10.2136  10.2154  10.2154
    10.5343  10.5343  10.5362  10.5362  11.1961  11.1962  11.1983  11.1983
    11.2037  11.2037  11.2040  11.2040  11.3129  11.3129  11.3147  11.3147
    11.5246  11.5246  11.5260  11.5260  11.5471  11.5471  11.9253  11.9253
    11.9274  11.9274  11.9376  11.9376  11.9404  11.9404  11.9646  11.9646
    12.0639  12.0639  12.0656  12.0656  12.1410  12.1410  12.1425  12.1425
    12.1625  12.1625  12.1643  12.1643  12.3107  12.3107  12.3119  12.3119
    12.3542  12.3542  12.4725  12.4725  12.4737  12.4737  12.5846  12.5846
    12.5861  12.5861  12.9702  12.9702  12.9711  12.9711  13.0227  13.0227
    13.0233  13.0233  13.0586  13.0586  13.0596  13.0596  13.1973  13.1973
    13.1978  13.1978  13.2597  13.2597  13.4527  13.4527  13.6719  13.6719
    13.6731  13.6731  13.7112  13.7112  13.7120  13.7120  13.8268  13.8268
    13.8988  13.8988  13.8997  13.8997  13.9453  13.9453  13.9459  13.9459
    13.9598  13.9598  13.9604  13.9604  14.4108  14.4108  14.4125  14.4125
    14.5906  14.5906  14.5915  14.5915  14.7002  14.7002  14.7007  14.7007
    14.7344  14.7344  15.2414  15.2414  15.4578  15.4578  15.4590  15.4590
    15.5108  15.5108  15.5121  15.5121  15.5200  15.5200  15.8004  15.8004
    16.0156  16.0156  16.0162  16.0162  16.8952  16.8952  16.8954  16.8954
    17.0819  17.0819  17.0824  17.0824  18.2498  18.2498  18.2512  18.2512
    18.3403  18.3403  18.3411  18.3411  20.3120  20.3120  20.3133  20.3133
    22.7699  22.7699  22.7729  22.7729  23.3330  23.3330  23.7484  23.7484
    23.7488  23.7488  24.0199  24.0199  24.0217  24.0217  25.0655  25.0655
    25.0661

          k =-0.5000 0.2946 0.0000 ( 17762 PWs)   bands (ev):

     9.6503   9.6503   9.6748   9.6748  10.2289  10.2289  10.2307  10.2307
    10.2776  10.2776  10.2794  10.2795  10.4384  10.4384  10.4404  10.4404
    10.7745  10.7745  10.7764  10.7764  10.9503  10.9504  10.9525  10.9525
    11.1579  11.1579  11.1589  11.1589  11.4520  11.4520  11.4541  11.4541
    11.7427  11.7427  11.7441  11.7441  11.7715  11.7715  11.7736  11.7736
    11.8693  11.8693  11.9261  11.9261  11.9270  11.9270  12.0060  12.0060
    12.0250  12.0250  12.0265  12.0265  12.1188  12.1188  12.1207  12.1207
    12.1259  12.1259  12.1271  12.1271  12.2134  12.2134  12.2539  12.2539
    12.2553  12.2553  12.4410  12.4411  12.4426  12.4426  12.5804  12.5804
    12.5813  12.5813  12.7020  12.7021  12.7032  12.7032  12.8588  12.8588
    13.2006  13.2006  13.2015  13.2015  13.2360  13.2360  13.2370  13.2370
    13.3660  13.3660  13.3663  13.3663  13.3821  13.3821  13.3895  13.3895
    13.3897  13.3897  13.6451  13.6451  13.6460  13.6460  13.6638  13.6639
    13.6648  13.6648  13.6722  13.6722  13.7743  13.7744  13.7749  13.7749
    14.1267  14.1267  14.1272  14.1272  14.3063  14.3063  14.3081  14.3081
    14.3806  14.3806  14.3818  14.3818  14.5004  14.5004  14.5008  14.5008
    15.0366  15.0366  15.3238  15.3238  15.4104  15.4105  15.4116  15.4116
    15.4630  15.4630  15.4642  15.4642  15.4646  15.4646  15.5791  15.5791
    16.2758  16.2758  16.2763  16.2763  16.7995  16.7995  16.7999  16.7999
    17.2361  17.2361  17.2364  17.2364  17.9390  17.9390  17.9397  17.9397
    18.8043  18.8043  18.8055  18.8056  19.8313  19.8314  19.8326  19.8326
    22.9490  22.9490  22.9518  22.9518  23.5698  23.5698  23.5719  23.5719
    24.4335  24.4335  24.8788  24.8788  24.8791  24.8791  26.1085  26.1085
    26.1092

          k =-0.5000-0.3536 0.0000 ( 17712 PWs)   bands (ev):

     9.6782   9.6782   9.6782   9.6782  10.2767  10.2767  10.2767  10.2767
    10.2785  10.2785  10.2785  10.2785  10.6911  10.6911  10.6911  10.6911
    10.6931  10.6931  10.6931  10.6932  11.0015  11.0015  11.0015  11.0015
    11.0032  11.0032  11.0032  11.0032  11.6101  11.6101  11.6101  11.6101
    11.6122  11.6122  11.6123  11.6123  11.9394  11.9394  11.9394  11.9394
    11.9408  11.9408  11.9408  11.9408  12.0045  12.0045  12.0045  12.0045
    12.0060  12.0060  12.0060  12.0060  12.0644  12.0644  12.0644  12.0644
    12.2810  12.2810  12.2810  12.2810  12.2825  12.2825  12.2826  12.2826
    12.2933  12.2933  12.2933  12.2933  12.2945  12.2945  12.2945  12.2945
    12.3452  12.3452  12.3452  12.3452  12.9765  12.9765  12.9765  12.9765
    12.9777  12.9777  12.9777  12.9777  13.4414  13.4414  13.4414  13.4414
    13.4424  13.4424  13.4424  13.4424  13.5216  13.5216  13.5216  13.5216
    13.5343  13.5343  13.5343  13.5343  13.5347  13.5347  13.5347  13.5347
    13.5374  13.5374  13.5374  13.5374  13.5380  13.5380  13.5380  13.5380
    14.2844  14.2844  14.2844  14.2844  14.2861  14.2861  14.2861  14.2861
    14.3111  14.3111  14.3111  14.3111  14.3115  14.3115  14.3116  14.3116
    15.3212  15.3212  15.3212  15.3212  15.3988  15.3988  15.3988  15.3988
    15.4219  15.4219  15.4219  15.4219  15.4231  15.4231  15.4231  15.4231
    16.5351  16.5351  16.5351  16.5351  16.5355  16.5355  16.5355  16.5355
    17.5792  17.5792  17.5792  17.5792  17.5796  17.5796  17.5796  17.5796
    19.3329  19.3329  19.3329  19.3329  19.3341  19.3341  19.3341  19.3341
    23.2117  23.2117  23.2117  23.2117  23.2141  23.2141  23.2141  23.2141
    25.5977  25.5977  25.5977  25.5977  26.0435  26.0438  26.0438  26.0439
    26.0439

     the Fermi energy is    18.2826 ev

!    total energy              =  -21704.81198975 Ry

     total all-electron energy =  -1064672.502539 Ry
     estimated scf accuracy    <          9.1E-09 Ry
     smearing contrib. (-TS)   =      -3.18094227 Ry
     internal energy E=F+TS    =  -21701.63104748 Ry

     The total energy is F=E-TS. E is the sum of the following terms:
     one-electron contribution =     459.53268017 Ry
     hartree contribution      =     194.28296287 Ry
     xc contribution           =    -900.51782551 Ry
     ewald contribution        =   -2063.74376327 Ry
     one-center paw contrib.   =  -19391.18510174 Ry

     convergence has been achieved in   9 iterations

     Forces acting on atoms (cartesian axes, Ry/au):

     atom    1 type  1   force =     0.00000005   -0.00000027    0.00023036
     atom    2 type  1   force =     0.00000006   -0.00000026    0.00022944
     atom    3 type  1   force =    -0.00000008    0.00000042    0.00037913
     atom    4 type  1   force =    -0.00000010    0.00000029    0.00037905
     atom    5 type  1   force =     0.00000011   -0.00000019   -0.00047690
     atom    6 type  1   force =     0.00000013   -0.00000024   -0.00047652
     atom    7 type  1   force =    -0.00000003    0.00000041   -0.00052721
     atom    8 type  1   force =    -0.00000003    0.00000027   -0.00052722
     atom    9 type  1   force =     0.00000014   -0.00000017    0.00003781
     atom   10 type  1   force =     0.00000012   -0.00000021    0.00003738
     atom   11 type  1   force =    -0.00000006    0.00000027    0.00056047
     atom   12 type  1   force =    -0.00000000    0.00000042    0.00056032
     atom   13 type  1   force =     0.00000012   -0.00000029    0.00050373
     atom   14 type  1   force =     0.00000009   -0.00000025    0.00050376
     atom   15 type  1   force =    -0.00000007    0.00000019   -0.00049997
     atom   16 type  1   force =    -0.00000010    0.00000033   -0.00049986
     atom   17 type  1   force =     0.00000007   -0.00000021   -0.00056318
     atom   18 type  1   force =     0.00000004   -0.00000047   -0.00056338
     atom   19 type  1   force =    -0.00000010    0.00000011   -0.00005303
     atom   20 type  1   force =    -0.00000016    0.00000031   -0.00005302
     atom   21 type  1   force =     0.00000005   -0.00000035    0.00052038
     atom   22 type  1   force =    -0.00000002   -0.00000031    0.00051971
     atom   23 type  1   force =    -0.00000011    0.00000024    0.00047876
     atom   24 type  1   force =    -0.00000009    0.00000016    0.00047880
     atom   25 type  1   force =     0.00000005   -0.00000030   -0.00037580
     atom   26 type  1   force =     0.00000006   -0.00000036   -0.00037507
     atom   27 type  1   force =    -0.00000009    0.00000008   -0.00021402
     atom   28 type  1   force =    -0.00000004    0.00000036   -0.00021392

     Total force =     0.002248     Total SCF correction =     0.000315
     SCF correction compared to forces is large: reduce conv_thr to get better values
     Energy error            =      8.7E-06 Ry
     Gradient error          =      5.6E-04 Ry/Bohr

     bfgs converged in  16 scf cycles and  15 bfgs steps
     (criteria: energy <  1.0E-04 Ry, force <  1.0E-03 Ry/Bohr)

     End of BFGS Geometry Optimization

     Final energy             =  -21704.8119897519 Ry

     File ./pwscf.bfgs deleted, as requested
Begin final coordinates

ATOMIC_POSITIONS (angstrom)
Au            2.0400000000        1.4424978336        0.6698089879    0   0   1
Au            2.0400000000        4.3274935009        0.6698107126    0   0   1
Au            0.0000000000        0.0000000000        2.0092527409    0   0   1
Au            0.0000000000        2.8849956672        2.0092527928    0   0   1
Au            2.0400000000        1.4424978336        3.3496665337    0   0   1
Au            2.0400000000        4.3274935009        3.3496668471    0   0   1
Au            0.0000000000        0.0000000000        4.6893138108    0   0   1
Au            0.0000000000        2.8849956672        4.6893140166    0   0   1
Au            2.0400000000        1.4424978336        6.0277100897    0   0   1
Au            2.0400000000        4.3274935009        6.0277107163    0   0   1
Au            0.0000000000        0.0000000000        7.3672480353    0   0   1
Au            0.0000000000        2.8849956672        7.3672482459    0   0   1
Au            2.0400000000        1.4424978336        8.7056471776    0   0   1
Au            2.0400000000        4.3274935009        8.7056475065    0   0   1
Au            0.0000000000        0.0000000000       10.0468430663    0   0   1
Au            0.0000000000        2.8849956672       10.0468426126    0   0   1
Au            2.0400000000        1.4424978336       11.3852463698    0   0   1
Au            2.0400000000        4.3274935009       11.3852473277    0   0   1
Au            0.0000000000        0.0000000000       12.7247933968    0   0   1
Au            0.0000000000        2.8849956672       12.7247931373    0   0   1
Au            2.0400000000        1.4424978336       14.0631699079    0   0   1
Au            2.0400000000        4.3274935009       14.0631713244    0   0   1
Au            0.0000000000        0.0000000000       15.4027966582    0   0   1
Au            0.0000000000        2.8849956672       15.4027965518    0   0   1
Au            2.0400000000        1.4424978336       16.7431906401    0   0   1
Au            2.0400000000        4.3274935009       16.7431908169    0   0   1
Au            0.0000000000        0.0000000000       18.0826129495    0   0   1
Au            0.0000000000        2.8849956672       18.0826127457    0   0   1
End final coordinates



     Writing all to output data dir ./pwscf.save/
 
     init_run     :     23.51s CPU     24.79s WALL (       1 calls)
     electrons    :  19429.80s CPU  19583.71s WALL (      16 calls)
     update_pot   :      7.57s CPU      7.62s WALL (      15 calls)
     forces       :    170.71s CPU    171.70s WALL (      16 calls)

     Called by init_run:
     wfcinit      :     22.74s CPU     23.36s WALL (       1 calls)
     potinit      :      0.49s CPU      0.82s WALL (       1 calls)
     hinit0       :      0.16s CPU      0.37s WALL (       1 calls)

     Called by electrons:
     c_bands      :  17898.56s CPU  18028.13s WALL (     255 calls)
     sum_band     :   1430.34s CPU   1447.14s WALL (     255 calls)
     v_of_rho     :      7.17s CPU      9.23s WALL (     266 calls)
     newd         :     15.67s CPU     19.35s WALL (     266 calls)
     PAW_pot      :     86.30s CPU     86.68s WALL (     281 calls)
     mix_rho      :      1.61s CPU      1.62s WALL (     255 calls)

     Called by c_bands:
     init_us_2    :    158.88s CPU    160.32s WALL (   27100 calls)
     init_us_2:cp :    158.69s CPU    160.24s WALL (   27100 calls)
     cegterg      :  17234.27s CPU  17358.93s WALL (   12827 calls)

     Called by *egterg:
     cdiaghg      :   1497.29s CPU   1508.94s WALL (   66355 calls)
     h_psi        :   7712.30s CPU   7787.80s WALL (   67482 calls)
     s_psi        :   1477.67s CPU   1484.03s WALL (   67482 calls)
     g_psi        :     33.40s CPU     33.90s WALL (   54605 calls)

     Called by h_psi:
     h_psi:calbec :   1701.47s CPU   1708.10s WALL (   67482 calls)
     vloc_psi     :   4254.23s CPU   4310.17s WALL (   67482 calls)
     add_vuspsi   :   1675.09s CPU   1684.08s WALL (   67482 calls)

     General routines
     calbec       :   2383.29s CPU   2392.41s WALL (   84182 calls)
     fft          :      6.69s CPU      9.44s WALL (    3622 calls)
     ffts         :      0.48s CPU      0.63s WALL (     521 calls)
     fftw         :   4642.28s CPU   4694.42s WALL (16352390 calls)
     interpolate  :      0.88s CPU      1.15s WALL (     266 calls)
 
     Parallel routines
 
     PWSCF        :      5h28m CPU      5h30m WALL

 
   This run was terminated on:  16:43:23  18Mar2024            

=------------------------------------------------------------------------------=
   JOB DONE.
=------------------------------------------------------------------------------=
