MPI startup(): Warning: I_MPI_PMI_LIBRARY will be ignored since the hydra process manager was found
MPI startup(): Warning: I_MPI_PMI_LIBRARY will be ignored since the hydra process manager was found
MPI startup(): Warning: I_MPI_PMI_LIBRARY will be ignored since the hydra process manager was found
MPI startup(): Warning: I_MPI_PMI_LIBRARY will be ignored since the hydra process manager was found
MPI startup(): Warning: I_MPI_PMI_LIBRARY will be ignored since the hydra process manager was found
MPI startup(): Warning: I_MPI_PMI_LIBRARY will be ignored since the hydra process manager was found
MPI startup(): Warning: I_MPI_PMI_LIBRARY will be ignored since the hydra process manager was found
MPI startup(): Warning: I_MPI_PMI_LIBRARY will be ignored since the hydra process manager was found
MPI startup(): Warning: I_MPI_PMI_LIBRARY will be ignored since the hydra process manager was found
MPI startup(): Warning: I_MPI_PMI_LIBRARY will be ignored since the hydra process manager was found

     Program PWSCF v.7.0 starts on  9Mar2024 at  9:22:36 

     This program is part of the open-source Quantum ESPRESSO suite
     for quantum simulation of materials; please cite
         "P. Giannozzi et al., J. Phys.:Condens. Matter 21 395502 (2009);
         "P. Giannozzi et al., J. Phys.:Condens. Matter 29 465901 (2017);
         "P. Giannozzi et al., J. Chem. Phys. 152 154105 (2020);
          URL http://www.quantum-espresso.org", 
     in publications or presentations arising from this work. More details at
     http://www.quantum-espresso.org/quote

     Parallel version (MPI), running on    10 processors

     MPI processes distributed on     1 nodes
     R & G space division:  proc/nbgrp/npool/nimage =      10
     98116 MiB available memory on the printing compute node when the environment starts
 
     Reading input from GSF110R_0.4.in
Warning: card &CELL ignored
Warning: card / ignored

     Current dimensions of program PWSCF are:
     Max number of different atomic species (ntypx) = 10
     Max number of k-points (npk) =  40000
     Max angular momentum in pseudopotentials (lmaxx) =  4
     file Au.pbe-n-kjpaw_psl.1.0.0.UPF: wavefunction(s)  6S 5D renormalized
     Found identity + (  0.0000 -0.5000  0.0000) symmetry
     This is a supercell, fractional translations are disabled

     Subspace diagonalization in iterative solution of the eigenvalue problem:
     one sub-group per band group will be used
     scalapack distributed-memory algorithm (size of sub-group:  3*  3 procs)

 
     Parallelization info
     --------------------
     sticks:   dense  smooth     PW     G-vecs:    dense   smooth      PW
     Min         200     133     38                26142    14227    2178
     Max         201     134     39                26149    14242    2183
     Sum        2007    1339    389               261457   142317   21821
 
     Using Slab Decomposition
 


     bravais-lattice index     =            0
     lattice parameter (alat)  =       7.7101  a.u.
     unit-cell volume          =    2979.1368 (a.u.)^3
     number of atoms/cell      =           28
     number of atomic types    =            1
     number of electrons       =       308.00
     number of Kohn-Sham states=          185
     kinetic-energy cutoff     =      50.0000  Ry
     charge density cutoff     =     300.0000  Ry
     scf convergence threshold =      1.0E-06
     mixing beta               =       0.0080
     number of iterations used =            8  plain     mixing
     energy convergence thresh.=      1.0E-04
     force convergence thresh. =      1.0E-03
     Exchange-correlation= SLA  PW   PBX  PBC
                           (   1   4   3   4   0   0   0)
     nstep                     =           50


     celldm(1)=   7.710083  celldm(2)=   0.000000  celldm(3)=   0.000000
     celldm(4)=   0.000000  celldm(5)=   0.000000  celldm(6)=   0.000000

     crystal axes: (cart. coord. in units of alat)
               a(1) = (   1.000000   0.000000   0.000000 )  
               a(2) = (   0.000000   1.414214   0.000000 )  
               a(3) = (   0.000000   0.000000   4.596194 )  

     reciprocal axes: (cart. coord. in units 2 pi/alat)
               b(1) = (  1.000000  0.000000  0.000000 )  
               b(2) = (  0.000000  0.707107  0.000000 )  
               b(3) = (  0.000000  0.000000  0.217571 )  


     PseudoPot. # 1 for Au read from file:
     ./Au.pbe-n-kjpaw_psl.1.0.0.UPF
     MD5 check sum: 4db85c736373c707a97ce4c36c2a9d23
     Pseudo is Projector augmented-wave + core cor, Zval = 11.0
     Generated using &quot;atomic&quot; code by A. Dal Corso  v.6.3
     Shape of augmentation charge: PSQ
     Using radial grid of 1279 points,  6 beta functions with: 
                l(1) =   0
                l(2) =   0
                l(3) =   1
                l(4) =   1
                l(5) =   2
                l(6) =   2
     Q(r) pseudized with 0 coefficients 


     atomic species   valence    mass     pseudopotential
        Au            11.00   196.96657     Au( 1.00)

     No symmetry found



   Cartesian axes

     site n.     atom                  positions (alat units)
         1           Au  tau(   1) = (   0.5000000   0.3535534   0.0000000  )
         2           Au  tau(   2) = (   0.5000000   1.0606602   0.0000000  )
         3           Au  tau(   3) = (   0.0000000   0.0000000   0.3535534  )
         4           Au  tau(   4) = (   0.0000000   0.7071068   0.3535534  )
         5           Au  tau(   5) = (   0.5000000   0.3535534   0.7071068  )
         6           Au  tau(   6) = (   0.5000000   1.0606602   0.7071068  )
         7           Au  tau(   7) = (   0.0000000   0.0000000   1.0606602  )
         8           Au  tau(   8) = (   0.0000000   0.7071068   1.0606602  )
         9           Au  tau(   9) = (   0.5000000   0.3535534   1.4142136  )
        10           Au  tau(  10) = (   0.5000000   1.0606602   1.4142136  )
        11           Au  tau(  11) = (   0.0000000   0.0000000   1.7677670  )
        12           Au  tau(  12) = (   0.0000000   0.7071068   1.7677670  )
        13           Au  tau(  13) = (   0.5000000   0.3535534   2.1213203  )
        14           Au  tau(  14) = (   0.5000000   1.0606602   2.1213203  )
        15           Au  tau(  15) = (   0.0000000   0.0000000   2.4748737  )
        16           Au  tau(  16) = (   0.0000000   0.7071068   2.4748737  )
        17           Au  tau(  17) = (   0.9000000   0.3535534   2.8284271  )
        18           Au  tau(  18) = (   0.9000000   1.0606602   2.8284271  )
        19           Au  tau(  19) = (   0.4000000   0.0000000   3.1819805  )
        20           Au  tau(  20) = (   0.4000000   0.7071068   3.1819805  )
        21           Au  tau(  21) = (   0.9000000   0.3535534   3.5355339  )
        22           Au  tau(  22) = (   0.9000000   1.0606602   3.5355339  )
        23           Au  tau(  23) = (   0.4000000   0.0000000   3.8890873  )
        24           Au  tau(  24) = (   0.4000000   0.7071068   3.8890873  )
        25           Au  tau(  25) = (   0.9000000   0.3535534   4.2426407  )
        26           Au  tau(  26) = (   0.9000000   1.0606602   4.2426407  )
        27           Au  tau(  27) = (   0.4000000   0.0000000   4.5961941  )
        28           Au  tau(  28) = (   0.4000000   0.7071068   4.5961941  )

     number of k points=    50  Gaussian smearing, width (Ry)=  0.0080
                       cart. coord. in units 2pi/alat
        k(    1) = (   0.0000000   0.0000000   0.0000000), wk =   0.0208333
        k(    2) = (   0.0000000   0.0589256   0.0000000), wk =   0.0416667
        k(    3) = (   0.0000000   0.1178511   0.0000000), wk =   0.0416667
        k(    4) = (   0.0000000   0.1767767   0.0000000), wk =   0.0416667
        k(    5) = (   0.0000000   0.2357023   0.0000000), wk =   0.0416667
        k(    6) = (   0.0000000   0.2946278   0.0000000), wk =   0.0416667
        k(    7) = (   0.0000000  -0.3535534   0.0000000), wk =   0.0208333
        k(    8) = (   0.1250000   0.0000000   0.0000000), wk =   0.0416667
        k(    9) = (   0.1250000   0.0589256   0.0000000), wk =   0.0416667
        k(   10) = (   0.1250000   0.1178511   0.0000000), wk =   0.0416667
        k(   11) = (   0.1250000   0.1767767   0.0000000), wk =   0.0416667
        k(   12) = (   0.1250000   0.2357023   0.0000000), wk =   0.0416667
        k(   13) = (   0.1250000   0.2946278   0.0000000), wk =   0.0416667
        k(   14) = (   0.1250000  -0.3535534   0.0000000), wk =   0.0416667
        k(   15) = (   0.1250000  -0.2946278   0.0000000), wk =   0.0416667
        k(   16) = (   0.1250000  -0.2357023   0.0000000), wk =   0.0416667
        k(   17) = (   0.1250000  -0.1767767   0.0000000), wk =   0.0416667
        k(   18) = (   0.1250000  -0.1178511   0.0000000), wk =   0.0416667
        k(   19) = (   0.1250000  -0.0589256   0.0000000), wk =   0.0416667
        k(   20) = (   0.2500000   0.0000000   0.0000000), wk =   0.0416667
        k(   21) = (   0.2500000   0.0589256   0.0000000), wk =   0.0416667
        k(   22) = (   0.2500000   0.1178511   0.0000000), wk =   0.0416667
        k(   23) = (   0.2500000   0.1767767   0.0000000), wk =   0.0416667
        k(   24) = (   0.2500000   0.2357023   0.0000000), wk =   0.0416667
        k(   25) = (   0.2500000   0.2946278   0.0000000), wk =   0.0416667
        k(   26) = (   0.2500000  -0.3535534   0.0000000), wk =   0.0416667
        k(   27) = (   0.2500000  -0.2946278   0.0000000), wk =   0.0416667
        k(   28) = (   0.2500000  -0.2357023   0.0000000), wk =   0.0416667
        k(   29) = (   0.2500000  -0.1767767   0.0000000), wk =   0.0416667
        k(   30) = (   0.2500000  -0.1178511   0.0000000), wk =   0.0416667
        k(   31) = (   0.2500000  -0.0589256   0.0000000), wk =   0.0416667
        k(   32) = (   0.3750000   0.0000000   0.0000000), wk =   0.0416667
        k(   33) = (   0.3750000   0.0589256   0.0000000), wk =   0.0416667
        k(   34) = (   0.3750000   0.1178511   0.0000000), wk =   0.0416667
        k(   35) = (   0.3750000   0.1767767   0.0000000), wk =   0.0416667
        k(   36) = (   0.3750000   0.2357023   0.0000000), wk =   0.0416667
        k(   37) = (   0.3750000   0.2946278   0.0000000), wk =   0.0416667
        k(   38) = (   0.3750000  -0.3535534   0.0000000), wk =   0.0416667
        k(   39) = (   0.3750000  -0.2946278   0.0000000), wk =   0.0416667
        k(   40) = (   0.3750000  -0.2357023   0.0000000), wk =   0.0416667
        k(   41) = (   0.3750000  -0.1767767   0.0000000), wk =   0.0416667
        k(   42) = (   0.3750000  -0.1178511   0.0000000), wk =   0.0416667
        k(   43) = (   0.3750000  -0.0589256   0.0000000), wk =   0.0416667
        k(   44) = (  -0.5000000   0.0000000   0.0000000), wk =   0.0208333
        k(   45) = (  -0.5000000   0.0589256   0.0000000), wk =   0.0416667
        k(   46) = (  -0.5000000   0.1178511   0.0000000), wk =   0.0416667
        k(   47) = (  -0.5000000   0.1767767   0.0000000), wk =   0.0416667
        k(   48) = (  -0.5000000   0.2357023   0.0000000), wk =   0.0416667
        k(   49) = (  -0.5000000   0.2946278   0.0000000), wk =   0.0416667
        k(   50) = (  -0.5000000  -0.3535534   0.0000000), wk =   0.0208333

     Dense  grid:   261457 G-vectors     FFT dimensions: (  45,  64, 200)

     Smooth grid:   142317 G-vectors     FFT dimensions: (  36,  50, 160)

     Estimated max dynamical RAM per process >     393.00 MB

     Estimated total dynamical RAM >       3.84 GB

     Initial potential from superposition of free atoms

     starting charge     307.9969, renormalised to     308.0000
     Starting wfcs are  252 randomized atomic wfcs
     Checking if some PAW data can be deallocated... 

     total cpu time spent up to now is       21.7 secs

     Self-consistent Calculation

     iteration #  1     ecut=    50.00 Ry     beta= 0.01
     Davidson diagonalization with overlap
     ethr =  1.00E-02,  avg # of iterations =  4.2

     total cpu time spent up to now is       79.8 secs

     total energy              =  -21689.31296818 Ry
     estimated scf accuracy    <      19.63976278 Ry

     iteration #  2     ecut=    50.00 Ry     beta= 0.01
     Davidson diagonalization with overlap
     ethr =  6.38E-03,  avg # of iterations =  1.2

     total cpu time spent up to now is      118.7 secs

     total energy              =  -21688.89210166 Ry
     estimated scf accuracy    <      12.96180176 Ry

     iteration #  3     ecut=    50.00 Ry     beta= 0.01
     Davidson diagonalization with overlap
     ethr =  4.21E-03,  avg # of iterations =  1.0

     total cpu time spent up to now is      156.7 secs

     total energy              =  -21689.27248773 Ry
     estimated scf accuracy    <       4.00604418 Ry

     iteration #  4     ecut=    50.00 Ry     beta= 0.01
     Davidson diagonalization with overlap
     ethr =  1.30E-03,  avg # of iterations =  1.6

     total cpu time spent up to now is      197.6 secs

     total energy              =  -21688.81546713 Ry
     estimated scf accuracy    <       3.30714112 Ry

     iteration #  5     ecut=    50.00 Ry     beta= 0.01
     Davidson diagonalization with overlap
     ethr =  1.07E-03,  avg # of iterations =  2.0

     total cpu time spent up to now is      241.5 secs

     total energy              =  -21689.13866214 Ry
     estimated scf accuracy    <       3.92046111 Ry

     iteration #  6     ecut=    50.00 Ry     beta= 0.01
     Davidson diagonalization with overlap
     ethr =  1.07E-03,  avg # of iterations =  1.0

     total cpu time spent up to now is      279.5 secs

     total energy              =  -21688.96602856 Ry
     estimated scf accuracy    <       4.62192839 Ry

     iteration #  7     ecut=    50.00 Ry     beta= 0.01
     Davidson diagonalization with overlap
     ethr =  1.07E-03,  avg # of iterations =  1.1

     total cpu time spent up to now is      317.9 secs

     total energy              =  -21688.96382445 Ry
     estimated scf accuracy    <       2.01623001 Ry

     iteration #  8     ecut=    50.00 Ry     beta= 0.01
     Davidson diagonalization with overlap
     ethr =  6.55E-04,  avg # of iterations =  1.6

     total cpu time spent up to now is      357.9 secs

     total energy              =  -21688.67228559 Ry
     estimated scf accuracy    <       1.32246287 Ry

     iteration #  9     ecut=    50.00 Ry     beta= 0.01
     Davidson diagonalization with overlap
     ethr =  4.29E-04,  avg # of iterations =  6.3

     total cpu time spent up to now is      411.7 secs

     total energy              =  -21688.86080462 Ry
     estimated scf accuracy    <       0.93046182 Ry

     iteration # 10     ecut=    50.00 Ry     beta= 0.01
     Davidson diagonalization with overlap
     ethr =  3.02E-04,  avg # of iterations =  1.6

     total cpu time spent up to now is      452.1 secs

     total energy              =  -21688.90422237 Ry
     estimated scf accuracy    <       0.69073471 Ry

     iteration # 11     ecut=    50.00 Ry     beta= 0.01
     Davidson diagonalization with overlap
     ethr =  2.24E-04,  avg # of iterations =  3.1

     total cpu time spent up to now is      496.5 secs

     total energy              =  -21688.92765098 Ry
     estimated scf accuracy    <       2.33519155 Ry

     iteration # 12     ecut=    50.00 Ry     beta= 0.01
     Davidson diagonalization with overlap
     ethr =  2.24E-04,  avg # of iterations =  1.1

     total cpu time spent up to now is      534.6 secs

     total energy              =  -21688.88826635 Ry
     estimated scf accuracy    <       2.07808153 Ry

     iteration # 13     ecut=    50.00 Ry     beta= 0.01
     Davidson diagonalization with overlap
     ethr =  2.24E-04,  avg # of iterations =  1.1

     total cpu time spent up to now is      573.3 secs

     total energy              =  -21688.79538286 Ry
     estimated scf accuracy    <       1.22781745 Ry

     iteration # 14     ecut=    50.00 Ry     beta= 0.01
     Davidson diagonalization with overlap
     ethr =  2.24E-04,  avg # of iterations =  1.3

     total cpu time spent up to now is      612.8 secs

     total energy              =  -21688.80384466 Ry
     estimated scf accuracy    <       0.22133220 Ry

     iteration # 15     ecut=    50.00 Ry     beta= 0.01
     Davidson diagonalization with overlap
     c_bands:  1 eigenvalues not converged
     ethr =  7.19E-05,  avg # of iterations =  8.5

     total cpu time spent up to now is      667.4 secs

     total energy              =  -21688.80940378 Ry
     estimated scf accuracy    <       0.08493103 Ry

     iteration # 16     ecut=    50.00 Ry     beta= 0.01
     Davidson diagonalization with overlap
     ethr =  2.76E-05,  avg # of iterations =  6.9

     total cpu time spent up to now is      720.1 secs

     total energy              =  -21688.81367515 Ry
     estimated scf accuracy    <       0.09804462 Ry

     iteration # 17     ecut=    50.00 Ry     beta= 0.01
     Davidson diagonalization with overlap
     ethr =  2.76E-05,  avg # of iterations =  1.0

     total cpu time spent up to now is      758.0 secs

     total energy              =  -21688.81467980 Ry
     estimated scf accuracy    <       0.09340518 Ry

     iteration # 18     ecut=    50.00 Ry     beta= 0.01
     Davidson diagonalization with overlap
     ethr =  2.76E-05,  avg # of iterations =  1.0

     total cpu time spent up to now is      796.0 secs

     total energy              =  -21688.81213035 Ry
     estimated scf accuracy    <       0.07053210 Ry

     iteration # 19     ecut=    50.00 Ry     beta= 0.01
     Davidson diagonalization with overlap
     ethr =  2.29E-05,  avg # of iterations =  1.6

     total cpu time spent up to now is      836.5 secs

     total energy              =  -21688.81193399 Ry
     estimated scf accuracy    <       0.07895918 Ry

     iteration # 20     ecut=    50.00 Ry     beta= 0.01
     Davidson diagonalization with overlap
     ethr =  2.29E-05,  avg # of iterations =  1.1

     total cpu time spent up to now is      875.0 secs

     total energy              =  -21688.80924404 Ry
     estimated scf accuracy    <       0.07999070 Ry

     iteration # 21     ecut=    50.00 Ry     beta= 0.01
     Davidson diagonalization with overlap
     ethr =  2.29E-05,  avg # of iterations =  1.6

     negative rho (up, down):  3.872E-04 0.000E+00

     total cpu time spent up to now is      915.3 secs

     total energy              =  -21688.81122089 Ry
     estimated scf accuracy    <       0.08373749 Ry

     iteration # 22     ecut=    50.00 Ry     beta= 0.01
     Davidson diagonalization with overlap
     ethr =  2.29E-05,  avg # of iterations =  1.0

     negative rho (up, down):  1.164E-03 0.000E+00

     total cpu time spent up to now is      953.4 secs

     total energy              =  -21688.81270473 Ry
     estimated scf accuracy    <       0.02747591 Ry

     iteration # 23     ecut=    50.00 Ry     beta= 0.01
     Davidson diagonalization with overlap
     c_bands:  1 eigenvalues not converged
     c_bands:  1 eigenvalues not converged
     ethr =  8.92E-06,  avg # of iterations =  4.2

     negative rho (up, down):  1.015E-03 0.000E+00

     total cpu time spent up to now is     1000.0 secs

     total energy              =  -21688.81368019 Ry
     estimated scf accuracy    <       0.01787015 Ry

     iteration # 24     ecut=    50.00 Ry     beta= 0.01
     Davidson diagonalization with overlap
     c_bands:  1 eigenvalues not converged
     ethr =  5.80E-06,  avg # of iterations =  2.7

     negative rho (up, down):  4.187E-04 0.000E+00

     total cpu time spent up to now is     1042.8 secs

     total energy              =  -21688.81161042 Ry
     estimated scf accuracy    <       0.01518841 Ry

     iteration # 25     ecut=    50.00 Ry     beta= 0.01
     Davidson diagonalization with overlap
     c_bands:  1 eigenvalues not converged
     c_bands:  2 eigenvalues not converged
     c_bands:  1 eigenvalues not converged
     c_bands:  2 eigenvalues not converged
     ethr =  4.93E-06,  avg # of iterations =  5.6

     negative rho (up, down):  1.811E-03 0.000E+00

     total cpu time spent up to now is     1091.7 secs

     total energy              =  -21688.81276992 Ry
     estimated scf accuracy    <       0.00912668 Ry

     iteration # 26     ecut=    50.00 Ry     beta= 0.01
     Davidson diagonalization with overlap
     c_bands:  1 eigenvalues not converged
     c_bands:  1 eigenvalues not converged
     c_bands:  1 eigenvalues not converged
     ethr =  2.96E-06,  avg # of iterations =  4.4

     negative rho (up, down):  1.796E-03 0.000E+00

     total cpu time spent up to now is     1138.8 secs

     total energy              =  -21688.81350838 Ry
     estimated scf accuracy    <       0.00690661 Ry

     iteration # 27     ecut=    50.00 Ry     beta= 0.01
     Davidson diagonalization with overlap
     ethr =  2.24E-06,  avg # of iterations =  1.5

     negative rho (up, down):  3.940E-03 0.000E+00

     total cpu time spent up to now is     1177.9 secs

     total energy              =  -21688.81473672 Ry
     estimated scf accuracy    <       0.00542179 Ry

     iteration # 28     ecut=    50.00 Ry     beta= 0.01
     Davidson diagonalization with overlap
     ethr =  1.76E-06,  avg # of iterations =  2.0

     negative rho (up, down):  3.132E-03 0.000E+00

     total cpu time spent up to now is     1222.5 secs

     total energy              =  -21688.81485353 Ry
     estimated scf accuracy    <       0.00407301 Ry

     iteration # 29     ecut=    50.00 Ry     beta= 0.01
     Davidson diagonalization with overlap
     ethr =  1.32E-06,  avg # of iterations =  1.1

     negative rho (up, down):  3.218E-03 0.000E+00

     total cpu time spent up to now is     1260.7 secs

     total energy              =  -21688.81530476 Ry
     estimated scf accuracy    <       0.00342551 Ry

     iteration # 30     ecut=    50.00 Ry     beta= 0.01
     Davidson diagonalization with overlap
     c_bands:  1 eigenvalues not converged
     ethr =  1.11E-06,  avg # of iterations =  1.8

     negative rho (up, down):  5.033E-03 0.000E+00

     total cpu time spent up to now is     1301.7 secs

     total energy              =  -21688.81586829 Ry
     estimated scf accuracy    <       0.00254023 Ry

     iteration # 31     ecut=    50.00 Ry     beta= 0.01
     Davidson diagonalization with overlap
     ethr =  8.25E-07,  avg # of iterations =  2.0

     negative rho (up, down):  4.839E-03 0.000E+00

     total cpu time spent up to now is     1344.6 secs

     total energy              =  -21688.81602292 Ry
     estimated scf accuracy    <       0.00203886 Ry

     iteration # 32     ecut=    50.00 Ry     beta= 0.01
     Davidson diagonalization with overlap
     ethr =  6.62E-07,  avg # of iterations =  1.0

     negative rho (up, down):  1.464E-03 0.000E+00

     total cpu time spent up to now is     1382.4 secs

     total energy              =  -21688.81628669 Ry
     estimated scf accuracy    <       0.00195035 Ry

     iteration # 33     ecut=    50.00 Ry     beta= 0.01
     Davidson diagonalization with overlap
     ethr =  6.33E-07,  avg # of iterations =  2.0

     negative rho (up, down):  2.291E-03 0.000E+00

     total cpu time spent up to now is     1435.1 secs

     total energy              =  -21688.81599992 Ry
     estimated scf accuracy    <       0.00220639 Ry

     iteration # 34     ecut=    50.00 Ry     beta= 0.01
     Davidson diagonalization with overlap
     ethr =  6.33E-07,  avg # of iterations =  2.0

     negative rho (up, down):  1.983E-03 0.000E+00

     total cpu time spent up to now is     1489.2 secs

     total energy              =  -21688.81648367 Ry
     estimated scf accuracy    <       0.00048325 Ry

     iteration # 35     ecut=    50.00 Ry     beta= 0.01
     Davidson diagonalization with overlap
     ethr =  1.57E-07,  avg # of iterations =  1.7

     negative rho (up, down):  1.848E-03 0.000E+00

     total cpu time spent up to now is     1531.3 secs

     total energy              =  -21688.81653121 Ry
     estimated scf accuracy    <       0.00043403 Ry

     iteration # 36     ecut=    50.00 Ry     beta= 0.01
     Davidson diagonalization with overlap
     ethr =  1.41E-07,  avg # of iterations =  1.0

     negative rho (up, down):  1.712E-03 0.000E+00

     total cpu time spent up to now is     1569.3 secs

     total energy              =  -21688.81660951 Ry
     estimated scf accuracy    <       0.00040652 Ry

     iteration # 37     ecut=    50.00 Ry     beta= 0.01
     Davidson diagonalization with overlap
     ethr =  1.32E-07,  avg # of iterations =  2.0

     negative rho (up, down):  1.394E-03 0.000E+00

     total cpu time spent up to now is     1615.7 secs

     total energy              =  -21688.81663961 Ry
     estimated scf accuracy    <       0.00034320 Ry

     iteration # 38     ecut=    50.00 Ry     beta= 0.01
     Davidson diagonalization with overlap
     ethr =  1.11E-07,  avg # of iterations =  2.0

     negative rho (up, down):  1.401E-03 0.000E+00

     total cpu time spent up to now is     1663.0 secs

     total energy              =  -21688.81672715 Ry
     estimated scf accuracy    <       0.00016613 Ry

     iteration # 39     ecut=    50.00 Ry     beta= 0.01
     Davidson diagonalization with overlap
     ethr =  5.39E-08,  avg # of iterations =  1.3

     negative rho (up, down):  1.531E-03 0.000E+00

     total cpu time spent up to now is     1701.7 secs

     total energy              =  -21688.81674872 Ry
     estimated scf accuracy    <       0.00013871 Ry

     iteration # 40     ecut=    50.00 Ry     beta= 0.01
     Davidson diagonalization with overlap
     ethr =  4.50E-08,  avg # of iterations =  2.1

     negative rho (up, down):  1.313E-03 0.000E+00

     total cpu time spent up to now is     1754.8 secs

     total energy              =  -21688.81678057 Ry
     estimated scf accuracy    <       0.00020206 Ry

     iteration # 41     ecut=    50.00 Ry     beta= 0.01
     Davidson diagonalization with overlap
     ethr =  4.50E-08,  avg # of iterations =  2.0

     negative rho (up, down):  1.365E-03 0.000E+00

     total cpu time spent up to now is     1809.2 secs

     total energy              =  -21688.81681306 Ry
     estimated scf accuracy    <       0.00008988 Ry

     iteration # 42     ecut=    50.00 Ry     beta= 0.01
     Davidson diagonalization with overlap
     ethr =  2.92E-08,  avg # of iterations =  1.9

     negative rho (up, down):  1.204E-03 0.000E+00

     total cpu time spent up to now is     1853.0 secs

     total energy              =  -21688.81686515 Ry
     estimated scf accuracy    <       0.00006775 Ry

     iteration # 43     ecut=    50.00 Ry     beta= 0.01
     Davidson diagonalization with overlap
     ethr =  2.20E-08,  avg # of iterations =  1.0

     negative rho (up, down):  1.135E-03 0.000E+00

     total cpu time spent up to now is     1890.9 secs

     total energy              =  -21688.81690837 Ry
     estimated scf accuracy    <       0.00003576 Ry

     iteration # 44     ecut=    50.00 Ry     beta= 0.01
     Davidson diagonalization with overlap
     ethr =  1.16E-08,  avg # of iterations =  1.7

     negative rho (up, down):  1.192E-03 0.000E+00

     total cpu time spent up to now is     1933.0 secs

     total energy              =  -21688.81692641 Ry
     estimated scf accuracy    <       0.00003282 Ry

     iteration # 45     ecut=    50.00 Ry     beta= 0.01
     Davidson diagonalization with overlap
     ethr =  1.07E-08,  avg # of iterations =  2.0

     negative rho (up, down):  1.087E-03 0.000E+00

     total cpu time spent up to now is     1977.7 secs

     total energy              =  -21688.81696921 Ry
     estimated scf accuracy    <       0.00003399 Ry

     iteration # 46     ecut=    50.00 Ry     beta= 0.01
     Davidson diagonalization with overlap
     ethr =  1.07E-08,  avg # of iterations =  2.0

     negative rho (up, down):  1.090E-03 0.000E+00

     total cpu time spent up to now is     2022.1 secs

     total energy              =  -21688.81700146 Ry
     estimated scf accuracy    <       0.00001573 Ry

     iteration # 47     ecut=    50.00 Ry     beta= 0.01
     Davidson diagonalization with overlap
     ethr =  5.11E-09,  avg # of iterations =  3.1

     negative rho (up, down):  1.097E-03 0.000E+00

     total cpu time spent up to now is     2066.6 secs

     total energy              =  -21688.81702473 Ry
     estimated scf accuracy    <       0.00001319 Ry

     iteration # 48     ecut=    50.00 Ry     beta= 0.01
     Davidson diagonalization with overlap
     ethr =  4.28E-09,  avg # of iterations =  2.3

     negative rho (up, down):  1.005E-03 0.000E+00

     total cpu time spent up to now is     2109.9 secs

     total energy              =  -21688.81706993 Ry
     estimated scf accuracy    <       0.00001010 Ry

     iteration # 49     ecut=    50.00 Ry     beta= 0.01
     Davidson diagonalization with overlap
     ethr =  3.28E-09,  avg # of iterations =  2.5

     negative rho (up, down):  1.029E-03 0.000E+00

     total cpu time spent up to now is     2164.4 secs

     total energy              =  -21688.81709707 Ry
     estimated scf accuracy    <       0.00001232 Ry

     iteration # 50     ecut=    50.00 Ry     beta= 0.01
     Davidson diagonalization with overlap
     ethr =  3.28E-09,  avg # of iterations =  1.0

     negative rho (up, down):  1.057E-03 0.000E+00

     total cpu time spent up to now is     2202.3 secs

     total energy              =  -21688.81712409 Ry
     estimated scf accuracy    <       0.00000970 Ry

     iteration # 51     ecut=    50.00 Ry     beta= 0.01
     Davidson diagonalization with overlap
     ethr =  3.15E-09,  avg # of iterations =  1.0

     negative rho (up, down):  1.071E-03 0.000E+00

     total cpu time spent up to now is     2240.2 secs

     total energy              =  -21688.81714861 Ry
     estimated scf accuracy    <       0.00000881 Ry

     iteration # 52     ecut=    50.00 Ry     beta= 0.01
     Davidson diagonalization with overlap
     ethr =  2.86E-09,  avg # of iterations =  1.0

     negative rho (up, down):  1.079E-03 0.000E+00

     total cpu time spent up to now is     2278.1 secs

     total energy              =  -21688.81717668 Ry
     estimated scf accuracy    <       0.00000804 Ry

     iteration # 53     ecut=    50.00 Ry     beta= 0.01
     Davidson diagonalization with overlap
     ethr =  2.61E-09,  avg # of iterations =  1.0

     negative rho (up, down):  1.111E-03 0.000E+00

     total cpu time spent up to now is     2316.0 secs

     total energy              =  -21688.81720167 Ry
     estimated scf accuracy    <       0.00000770 Ry

     iteration # 54     ecut=    50.00 Ry     beta= 0.01
     Davidson diagonalization with overlap
     ethr =  2.50E-09,  avg # of iterations =  1.0

     negative rho (up, down):  1.052E-03 0.000E+00

     total cpu time spent up to now is     2353.9 secs

     total energy              =  -21688.81724026 Ry
     estimated scf accuracy    <       0.00000587 Ry

     iteration # 55     ecut=    50.00 Ry     beta= 0.01
     Davidson diagonalization with overlap
     ethr =  1.91E-09,  avg # of iterations =  2.1

     negative rho (up, down):  1.079E-03 0.000E+00

     total cpu time spent up to now is     2409.4 secs

     total energy              =  -21688.81726058 Ry
     estimated scf accuracy    <       0.00001061 Ry

     iteration # 56     ecut=    50.00 Ry     beta= 0.01
     Davidson diagonalization with overlap
     ethr =  1.91E-09,  avg # of iterations =  1.0

     negative rho (up, down):  1.087E-03 0.000E+00

     total cpu time spent up to now is     2447.3 secs

     total energy              =  -21688.81728302 Ry
     estimated scf accuracy    <       0.00000550 Ry

     iteration # 57     ecut=    50.00 Ry     beta= 0.01
     Davidson diagonalization with overlap
     ethr =  1.79E-09,  avg # of iterations =  1.0

     negative rho (up, down):  1.100E-03 0.000E+00

     total cpu time spent up to now is     2485.2 secs

     total energy              =  -21688.81731084 Ry
     estimated scf accuracy    <       0.00000470 Ry

     iteration # 58     ecut=    50.00 Ry     beta= 0.01
     Davidson diagonalization with overlap
     ethr =  1.53E-09,  avg # of iterations =  1.0

     negative rho (up, down):  1.102E-03 0.000E+00

     total cpu time spent up to now is     2523.1 secs

     total energy              =  -21688.81733710 Ry
     estimated scf accuracy    <       0.00000530 Ry

     iteration # 59     ecut=    50.00 Ry     beta= 0.01
     Davidson diagonalization with overlap
     ethr =  1.53E-09,  avg # of iterations =  1.0

     negative rho (up, down):  1.096E-03 0.000E+00

     total cpu time spent up to now is     2561.1 secs

     total energy              =  -21688.81736474 Ry
     estimated scf accuracy    <       0.00000409 Ry

     iteration # 60     ecut=    50.00 Ry     beta= 0.01
     Davidson diagonalization with overlap
     ethr =  1.33E-09,  avg # of iterations =  1.0

     negative rho (up, down):  9.687E-04 0.000E+00

     total cpu time spent up to now is     2599.0 secs

     total energy              =  -21688.81740060 Ry
     estimated scf accuracy    <       0.00000367 Ry

     iteration # 61     ecut=    50.00 Ry     beta= 0.01
     Davidson diagonalization with overlap
     ethr =  1.19E-09,  avg # of iterations =  1.8

     negative rho (up, down):  1.561E-03 0.000E+00

     total cpu time spent up to now is     2641.7 secs

     End of self-consistent calculation

          k = 0.0000 0.0000 0.0000 ( 17807 PWs)   bands (ev):

    -7.1970  -5.8687  -5.8685  -4.5674  -3.4174  -0.3479  -0.3477   2.2099
     2.6773   4.3611   5.0682   5.0694   5.5865   7.4795   7.4810   7.6098
     8.0117   8.1269   8.1413   9.1394   9.1400   9.2275   9.3493   9.5829
    10.0318  10.0394  10.1372  10.3435  10.3444  10.4622  10.5294  10.5328
    10.6485  10.9870  11.0506  11.1206  11.1424  11.2020  11.2885  11.2900
    11.3313  11.3546  11.4562  11.5242  11.5342  11.6832  11.6963  11.7089
    11.7937  11.8597  11.8671  11.8801  11.9833  12.0120  12.0636  12.1283
    12.1304  12.2295  12.3143  12.3356  12.3758  12.4275  12.4692  12.5964
    12.6429  12.6433  12.7106  12.7830  12.8008  12.8248  12.8742  13.0165
    13.0675  13.1108  13.1338  13.1832  13.2079  13.2727  13.3428  13.4155
    13.4413  13.4939  13.5622  13.5655  13.6213  13.6622  13.6699  13.7814
    13.8088  13.8466  13.8766  13.9439  14.0197  14.0537  14.0891  14.2697
    14.2984  14.3535  14.3947  14.4175  14.5411  14.6772  14.7205  14.7452
    14.7717  14.7895  14.8039  14.8400  14.8688  14.8967  14.9546  14.9728
    15.0295  15.0876  15.0927  15.1587  15.1697  15.2464  15.3024  15.4198
    15.4634  15.4802  15.5878  15.5881  15.6173  15.7300  15.7670  15.7884
    15.8182  15.8378  15.8799  15.9717  16.0000  16.0617  16.0993  16.1382
    16.1856  16.2467  16.3018  16.3028  16.3901  16.5144  16.6474  16.6611
    17.0008  17.4924  17.5112  17.8802  17.9041  17.9221  18.1088  18.1960
    18.2194  18.3456  18.4210  18.6436  18.8509  18.9473  18.9739  19.2871
    19.2939  19.6258  20.0909  20.3763  21.0632  21.1572  21.1572  21.6685
    22.7024  23.1078  23.5066  24.1054  24.2662  24.3524  24.3948  24.4651
    24.4914  24.6665  25.0208  25.0744  25.5441  25.7668  26.0226  26.0922
    26.1600

          k = 0.0000 0.0589 0.0000 ( 17795 PWs)   bands (ev):

    -7.1434  -6.5328  -5.1775  -5.0919  -2.6895  -1.2771   0.5951   2.2508
     2.7642   4.4353   4.4842   5.3142   5.6664   6.7767   7.5437   8.0384
     8.1143   8.1564   8.1784   8.4711   9.2320   9.3387   9.6407   9.7284
     9.8068  10.1232  10.2673  10.3609  10.3654  10.4903  10.5312  10.5548
    10.6839  10.9267  11.0145  11.0952  11.1879  11.2182  11.2548  11.3509
    11.3601  11.4385  11.4640  11.5352  11.5771  11.6546  11.7198  11.7282
    11.8185  11.8191  11.8711  11.8862  11.9134  12.0454  12.0956  12.1096
    12.1494  12.2081  12.2736  12.3364  12.3485  12.4410  12.4974  12.5876
    12.6103  12.6556  12.6835  12.6844  12.8149  12.8677  12.9159  13.0231
    13.0472  13.1128  13.1290  13.1469  13.1762  13.2550  13.3369  13.3637
    13.4203  13.5057  13.5279  13.5677  13.5740  13.6732  13.7552  13.7693
    13.7994  13.7999  13.9024  13.9105  14.0495  14.0717  14.1656  14.2983
    14.3512  14.3607  14.3787  14.4712  14.5276  14.6505  14.6933  14.7133
    14.7374  14.7903  14.8314  14.8442  14.8485  14.8872  14.9746  14.9765
    14.9873  15.1278  15.1530  15.1635  15.2441  15.2660  15.3133  15.4093
    15.4593  15.4770  15.4804  15.5767  15.6455  15.6888  15.7584  15.7588
    15.8145  15.8308  15.8715  16.0134  16.0215  16.0466  16.0739  16.0921
    16.1851  16.2357  16.3017  16.3313  16.3880  16.4681  16.6402  16.6530
    16.9519  16.9837  17.2876  17.3644  17.5500  17.9878  18.0940  18.1497
    18.3961  18.4564  18.5730  18.6906  18.8280  19.1153  19.2059  19.6358
    19.6451  19.8042  20.1641  20.4704  20.7173  21.1234  21.5138  21.7348
    22.7382  23.1352  23.5330  23.8609  23.9736  24.1147  24.2495  24.5972
    24.6460  24.6693  25.1240  25.2337  25.5475  25.7596  25.8031  26.0253
    26.1673

          k = 0.0000 0.1179 0.0000 ( 17803 PWs)   bands (ev):

    -7.0743  -6.9870  -5.9962  -4.2138  -2.1791  -1.5493   1.5385   2.3722
     3.0351   3.9178   4.5858   4.6779   6.0594   6.2686   7.3249   7.7728
     8.1179   8.2611   8.3089   8.6199   9.2017   9.3925   9.6011   9.7626
    10.0905  10.1766  10.4021  10.4201  10.4722  10.5528  10.5716  10.5913
    10.7848  10.7949  11.0446  11.0612  11.2213  11.2422  11.2889  11.3978
    11.4252  11.4516  11.4922  11.5113  11.5818  11.6242  11.6960  11.7178
    11.8183  11.8552  11.8896  11.9003  11.9625  12.0642  12.0967  12.1158
    12.1490  12.2031  12.2197  12.3557  12.3986  12.4732  12.5162  12.5470
    12.5648  12.6279  12.6822  12.6846  12.6963  12.9184  12.9566  12.9956
    12.9973  13.0476  13.0645  13.1206  13.1442  13.2263  13.2893  13.2996
    13.4215  13.5018  13.5336  13.5569  13.5692  13.6626  13.7289  13.7802
    13.8290  13.8755  13.8967  13.9152  14.1146  14.1233  14.1668  14.2815
    14.3349  14.3710  14.4119  14.4843  14.5475  14.5570  14.5830  14.6256
    14.7241  14.7282  14.8405  14.8513  14.8879  14.9153  14.9319  14.9983
    15.0088  15.1192  15.1595  15.2351  15.2749  15.2824  15.3328  15.3891
    15.4412  15.4742  15.5265  15.6162  15.6768  15.6955  15.7024  15.7238
    15.7616  15.8276  15.8361  15.8897  15.9587  15.9858  16.0496  16.0618
    16.2133  16.2773  16.2869  16.3507  16.4412  16.4911  16.5236  16.6250
    16.6501  16.6809  16.8433  16.8996  16.9092  17.4611  17.8607  17.8841
    18.3266  18.7058  18.8141  18.9191  19.2416  19.2744  19.7165  19.9616
    20.1357  20.3637  20.3705  20.7409  20.7458  21.3000  21.6880  21.8964
    22.8305  23.2185  23.4163  23.6121  23.6152  24.1440  24.1898  24.2347
    24.5354  24.6784  24.8491  25.4844  25.5475  25.7261  25.7620  25.9486
    26.1341

          k = 0.0000 0.1768 0.0000 ( 17795 PWs)   bands (ev):

    -7.4838  -6.8460  -6.5644  -3.2457  -3.0402  -0.4420   2.4695   2.5727
     3.3718   3.4935   3.5796   5.1670   5.3675   6.8631   6.9484   7.0796
     8.2455   8.4613   8.5250   8.9643   9.1545   9.4278   9.4999   9.8543
    10.1040  10.4329  10.4579  10.4988  10.5508  10.5772  10.6335  10.6585
    10.7156  10.9469  10.9977  11.0800  11.1105  11.2083  11.2596  11.3278
    11.4348  11.4473  11.4609  11.5151  11.5654  11.6152  11.7531  11.7909
    11.8603  11.9335  11.9472  11.9510  11.9670  12.0440  12.1027  12.1401
    12.1996  12.2944  12.3246  12.3604  12.4182  12.4396  12.4579  12.5333
    12.5589  12.6222  12.6578  12.7290  12.7437  12.8715  12.8898  12.9283
    12.9336  12.9632  12.9943  13.0630  13.1551  13.2406  13.2455  13.2692
    13.4213  13.5183  13.5552  13.5668  13.5912  13.6117  13.7571  13.8324
    13.8463  13.8614  13.9639  13.9947  14.0659  14.1553  14.1690  14.2153
    14.3013  14.3143  14.3739  14.3911  14.4497  14.5311  14.5371  14.5785
    14.6374  14.7128  14.7512  14.8528  14.8749  14.9226  14.9732  15.0287
    15.0676  15.0960  15.1255  15.1664  15.1795  15.2190  15.2821  15.3437
    15.3748  15.4042  15.4744  15.5067  15.5357  15.6210  15.6823  15.6916
    15.7150  15.7628  15.7927  15.8323  15.9320  15.9848  16.0187  16.0967
    16.1622  16.2079  16.2646  16.3490  16.3771  16.4580  16.4659  16.5232
    16.5902  16.6268  16.6289  16.7295  16.8202  16.8308  17.5623  17.6391
    18.0760  18.4157  18.7147  19.0026  19.8352  19.8748  19.9930  20.6270
    20.6374  20.7625  20.8669  21.0654  21.1665  21.5938  21.8428  22.0714
    22.9276  22.9534  23.3645  23.6216  23.7449  24.0615  24.1016  24.1929
    24.3098  24.5850  24.6988  25.1034  25.4015  25.4253  25.5119  25.5494
    25.6377

          k = 0.0000 0.2357 0.0000 ( 17822 PWs)   bands (ev):

    -7.7524  -7.2778  -6.2914  -3.8468  -2.2002   0.4834   2.4404   2.8437
     2.8510   3.3754   4.0625   4.7253   6.0472   6.4132   6.4300   7.4319
     8.3910   8.7444   8.8174   9.1217   9.1521   9.2948   9.5112   9.9120
    10.2485  10.2914  10.4585  10.4780  10.5408  10.5981  10.6598  10.6780
    10.7293  10.8345  10.8822  11.0343  11.1487  11.1918  11.2016  11.2986
    11.4745  11.4900  11.5672  11.5798  11.6129  11.6656  11.7144  11.8586
    11.8762  11.9308  11.9378  12.0313  12.0409  12.1355  12.1652  12.2389
    12.2495  12.2794  12.2877  12.3443  12.3688  12.4547  12.4656  12.5112
    12.6312  12.6376  12.7096  12.7236  12.7535  12.7829  12.7863  12.8096
    12.9581  12.9593  13.0252  13.0480  13.0999  13.2135  13.2546  13.3020
    13.3941  13.3952  13.5230  13.6079  13.6326  13.6662  13.8261  13.8381
    13.8622  13.9155  13.9540  14.0059  14.0927  14.1113  14.1244  14.1437
    14.2112  14.2325  14.3041  14.3636  14.3863  14.4194  14.5111  14.5177
    14.5663  14.6328  14.7709  14.7912  14.8289  14.8496  14.9511  14.9772
    14.9815  15.0131  15.0553  15.0999  15.1159  15.1841  15.1872  15.2143
    15.2652  15.3311  15.3882  15.3953  15.4313  15.5596  15.5855  15.6000
    15.6711  15.6759  15.7433  15.7464  15.8407  15.8557  15.8619  15.9116
    16.0193  16.0479  16.1535  16.1903  16.2884  16.3446  16.4479  16.4897
    16.4981  16.5876  16.5933  16.6038  17.1775  17.2944  17.3128  17.5493
    17.5561  18.1813  19.2008  19.2523  20.0681  20.4420  20.6158  20.6786
    20.8350  20.9232  21.2646  21.7019  21.9157  22.0042  22.1954  22.2531
    22.7311  22.9423  23.5715  23.5975  23.8199  23.9409  23.9501  24.2441
    24.3525  24.5952  24.7062  24.7206  24.7809  24.9001  24.9426  25.3260
    25.4360

          k = 0.0000 0.2946 0.0000 ( 17818 PWs)   bands (ev):

    -7.8720  -7.6376  -5.8200  -4.5864  -1.0908   1.2038   1.2536   2.3246
     3.2068   4.1467   4.2423   4.6324   5.7852   5.7906   7.3566   7.9439
     8.4733   9.0677   9.0917   9.1627   9.2185   9.2537   9.3748   9.9138
    10.0162  10.0867  10.1118  10.3780  10.3905  10.6095  10.6452  10.7408
    10.7904  10.8316  10.9247  10.9907  11.0730  11.2218  11.2680  11.3036
    11.4184  11.5561  11.6889  11.7037  11.7158  11.7254  11.7623  11.8275
    11.8539  11.9325  11.9394  12.0596  12.0730  12.1015  12.1745  12.1905
    12.2428  12.2537  12.3061  12.3178  12.3885  12.4886  12.4919  12.5495
    12.6051  12.6168  12.6635  12.7094  12.7255  12.7567  12.8223  12.8742
    12.9163  12.9686  12.9725  13.0860  13.1163  13.1583  13.2089  13.3647
    13.3874  13.4291  13.4909  13.5624  13.6285  13.7049  13.8233  13.8365
    13.9048  13.9547  13.9864  14.0023  14.0397  14.0629  14.0904  14.1115
    14.1487  14.1590  14.2057  14.2635  14.2716  14.3964  14.4056  14.4781
    14.5042  14.6040  14.6257  14.6528  14.6575  14.7416  14.7836  14.8031
    14.9092  14.9387  14.9952  15.0270  15.0371  15.1735  15.2212  15.2237
    15.2453  15.3069  15.3481  15.3756  15.3942  15.4277  15.4480  15.4705
    15.5615  15.6464  15.6473  15.6717  15.7200  15.8267  15.8288  15.9772
    15.9878  16.0076  16.1009  16.2332  16.2757  16.3353  16.4106  16.4739
    16.5315  16.5651  16.5826  16.5880  16.9309  17.0424  17.3970  17.7284
    17.8103  18.1003  19.5454  19.9346  20.2282  20.3042  20.5617  21.0550
    21.1630  21.1742  21.6933  22.0283  22.2681  22.4560  22.5442  22.5626
    22.8021  23.1654  23.4660  23.7336  23.7728  23.7886  23.9418  24.0154
    24.1711  24.2780  24.4667  24.5250  24.7518  24.7839  24.9430  24.9681
    25.0980

          k = 0.0000-0.3536 0.0000 ( 17844 PWs)   bands (ev):

    -7.8356  -7.8356  -5.2476  -5.2476   0.0670   0.0670   1.7926   1.7926
     3.6393   3.6393   5.0538   5.0538   5.1964   5.1964   8.3319   8.3319
     8.8413   8.8413   9.0996   9.0996   9.2638   9.2638   9.5104   9.5104
     9.6390   9.6390  10.2664  10.2664  10.4873  10.4873  10.7187  10.7187
    10.8554  10.8554  10.9992  10.9992  11.0562  11.0562  11.2772  11.2772
    11.5807  11.5807  11.6527  11.6527  11.8108  11.8108  11.8617  11.8617
    11.9170  11.9170  11.9443  11.9443  12.0434  12.0434  12.1106  12.1106
    12.2569  12.2569  12.3380  12.3380  12.4247  12.4247  12.5313  12.5313
    12.5950  12.5950  12.6431  12.6431  12.7953  12.7953  12.8408  12.8408
    12.9321  12.9321  13.0456  13.0456  13.1174  13.1174  13.3583  13.3583
    13.3876  13.3876  13.4878  13.4878  13.7706  13.7706  13.8576  13.8576
    13.8919  13.8919  13.9636  13.9636  14.0013  14.0013  14.0908  14.0908
    14.1147  14.1147  14.1452  14.1452  14.2845  14.2845  14.4065  14.4065
    14.5258  14.5258  14.6095  14.6095  14.6863  14.6863  14.7359  14.7359
    14.8009  14.8009  15.0415  15.0415  15.0922  15.0922  15.2554  15.2554
    15.2654  15.2654  15.3524  15.3524  15.4116  15.4116  15.4363  15.4363
    15.5373  15.5373  15.6579  15.6579  15.7588  15.7588  15.9159  15.9159
    16.0382  16.0382  16.1388  16.1388  16.2745  16.2745  16.4899  16.4899
    16.5518  16.5518  16.6084  16.6084  16.8123  16.8123  17.5757  17.5757
    18.0494  18.0494  19.8800  19.8800  20.3704  20.3704  20.8016  20.8016
    21.3243  21.3243  21.9589  21.9589  22.4704  22.4704  22.7900  22.7900
    23.1833  23.1833  23.3293  23.3293  23.7862  23.7862  23.9898  23.9898
    24.2308  24.2308  24.4834  24.4834  24.6017  24.6017  24.7213  24.7214
    25.0745

          k = 0.1250 0.0000 0.0000 ( 17777 PWs)   bands (ev):

    -7.1983  -5.8641  -5.8638  -4.5646  -3.4203  -0.3492  -0.3490   2.1975
     2.7290   4.4829   5.0980   5.0993   5.6013   7.4828   7.4842   7.6174
     8.1229   8.1470   8.3183   9.1450   9.1457   9.3407   9.3453   9.6158
    10.0473  10.0537  10.1423  10.3300  10.3305  10.3886  10.5266  10.5284
    10.5607  10.9903  11.0624  11.1019  11.1899  11.2195  11.2228  11.3660
    11.3675  11.4891  11.5014  11.5301  11.6112  11.6274  11.6748  11.7186
    11.7514  11.8030  11.8186  11.8526  11.9647  11.9917  12.0393  12.1285
    12.1574  12.2570  12.3698  12.4112  12.4400  12.4764  12.5721  12.6503
    12.7269  12.7353  12.7519  12.9375  12.9397  12.9875  13.0221  13.0659
    13.1271  13.1999  13.2171  13.2325  13.2793  13.3524  13.4209  13.4309
    13.4904  13.4910  13.5421  13.6039  13.6421  13.6618  13.6745  13.7303
    13.7897  13.8111  13.8308  13.8839  13.9663  14.0500  14.0708  14.1403
    14.2086  14.2960  14.3727  14.4610  14.5150  14.5269  14.5533  14.6070
    14.6190  14.6937  14.7145  14.8372  14.8967  14.9096  14.9190  14.9725
    15.0352  15.0539  15.0954  15.1280  15.1572  15.2472  15.3169  15.3309
    15.3436  15.4811  15.5336  15.5817  15.6211  15.6404  15.6538  15.7205
    15.8309  15.8330  15.8530  15.9479  15.9948  16.0201  16.0536  16.0995
    16.1552  16.1840  16.2034  16.2692  16.3240  16.4092  16.4865  16.4892
    16.7911  17.0974  17.5907  17.5951  17.8994  17.9291  18.2361  18.3261
    18.4128  18.5526  18.6080  18.7321  18.7730  19.1355  19.3144  19.3824
    19.4541  19.5730  19.6026  19.6795  20.8968  20.9024  21.1455  21.5497
    22.0830  22.4441  23.5145  23.7366  23.9739  24.0044  24.0658  24.2172
    24.2554  24.4434  24.5390  25.0867  25.1083  25.2956  25.3002  25.5792
    25.9061

          k = 0.1250 0.0589 0.0000 ( 17791 PWs)   bands (ev):

    -7.1446  -6.5289  -5.1762  -5.0865  -2.6903  -1.2786   0.5940   2.2375
     2.8183   4.5150   4.5544   5.3306   5.6932   6.7802   7.5400   8.1129
     8.1656   8.1889   8.3397   8.5220   9.3011   9.3842   9.6568   9.6881
     9.8260  10.1223  10.2724  10.3433  10.3563  10.4082  10.4949  10.5815
    10.5940  10.9881  11.0294  11.1631  11.1956  11.2018  11.2710  11.3389
    11.3885  11.4733  11.5239  11.5881  11.6221  11.6533  11.6666  11.7272
    11.7465  11.7847  11.8638  11.8865  11.9886  11.9923  12.0360  12.1226
    12.2038  12.2525  12.2964  12.4100  12.4105  12.4789  12.5552  12.6249
    12.6848  12.7401  12.7595  12.8966  12.9186  12.9646  13.0169  13.0598
    13.1413  13.1630  13.1857  13.2477  13.2689  13.3376  13.3863  13.4596
    13.4688  13.4934  13.5147  13.5822  13.6221  13.6938  13.7010  13.7065
    13.8152  13.8234  13.8384  13.9111  13.9345  14.0123  14.1264  14.2005
    14.2567  14.2862  14.3573  14.4375  14.5075  14.5172  14.5415  14.5994
    14.6262  14.6382  14.7250  14.8075  14.8394  14.9268  14.9581  14.9860
    15.0617  15.1073  15.1077  15.1518  15.1715  15.2581  15.2825  15.3729
    15.3802  15.4432  15.5206  15.5732  15.6258  15.6269  15.6553  15.7347
    15.7632  15.8299  15.8491  15.9392  15.9452  15.9808  16.0511  16.0670
    16.1283  16.1923  16.2086  16.2835  16.3271  16.4015  16.4552  16.4783
    16.8942  17.0214  17.1210  17.2897  17.5850  17.7218  18.1238  18.3514
    18.5916  18.6684  18.7778  18.8488  18.9699  19.1849  19.2278  19.4186
    19.4253  19.6703  19.9035  20.0345  20.8362  21.0810  21.1866  21.5837
    22.1336  22.5139  23.4587  23.5430  23.6583  23.7417  23.8921  24.0696
    24.1817  24.4998  24.5780  24.8849  25.2535  25.5596  25.6758  25.7710
    25.9039

          k = 0.1250 0.1179 0.0000 ( 17815 PWs)   bands (ev):

    -7.0711  -6.9883  -5.9954  -4.2074  -2.1809  -1.5477   1.5372   2.3572
     3.0967   3.9494   4.5998   4.7920   6.0353   6.3196   7.3107   7.8403
     8.2880   8.3147   8.4197   8.6331   9.2430   9.4665   9.6228   9.7375
    10.0933  10.0963  10.3767  10.3938  10.4596  10.4711  10.5103  10.6480
    10.6887  10.9864  11.0736  11.1793  11.1815  11.2514  11.2916  11.3378
    11.3803  11.4737  11.5578  11.5641  11.6049  11.6338  11.7352  11.7571
    11.7765  11.8617  11.8974  11.9546  11.9957  12.0550  12.0732  12.1275
    12.1623  12.2626  12.2741  12.3669  12.4010  12.4939  12.5079  12.5911
    12.6242  12.6762  12.7553  12.8403  12.8492  12.9407  13.0072  13.0124
    13.0848  13.1412  13.1433  13.2168  13.2830  13.3139  13.3714  13.3921
    13.4574  13.4673  13.4956  13.5542  13.6216  13.6953  13.7144  13.7535
    13.8330  13.8372  13.8940  13.9164  13.9758  14.0116  14.1085  14.2017
    14.2562  14.2788  14.3226  14.4084  14.4511  14.4916  14.5250  14.5592
    14.5712  14.6610  14.7205  14.7699  14.8172  14.9400  14.9457  15.0012
    15.0284  15.0964  15.1022  15.1734  15.1986  15.2815  15.3591  15.3744
    15.3895  15.4772  15.5261  15.5771  15.5972  15.6257  15.6638  15.7139
    15.7729  15.7733  15.8413  15.8703  15.9032  15.9248  15.9979  16.0118
    16.1157  16.1620  16.2159  16.3573  16.3629  16.4002  16.4498  16.4975
    16.5845  16.7495  16.9012  16.9620  17.0841  17.2782  17.8981  17.9185
    18.4284  18.7662  18.9576  19.0176  19.3245  19.3515  19.4568  19.5499
    19.8586  19.9218  20.3607  20.5590  21.1120  21.2014  21.3057  21.6750
    22.2626  22.7144  22.9860  23.2342  23.4492  23.6262  23.6373  23.7592
    23.9418  24.0801  24.8174  24.9782  25.4369  25.4528  25.7085  25.8698
    26.0911

          k = 0.1250 0.1768 0.0000 ( 17796 PWs)   bands (ev):

    -7.4811  -6.8464  -6.5645  -3.2382  -3.0420  -0.4362   2.4661   2.5561
     3.4054   3.5559   3.6112   5.2571   5.3569   6.8924   6.9359   7.1774
     8.4553   8.5262   8.5838   8.9761   9.1907   9.4517   9.5503   9.7981
    10.1376  10.3075  10.4033  10.4761  10.5125  10.5171  10.6061  10.7529
    10.7860  11.0309  11.0827  11.1236  11.1314  11.2106  11.2800  11.3075
    11.3505  11.4341  11.5527  11.5872  11.6178  11.6716  11.7498  11.8654
    11.8720  11.9243  11.9583  12.0057  12.0508  12.0715  12.1021  12.1672
    12.2058  12.2507  12.3031  12.3673  12.3812  12.4606  12.5257  12.5649
    12.6002  12.6420  12.7030  12.7837  12.7951  12.8880  12.9694  12.9733
    13.0291  13.1065  13.1275  13.1806  13.2117  13.2512  13.3030  13.3639
    13.4238  13.4381  13.5306  13.5648  13.5969  13.6743  13.7465  13.7765
    13.8300  13.8701  13.9066  13.9526  13.9742  14.0138  14.1210  14.1585
    14.1885  14.2328  14.3039  14.3422  14.3867  14.4203  14.4602  14.5493
    14.5792  14.6722  14.7266  14.7269  14.8195  14.8697  14.8772  14.9144
    14.9816  15.0160  15.0943  15.1365  15.2080  15.2180  15.2824  15.3046
    15.3775  15.4135  15.4399  15.4686  15.5357  15.5892  15.6961  15.7043
    15.7513  15.7578  15.7891  15.8445  15.8989  15.9206  15.9888  16.0364
    16.0499  16.2074  16.2375  16.2827  16.3321  16.3724  16.3837  16.5032
    16.5062  16.6562  16.6849  16.7020  16.7974  17.2547  17.5365  17.6750
    18.0497  18.4384  18.5798  19.2503  19.5957  19.7640  19.8470  20.0290
    20.1119  20.3265  20.9667  21.1944  21.3200  21.4892  21.5086  21.8156
    22.4167  22.5660  22.9816  23.0060  23.1387  23.2721  23.7358  23.7440
    23.8055  24.0902  24.7757  24.9350  25.0855  25.2672  25.7004  25.7033
    26.0329

          k = 0.1250 0.2357 0.0000 ( 17785 PWs)   bands (ev):

    -7.7501  -7.2769  -6.2927  -3.8486  -2.1915   0.4956   2.4551   2.8344
     2.8649   3.3833   4.1620   4.7135   6.0945   6.4334   6.5150   7.4758
     8.6059   8.8190   8.8473   9.1547   9.1659   9.3200   9.4867   9.9237
    10.2576  10.2754  10.3278  10.4988  10.5545  10.5546  10.6560  10.6999
    10.8376  10.8726  10.9658  11.0391  11.1811  11.2165  11.3113  11.3689
    11.3987  11.4882  11.5609  11.6319  11.6546  11.7337  11.7383  11.8869
    11.9299  12.0217  12.0255  12.0602  12.0731  12.1296  12.1595  12.1989
    12.2188  12.2630  12.3336  12.3629  12.4329  12.4359  12.5009  12.5825
    12.5848  12.6402  12.6977  12.7216  12.7724  12.8475  12.9227  12.9708
    12.9814  13.0249  13.0591  13.0877  13.1607  13.2186  13.3262  13.3387
    13.3987  13.4258  13.4901  13.5173  13.5832  13.6558  13.7712  13.7982
    13.8134  13.8612  13.8904  13.9446  13.9454  14.0112  14.0723  14.0809
    14.1789  14.2150  14.2188  14.2829  14.3478  14.3911  14.4539  14.4852
    14.5906  14.6031  14.6685  14.6758  14.7280  14.7579  14.8321  14.8587
    14.9606  14.9738  14.9749  15.0397  15.0451  15.1390  15.2072  15.2481
    15.2728  15.3582  15.4067  15.4148  15.4810  15.5155  15.5873  15.6227
    15.6313  15.6896  15.7179  15.7990  15.8156  15.8619  15.9178  15.9249
    15.9948  16.0698  16.1514  16.1811  16.2571  16.3324  16.3656  16.4072
    16.5242  16.5273  16.5546  16.6488  17.2091  17.2347  17.4091  17.7457
    17.9903  18.1277  18.3891  19.5299  19.6937  19.8934  20.2320  20.4475
    20.6569  20.8727  21.0003  21.2678  21.7152  21.9217  22.0139  22.1551
    22.3916  22.5396  22.6135  23.0618  23.2105  23.2813  23.7059  23.8080
    23.9384  24.0692  24.6436  24.7054  24.8261  25.0065  25.2750  25.7680
    25.8040

          k = 0.1250 0.2946 0.0000 ( 17801 PWs)   bands (ev):

    -7.8702  -7.6364  -5.8214  -4.5881  -1.0807   1.2195   1.2697   2.3493
     3.1903   4.1327   4.2441   4.7461   5.7836   5.8978   7.3877   8.0009
     8.6551   9.0952   9.1721   9.1873   9.2234   9.2655   9.3598   9.9558
    10.0188  10.1109  10.1126  10.3546  10.3780  10.6360  10.6962  10.7250
    10.7973  10.9036  10.9242  11.0228  11.1764  11.2298  11.3220  11.3909
    11.4647  11.5597  11.6341  11.6916  11.7695  11.7850  11.7889  11.8811
    11.9141  11.9359  12.0575  12.0601  12.0991  12.1049  12.2004  12.2185
    12.2652  12.3042  12.3513  12.3844  12.4488  12.4789  12.5054  12.5569
    12.5850  12.6706  12.6893  12.7472  12.7782  12.7925  12.8848  12.9078
    12.9472  12.9802  13.0235  13.0439  13.0859  13.2039  13.2407  13.3253
    13.3434  13.4449  13.5149  13.5352  13.5805  13.6092  13.7168  13.7857
    13.8032  13.8403  13.8918  13.9004  13.9477  13.9728  14.0359  14.0546
    14.0638  14.0829  14.1198  14.2480  14.2535  14.3304  14.3443  14.4463
    14.5213  14.5244  14.6070  14.6461  14.6528  14.7796  14.7830  14.8035
    14.8448  14.8735  14.9811  15.0108  15.0291  15.0375  15.0644  15.1360
    15.2202  15.2488  15.3225  15.3612  15.4178  15.4521  15.4539  15.4960
    15.5458  15.5973  15.6197  15.7483  15.8111  15.9080  15.9155  16.0126
    16.0213  16.0504  16.1458  16.2067  16.2690  16.3081  16.3687  16.3922
    16.4717  16.4838  16.5122  16.7247  17.0948  17.2165  17.4549  17.4987
    17.9860  18.1399  18.9802  19.5987  19.8506  20.1629  20.5189  20.6549
    20.6827  20.8726  21.4746  21.6387  21.8599  21.9649  22.1440  22.2649
    22.5876  22.5952  22.9331  23.1059  23.1927  23.4319  23.8318  23.8580
    24.0248  24.0653  24.4462  24.4947  24.6485  24.6663  24.9219  25.3459
    25.5850

          k = 0.1250-0.3536 0.0000 ( 17808 PWs)   bands (ev):

    -7.8342  -7.8341  -5.2492  -5.2492   0.0787   0.0787   1.8153   1.8153
     3.6239   3.6239   5.0514   5.0514   5.3141   5.3141   8.4284   8.4284
     8.8265   8.8265   9.1378   9.1378   9.3071   9.3071   9.5832   9.5832
     9.6414   9.6414  10.2532  10.2532  10.5220  10.5220  10.7457  10.7457
    10.8464  10.8464  11.0011  11.0011  11.1514  11.1514  11.3596  11.3596
    11.5839  11.5839  11.6897  11.6897  11.8194  11.8194  11.8802  11.8803
    11.8877  11.8877  12.0303  12.0303  12.0967  12.0967  12.1976  12.1976
    12.3031  12.3031  12.3481  12.3481  12.4778  12.4778  12.5609  12.5609
    12.6083  12.6083  12.7208  12.7208  12.7885  12.7885  12.8360  12.8360
    12.9809  12.9809  13.0623  13.0623  13.1112  13.1112  13.2373  13.2373
    13.3927  13.3927  13.4705  13.4705  13.6859  13.6859  13.7480  13.7480
    13.8195  13.8195  13.8781  13.8781  13.9402  13.9402  13.9678  13.9678
    14.0477  14.0477  14.1097  14.1097  14.1692  14.1692  14.4362  14.4362
    14.5705  14.5705  14.6055  14.6055  14.6907  14.6907  14.7593  14.7593
    14.8258  14.8258  14.9463  14.9463  15.0585  15.0585  15.0903  15.0903
    15.1566  15.1566  15.2865  15.2865  15.3838  15.3838  15.4805  15.4805
    15.5856  15.5856  15.6647  15.6647  15.8716  15.8716  16.0104  16.0104
    16.0652  16.0652  16.1570  16.1570  16.2761  16.2761  16.3755  16.3755
    16.4848  16.4848  16.6542  16.6542  17.0324  17.0324  17.4895  17.4895
    18.0508  18.0508  19.4411  19.4411  20.1950  20.1950  20.4352  20.4352
    21.0845  21.0845  21.3439  21.3439  22.1836  22.1837  22.4153  22.4153
    22.5721  22.5721  22.7944  22.7944  23.5816  23.5816  23.9091  23.9091
    24.0369  24.0369  24.3036  24.3036  24.6499  24.6499  24.9784  24.9784
    25.5667

          k = 0.1250-0.2946 0.0000 ( 17801 PWs)   bands (ev):

    -7.8702  -7.6364  -5.8214  -4.5881  -1.0807   1.2195   1.2697   2.3493
     3.1903   4.1327   4.2441   4.7461   5.7836   5.8978   7.3877   8.0009
     8.6551   9.0952   9.1721   9.1873   9.2234   9.2655   9.3598   9.9558
    10.0188  10.1109  10.1126  10.3546  10.3780  10.6360  10.6962  10.7250
    10.7973  10.9036  10.9242  11.0228  11.1764  11.2298  11.3220  11.3909
    11.4647  11.5597  11.6341  11.6916  11.7695  11.7850  11.7889  11.8811
    11.9141  11.9359  12.0575  12.0601  12.0991  12.1049  12.2004  12.2185
    12.2652  12.3042  12.3513  12.3844  12.4488  12.4789  12.5054  12.5569
    12.5850  12.6706  12.6893  12.7472  12.7782  12.7925  12.8848  12.9078
    12.9472  12.9802  13.0235  13.0439  13.0859  13.2039  13.2407  13.3253
    13.3434  13.4449  13.5149  13.5352  13.5805  13.6092  13.7168  13.7857
    13.8032  13.8403  13.8918  13.9004  13.9477  13.9728  14.0359  14.0546
    14.0638  14.0829  14.1198  14.2480  14.2535  14.3304  14.3443  14.4463
    14.5213  14.5244  14.6070  14.6461  14.6528  14.7796  14.7830  14.8035
    14.8448  14.8735  14.9811  15.0108  15.0291  15.0375  15.0644  15.1360
    15.2202  15.2488  15.3225  15.3612  15.4178  15.4521  15.4539  15.4960
    15.5458  15.5973  15.6197  15.7483  15.8111  15.9080  15.9155  16.0126
    16.0213  16.0504  16.1458  16.2067  16.2690  16.3081  16.3687  16.3922
    16.4717  16.4838  16.5122  16.7247  17.0948  17.2165  17.4549  17.4987
    17.9860  18.1399  18.9802  19.5987  19.8506  20.1629  20.5189  20.6549
    20.6827  20.8726  21.4746  21.6387  21.8599  21.9649  22.1440  22.2649
    22.5876  22.5952  22.9331  23.1059  23.1927  23.4319  23.8318  23.8580
    24.0248  24.0653  24.4462  24.4947  24.6485  24.6663  24.9219  25.3459
    25.5850

          k = 0.1250-0.2357 0.0000 ( 17785 PWs)   bands (ev):

    -7.7501  -7.2769  -6.2927  -3.8486  -2.1915   0.4956   2.4551   2.8344
     2.8649   3.3833   4.1620   4.7135   6.0945   6.4334   6.5150   7.4758
     8.6059   8.8190   8.8473   9.1547   9.1659   9.3200   9.4867   9.9237
    10.2576  10.2754  10.3278  10.4988  10.5545  10.5546  10.6560  10.6999
    10.8376  10.8726  10.9658  11.0391  11.1811  11.2165  11.3113  11.3689
    11.3987  11.4882  11.5609  11.6319  11.6546  11.7337  11.7383  11.8869
    11.9299  12.0217  12.0255  12.0602  12.0731  12.1296  12.1595  12.1989
    12.2188  12.2630  12.3336  12.3629  12.4329  12.4359  12.5009  12.5825
    12.5848  12.6402  12.6977  12.7216  12.7724  12.8475  12.9227  12.9708
    12.9814  13.0249  13.0591  13.0877  13.1607  13.2186  13.3262  13.3387
    13.3987  13.4258  13.4901  13.5173  13.5832  13.6558  13.7712  13.7982
    13.8134  13.8612  13.8904  13.9446  13.9454  14.0112  14.0723  14.0809
    14.1789  14.2150  14.2188  14.2829  14.3478  14.3911  14.4539  14.4852
    14.5906  14.6031  14.6685  14.6758  14.7280  14.7579  14.8321  14.8587
    14.9606  14.9738  14.9749  15.0397  15.0451  15.1390  15.2072  15.2481
    15.2728  15.3582  15.4067  15.4148  15.4810  15.5155  15.5873  15.6227
    15.6313  15.6896  15.7179  15.7990  15.8156  15.8619  15.9178  15.9249
    15.9948  16.0698  16.1514  16.1811  16.2571  16.3324  16.3656  16.4072
    16.5242  16.5273  16.5546  16.6488  17.2091  17.2347  17.4091  17.7457
    17.9903  18.1277  18.3891  19.5299  19.6937  19.8934  20.2320  20.4475
    20.6569  20.8727  21.0003  21.2678  21.7152  21.9217  22.0139  22.1551
    22.3916  22.5396  22.6135  23.0618  23.2105  23.2813  23.7059  23.8080
    23.9384  24.0692  24.6436  24.7054  24.8261  25.0065  25.2750  25.7680
    25.8041

          k = 0.1250-0.1768 0.0000 ( 17796 PWs)   bands (ev):

    -7.4811  -6.8464  -6.5645  -3.2382  -3.0420  -0.4362   2.4661   2.5561
     3.4054   3.5559   3.6112   5.2571   5.3569   6.8924   6.9359   7.1774
     8.4553   8.5262   8.5838   8.9761   9.1907   9.4517   9.5503   9.7981
    10.1376  10.3075  10.4033  10.4761  10.5125  10.5171  10.6061  10.7529
    10.7860  11.0309  11.0827  11.1236  11.1314  11.2106  11.2800  11.3075
    11.3505  11.4341  11.5527  11.5872  11.6178  11.6716  11.7498  11.8654
    11.8720  11.9243  11.9583  12.0057  12.0508  12.0715  12.1021  12.1672
    12.2058  12.2507  12.3031  12.3673  12.3812  12.4606  12.5257  12.5649
    12.6002  12.6420  12.7030  12.7837  12.7951  12.8880  12.9694  12.9733
    13.0291  13.1065  13.1275  13.1806  13.2117  13.2512  13.3030  13.3639
    13.4238  13.4381  13.5306  13.5648  13.5969  13.6743  13.7465  13.7765
    13.8300  13.8701  13.9066  13.9526  13.9742  14.0138  14.1210  14.1585
    14.1885  14.2328  14.3039  14.3422  14.3867  14.4203  14.4602  14.5493
    14.5792  14.6722  14.7266  14.7269  14.8195  14.8697  14.8772  14.9144
    14.9816  15.0160  15.0943  15.1365  15.2080  15.2180  15.2824  15.3046
    15.3775  15.4135  15.4399  15.4686  15.5357  15.5892  15.6961  15.7043
    15.7513  15.7578  15.7891  15.8445  15.8989  15.9206  15.9888  16.0364
    16.0499  16.2074  16.2375  16.2827  16.3321  16.3724  16.3837  16.5032
    16.5062  16.6562  16.6849  16.7020  16.7974  17.2547  17.5365  17.6750
    18.0497  18.4384  18.5798  19.2503  19.5957  19.7640  19.8470  20.0290
    20.1119  20.3265  20.9667  21.1944  21.3200  21.4892  21.5086  21.8156
    22.4167  22.5660  22.9816  23.0060  23.1387  23.2721  23.7358  23.7440
    23.8055  24.0902  24.7757  24.9350  25.0855  25.2672  25.7004  25.7033
    26.0329

          k = 0.1250-0.1179 0.0000 ( 17815 PWs)   bands (ev):

    -7.0711  -6.9883  -5.9954  -4.2074  -2.1809  -1.5477   1.5372   2.3572
     3.0967   3.9494   4.5998   4.7920   6.0353   6.3196   7.3107   7.8403
     8.2880   8.3147   8.4197   8.6331   9.2430   9.4665   9.6228   9.7375
    10.0933  10.0963  10.3767  10.3938  10.4596  10.4711  10.5103  10.6480
    10.6887  10.9864  11.0736  11.1793  11.1815  11.2514  11.2916  11.3378
    11.3803  11.4737  11.5578  11.5641  11.6049  11.6338  11.7352  11.7571
    11.7765  11.8617  11.8974  11.9546  11.9957  12.0550  12.0732  12.1275
    12.1623  12.2626  12.2741  12.3669  12.4010  12.4939  12.5079  12.5911
    12.6242  12.6762  12.7553  12.8403  12.8492  12.9407  13.0072  13.0124
    13.0848  13.1412  13.1433  13.2168  13.2830  13.3139  13.3714  13.3921
    13.4574  13.4673  13.4956  13.5542  13.6216  13.6953  13.7144  13.7535
    13.8330  13.8372  13.8940  13.9164  13.9758  14.0116  14.1085  14.2017
    14.2562  14.2788  14.3226  14.4084  14.4511  14.4916  14.5250  14.5592
    14.5712  14.6610  14.7205  14.7699  14.8172  14.9400  14.9457  15.0012
    15.0284  15.0964  15.1022  15.1734  15.1986  15.2815  15.3591  15.3744
    15.3895  15.4772  15.5261  15.5771  15.5972  15.6257  15.6638  15.7139
    15.7729  15.7733  15.8413  15.8703  15.9032  15.9248  15.9979  16.0118
    16.1157  16.1620  16.2159  16.3573  16.3629  16.4002  16.4498  16.4975
    16.5845  16.7495  16.9012  16.9620  17.0841  17.2782  17.8981  17.9185
    18.4284  18.7662  18.9576  19.0176  19.3245  19.3515  19.4568  19.5499
    19.8586  19.9218  20.3607  20.5590  21.1120  21.2014  21.3057  21.6750
    22.2626  22.7144  22.9860  23.2342  23.4492  23.6262  23.6373  23.7592
    23.9418  24.0801  24.8174  24.9782  25.4369  25.4528  25.7085  25.8698
    26.0912

          k = 0.1250-0.0589 0.0000 ( 17791 PWs)   bands (ev):

    -7.1446  -6.5289  -5.1762  -5.0865  -2.6903  -1.2786   0.5940   2.2375
     2.8183   4.5150   4.5544   5.3306   5.6932   6.7802   7.5400   8.1129
     8.1656   8.1889   8.3397   8.5220   9.3011   9.3842   9.6568   9.6881
     9.8260  10.1223  10.2724  10.3433  10.3563  10.4082  10.4949  10.5815
    10.5940  10.9881  11.0294  11.1631  11.1956  11.2018  11.2710  11.3389
    11.3885  11.4733  11.5239  11.5881  11.6221  11.6533  11.6666  11.7272
    11.7465  11.7847  11.8638  11.8865  11.9886  11.9923  12.0360  12.1226
    12.2038  12.2525  12.2964  12.4100  12.4105  12.4789  12.5552  12.6249
    12.6848  12.7401  12.7595  12.8966  12.9186  12.9646  13.0169  13.0598
    13.1413  13.1630  13.1857  13.2477  13.2689  13.3376  13.3863  13.4596
    13.4688  13.4934  13.5147  13.5822  13.6221  13.6938  13.7010  13.7065
    13.8152  13.8234  13.8384  13.9111  13.9345  14.0123  14.1264  14.2005
    14.2567  14.2862  14.3573  14.4375  14.5075  14.5172  14.5415  14.5994
    14.6262  14.6382  14.7250  14.8075  14.8394  14.9268  14.9581  14.9860
    15.0617  15.1073  15.1077  15.1518  15.1715  15.2581  15.2825  15.3729
    15.3802  15.4432  15.5206  15.5732  15.6258  15.6269  15.6553  15.7347
    15.7632  15.8299  15.8491  15.9392  15.9452  15.9808  16.0511  16.0670
    16.1283  16.1923  16.2086  16.2835  16.3271  16.4015  16.4552  16.4783
    16.8942  17.0214  17.1210  17.2897  17.5850  17.7218  18.1238  18.3514
    18.5916  18.6684  18.7778  18.8488  18.9699  19.1849  19.2278  19.4186
    19.4253  19.6703  19.9035  20.0345  20.8362  21.0810  21.1866  21.5837
    22.1336  22.5139  23.4587  23.5430  23.6583  23.7417  23.8921  24.0696
    24.1817  24.4998  24.5780  24.8849  25.2535  25.5596  25.6758  25.7709
    25.9039

          k = 0.2500 0.0000 0.0000 ( 17793 PWs)   bands (ev):

    -7.2014  -5.8530  -5.8528  -4.5579  -3.4272  -0.3523  -0.3521   2.1490
     2.8811   4.8414   5.1702   5.1717   5.6321   7.4875   7.4888   7.5845
     8.1329   8.4161   8.9183   9.1510   9.1517   9.2729   9.3359   9.7850
    10.0737  10.0760  10.1772  10.2993  10.3014  10.3440  10.5448  10.5480
    10.5602  10.9316  11.0705  11.0948  11.2131  11.3125  11.3251  11.4297
    11.4784  11.4810  11.4819  11.5487  11.5513  11.5960  11.7243  11.7269
    11.7464  11.7951  11.8622  11.8802  12.1555  12.1607  12.2053  12.2589
    12.3509  12.3595  12.4109  12.5051  12.5222  12.6607  12.6819  12.7669
    12.8002  12.9176  12.9341  12.9903  13.0084  13.0285  13.1235  13.1296
    13.2127  13.2785  13.3101  13.3209  13.3830  13.3845  13.4507  13.4722
    13.5145  13.5806  13.5988  13.6304  13.6714  13.6772  13.7471  13.8146
    13.8486  13.8723  13.8956  13.9409  13.9513  13.9556  14.0750  14.1003
    14.1176  14.1711  14.1943  14.2610  14.2781  14.4178  14.4546  14.4827
    14.4953  14.6060  14.6160  14.7260  14.7384  14.7612  14.7863  14.8304
    14.9014  14.9239  14.9779  15.1235  15.1641  15.1650  15.1968  15.2432
    15.3405  15.3465  15.4208  15.4587  15.4868  15.5375  15.5725  15.6123
    15.6501  15.6892  15.6946  15.7227  15.9006  15.9592  16.0069  16.0787
    16.1057  16.1259  16.1631  16.1921  16.2508  16.2808  16.3393  16.4101
    16.4602  16.9215  17.2766  17.4880  17.5726  17.5993  17.9465  17.9596
    18.3172  18.5873  18.7068  18.9083  18.9688  19.1947  19.2957  19.4366
    19.4537  19.4913  19.7414  19.7732  20.5445  20.6461  21.1804  21.1992
    21.6678  21.8880  22.7054  22.7124  23.1764  23.1940  23.2753  23.3639
    23.4010  23.5688  23.5969  23.6178  24.2273  24.3619  25.1226  25.1284
    25.1421

          k = 0.2500 0.0589 0.0000 ( 17783 PWs)   bands (ev):

    -7.1477  -6.5195  -5.1733  -5.0734  -2.6923  -1.2824   0.5917   2.1891
     2.9744   4.5894   4.9058   5.3665   5.7603   6.7802   7.5020   8.1219
     8.1774   8.4594   8.6402   8.9434   9.2708   9.3239   9.5744   9.8104
     9.8662  10.1949  10.2542  10.3130  10.3447  10.3459  10.4950  10.5705
    10.6542  10.9423  11.0550  11.1035  11.2198  11.2948  11.3415  11.4272
    11.4586  11.4860  11.5280  11.5784  11.6115  11.6580  11.6707  11.7787
    11.7960  11.8016  11.8769  11.8834  12.1528  12.1686  12.2011  12.2603
    12.2938  12.3778  12.3917  12.4997  12.5172  12.6675  12.6752  12.7586
    12.8204  12.8491  12.9643  12.9769  12.9957  13.0374  13.0570  13.1428
    13.1780  13.2218  13.2402  13.3546  13.3678  13.4267  13.4576  13.4991
    13.5069  13.5551  13.6117  13.6592  13.6845  13.6974  13.7407  13.8156
    13.8409  13.8435  13.8941  13.9327  13.9622  13.9832  14.0357  14.1021
    14.1251  14.1421  14.1522  14.2498  14.2638  14.4122  14.4454  14.4703
    14.4742  14.5455  14.6114  14.6326  14.6791  14.7613  14.8227  14.8598
    14.9407  14.9797  15.0402  15.0944  15.1356  15.1805  15.1842  15.2941
    15.3031  15.3602  15.3654  15.4022  15.4769  15.5466  15.5816  15.6156
    15.6436  15.7340  15.7348  15.8076  15.8745  15.9582  15.9749  16.0282
    16.0770  16.1168  16.1437  16.1897  16.3000  16.3427  16.3506  16.3914
    16.4309  16.9220  17.0198  17.2527  17.3748  17.5570  17.9903  18.0571
    18.2001  18.2290  18.8068  19.0254  19.0719  19.2556  19.2909  19.3818
    19.5925  19.7844  19.8436  20.1446  20.2597  20.4165  21.5378  21.6122
    21.6895  21.9125  22.0277  22.4307  22.6750  22.7594  23.3384  23.4432
    23.6351  23.6451  24.0744  24.2688  24.3561  24.4900  24.9011  25.1467
    25.2152

          k = 0.2500 0.1179 0.0000 ( 17763 PWs)   bands (ev):

    -7.0632  -6.9914  -5.9934  -4.1919  -2.1851  -1.5439   1.5355   2.3092
     3.2672   4.0246   4.6394   5.1227   6.0117   6.4002   7.2697   8.0235
     8.3100   8.5872   8.6727   9.0147   9.2672   9.3032   9.6725   9.8764
     9.8782  10.2195  10.3197  10.3604  10.3768  10.4707  10.5120  10.6418
    10.8163  10.9787  11.0526  11.1824  11.2390  11.2757  11.3350  11.3622
    11.4578  11.5191  11.5638  11.6036  11.6260  11.7462  11.7698  11.8049
    11.8544  11.8569  11.9128  11.9451  12.1165  12.1534  12.1881  12.2394
    12.2821  12.3735  12.3916  12.4941  12.4976  12.6303  12.6410  12.7457
    12.7703  12.8240  12.9285  12.9478  12.9739  13.0193  13.0206  13.0986
    13.1013  13.2177  13.2367  13.3417  13.3495  13.4010  13.4527  13.5211
    13.5255  13.5835  13.6220  13.6335  13.6852  13.6963  13.7552  13.7677
    13.7904  13.8488  13.8700  13.8961  13.9579  13.9623  13.9811  14.0014
    14.0789  14.0962  14.1897  14.1902  14.2590  14.3445  14.3678  14.4421
    14.4551  14.5040  14.5296  14.6087  14.6122  14.7345  14.7900  14.8889
    14.9534  14.9667  15.0181  15.0837  15.1052  15.1260  15.2420  15.2523
    15.2956  15.3520  15.4116  15.4294  15.5417  15.5830  15.6057  15.6266
    15.7327  15.7558  15.7740  15.8582  15.8916  15.9364  15.9630  16.0117
    16.0535  16.1065  16.1452  16.1641  16.2687  16.2694  16.3170  16.4737
    16.5163  16.5418  16.6579  16.9010  17.3817  17.5969  17.6181  17.7115
    18.0272  18.2008  18.6629  19.0126  19.3095  19.3433  19.4942  19.6617
    19.7879  19.8147  19.9147  20.0382  20.8089  21.0305  21.3995  21.6346
    21.7500  21.8212  21.9796  22.0156  22.2063  22.4639  23.1456  23.5146
    23.7457  23.7912  24.2347  24.6715  24.9009  25.0940  25.1915  25.2293
    25.3217

          k = 0.2500 0.1768 0.0000 ( 17751 PWs)   bands (ev):

    -7.4745  -6.8474  -6.5649  -3.2201  -3.0463  -0.4220   2.4630   2.5092
     3.4815   3.6292   3.7833   5.3333   5.5347   6.9027   6.9668   7.4239
     8.5275   8.7926   9.0260   9.1089   9.2439   9.3068   9.5083   9.9460
    10.0504  10.2457  10.3459  10.4381  10.4852  10.4900  10.6146  10.7775
    10.9885  11.0103  11.0942  11.1050  11.2217  11.2590  11.3388  11.3486
    11.4491  11.5433  11.5519  11.6562  11.6843  11.7782  11.8477  11.8797
    11.9252  11.9372  11.9794  12.0535  12.0555  12.1624  12.2339  12.2397
    12.3370  12.3524  12.3950  12.4807  12.4858  12.5998  12.6058  12.7014
    12.7218  12.7616  12.8822  12.9008  12.9291  12.9401  12.9712  13.0954
    13.1046  13.1654  13.1728  13.2951  13.3591  13.3713  13.4489  13.4759
    13.5145  13.5472  13.5696  13.6061  13.6265  13.6777  13.6948  13.7149
    13.7758  13.8073  13.8336  13.8475  13.8785  13.9003  13.9654  13.9966
    14.0128  14.0424  14.1310  14.1578  14.2084  14.2136  14.3267  14.4033
    14.4169  14.4887  14.5351  14.5831  14.6006  14.6991  14.7458  14.7804
    14.8558  14.9094  14.9587  15.0515  15.0754  15.1629  15.1635  15.2490
    15.2554  15.3643  15.3918  15.4892  15.5393  15.5613  15.5692  15.6674
    15.7062  15.7561  15.7883  15.8362  15.8917  15.9058  15.9411  16.0251
    16.0386  16.0897  16.1140  16.1371  16.1696  16.2276  16.3089  16.3201
    16.3748  16.6545  16.8135  16.8604  16.9347  17.1692  17.5673  17.8854
    17.9889  18.1772  18.4354  18.8058  18.9215  19.2218  19.5122  19.6938
    19.9838  20.3472  20.4461  20.4821  20.8346  21.0437  21.3257  21.4202
    21.8426  21.8753  22.0002  22.0767  22.3974  22.6072  22.9801  23.7007
    23.7482  24.0393  24.0747  24.9369  25.1816  25.2158  25.3468  25.7324
    25.8367

          k = 0.2500 0.2357 0.0000 ( 17768 PWs)   bands (ev):

    -7.7447  -7.2749  -6.2959  -3.8529  -2.1702   0.5252   2.4906   2.7905
     2.9249   3.3935   4.4302   4.6850   6.2425   6.4499   6.8073   7.5456
     8.8244   9.0513   9.1428   9.2002   9.2387   9.3543   9.3808   9.9717
    10.1140  10.2863  10.3562  10.4174  10.5171  10.6243  10.6308  10.7086
    10.9210  11.0066  11.0601  11.1815  11.2226  11.3437  11.3733  11.4844
    11.5018  11.5495  11.5734  11.6955  11.7233  11.7917  11.8882  11.9134
    11.9607  12.0234  12.0339  12.1521  12.1880  12.2012  12.2376  12.2441
    12.3803  12.4088  12.4417  12.4466  12.5353  12.5636  12.5788  12.6298
    12.7019  12.7032  12.8202  12.8223  12.8804  12.8917  12.9478  13.0412
    13.0843  13.1117  13.1974  13.2101  13.2626  13.3116  13.3369  13.3615
    13.4159  13.4805  13.5048  13.5290  13.5825  13.6236  13.6513  13.6620
    13.7001  13.7279  13.7722  13.8129  13.8538  13.8836  13.9099  13.9604
    13.9967  14.0173  14.0523  14.1292  14.1773  14.2014  14.2711  14.3752
    14.3905  14.3993  14.5565  14.5673  14.6030  14.6360  14.6563  14.7567
    14.7623  14.8703  14.8930  14.9765  15.0365  15.0688  15.1427  15.1747
    15.2331  15.2660  15.3291  15.3967  15.4330  15.4651  15.4840  15.5168
    15.6531  15.6977  15.7116  15.7600  15.7715  15.8663  15.8735  15.9742
    16.0074  16.0111  16.1181  16.1449  16.1610  16.2153  16.2699  16.3274
    16.3708  16.6257  16.7150  16.8643  17.0156  17.3368  17.4079  17.7877
    18.2944  18.4341  18.4948  18.6111  18.6705  18.8825  19.7212  19.9276
    20.0945  20.2619  20.3169  20.7250  20.8586  20.9184  21.5197  21.7474
    21.9699  22.1097  22.1970  22.3243  22.5992  22.8134  23.1080  23.6801
    23.8674  24.2503  24.3854  24.9943  25.2847  25.4078  25.5736  25.7011
    25.7285

          k = 0.2500 0.2946 0.0000 ( 17790 PWs)   bands (ev):

    -7.8658  -7.6337  -5.8251  -4.5922  -1.0560   1.2607   1.3061   2.4123
     3.1486   4.0993   4.2443   5.0630   5.7679   6.2172   7.4860   8.0772
     8.9160   9.1620   9.2239   9.2688   9.3369   9.3684   9.4750  10.0007
    10.0114  10.0545  10.1088  10.1704  10.5263  10.6778  10.7492  10.7501
    10.9134  10.9421  11.0747  11.1439  11.3087  11.4340  11.4689  11.5061
    11.5652  11.6037  11.6763  11.7208  11.7754  11.8470  11.8757  11.8867
    12.0050  12.0316  12.0550  12.1240  12.1857  12.2589  12.3013  12.3237
    12.4183  12.4330  12.4915  12.5252  12.5269  12.5470  12.6162  12.6403
    12.6615  12.7322  12.7847  12.7906  12.8721  12.9034  12.9397  12.9878
    13.0083  13.0202  13.0436  13.1124  13.1728  13.1837  13.2185  13.2857
    13.3226  13.4026  13.4411  13.4846  13.4888  13.5724  13.5739  13.6630
    13.6692  13.7167  13.7356  13.7579  13.7698  13.8245  13.8926  13.9078
    13.9099  13.9916  14.0106  14.0767  14.0898  14.1531  14.1604  14.3501
    14.3593  14.4141  14.4778  14.4974  14.6113  14.6248  14.6373  14.7360
    14.7360  14.8155  14.8211  14.9106  14.9419  14.9909  15.0221  15.0771
    15.1248  15.1414  15.2062  15.2705  15.3228  15.4237  15.4557  15.4702
    15.5224  15.6116  15.7218  15.7733  15.8292  15.8912  15.9239  15.9637
    16.0183  16.0431  16.1746  16.1953  16.2138  16.2574  16.3172  16.3291
    16.4142  16.5704  16.5890  16.6763  17.0373  17.1265  17.4153  18.0672
    18.2587  18.3921  18.6131  18.8238  19.0086  19.0588  19.6255  19.8807
    19.9575  20.1228  20.5285  20.5859  20.6806  21.1370  21.6328  21.9271
    22.1476  22.3425  22.3897  22.6414  22.7860  22.9022  23.3625  23.5983
    24.3705  24.5070  24.8451  24.9161  25.1131  25.2897  25.5602  25.6064
    25.7960

          k = 0.2500-0.3536 0.0000 ( 17788 PWs)   bands (ev):

    -7.8306  -7.8306  -5.2530  -5.2530   0.1071   0.1071   1.8717   1.8717
     3.5859   3.5859   5.0460   5.0460   5.6435   5.6435   8.5468   8.5468
     8.8150   8.8150   9.2195   9.2195   9.5066   9.5066   9.6345   9.6345
     9.7634   9.7634  10.0795  10.0795  10.6938  10.6938  10.7885  10.7885
    10.8718  10.8718  11.0942  11.0942  11.3607  11.3607  11.5705  11.5706
    11.6388  11.6388  11.6829  11.6829  11.8359  11.8359  11.9254  11.9254
    11.9623  11.9623  12.1060  12.1060  12.2563  12.2563  12.2997  12.2997
    12.4239  12.4239  12.4657  12.4657  12.5896  12.5896  12.6801  12.6801
    12.7380  12.7380  12.7700  12.7700  12.8507  12.8507  12.9411  12.9411
    13.0038  13.0038  13.0603  13.0603  13.1157  13.1157  13.1607  13.1607
    13.2905  13.2905  13.4033  13.4033  13.4955  13.4955  13.6145  13.6145
    13.6564  13.6564  13.7517  13.7517  13.8093  13.8093  13.8708  13.8708
    13.9143  13.9143  13.9682  13.9682  14.0705  14.0705  14.2747  14.2747
    14.3847  14.3848  14.5490  14.5490  14.6615  14.6615  14.7033  14.7033
    14.7761  14.7761  14.8550  14.8550  14.8732  14.8732  14.9820  14.9820
    15.0268  15.0268  15.1587  15.1587  15.3747  15.3747  15.4509  15.4509
[...]
    13.4724  13.5059  13.5321  13.5460  13.5835  13.6000  13.6275  13.6749
    13.7207  13.8160  13.8267  13.8534  13.8672  13.8802  13.9303  13.9948
    14.0177  14.2086  14.2169  14.2300  14.2321  14.3112  14.3223  14.4269
    14.4740  14.5587  14.6110  14.6200  14.6870  14.7238  14.8057  14.8281
    14.8290  14.8776  14.9068  14.9088  15.0153  15.0703  15.1636  15.1734
    15.2383  15.3431  15.3914  15.4566  15.4909  15.4972  15.5856  15.7050
    15.7103  15.7176  15.8194  15.8683  15.9554  15.9731  16.0709  16.0900
    16.0970  16.1208  16.1711  16.1957  16.2265  16.2582  16.2671  16.3345
    16.3411  16.3547  16.3957  16.4587  16.4850  16.7231  16.7328  16.7971
    18.1490  18.2759  18.4087  18.6308  18.7149  18.8044  19.3019  19.3079
    20.0164  20.0321  20.4464  20.5565  21.0413  21.0498  21.0588  21.3063
    21.3112  21.3985  21.4709  21.4722  21.5098  21.5203  22.2285  22.5292
    22.6342  22.6840  22.7104  23.0628  23.7586  23.7623  24.0455  24.2692
    24.9594

          k =-0.5000 0.0589 0.0000 ( 17814 PWs)   bands (ev):

    -7.1520  -6.5063  -5.1692  -5.0548  -2.6951  -1.2875   0.5896   2.1090
     3.2253   4.6944   5.4021   5.7251   5.8632   6.7562   7.4280   8.1568
     8.1765   8.2917   8.8169   8.8402   9.3170   9.3613   9.9027  10.1854
    10.3019  10.3340  10.3972  10.4053  10.4364  10.4763  10.6501  10.6560
    10.7618  10.9192  10.9851  11.0331  11.0430  11.1271  11.2172  11.2858
    11.3473  11.4216  11.6572  11.6731  11.7928  11.8175  12.0194  12.0492
    12.0821  12.1347  12.1649  12.1852  12.2773  12.4104  12.4631  12.5523
    12.5633  12.6171  12.6558  12.6715  12.7495  12.7659  12.7868  12.8195
    12.8848  12.9010  12.9127  12.9341  12.9884  13.0103  13.0847  13.0881
    13.1188  13.1414  13.1857  13.2319  13.2899  13.3699  13.3909  13.4088
    13.4203  13.5123  13.5560  13.5705  13.5730  13.6044  13.6310  13.6750
    13.6753  13.7402  13.8281  13.8328  13.8528  13.8692  13.9196  13.9634
    14.0911  14.1917  14.2058  14.2296  14.2455  14.3130  14.3573  14.4252
    14.4970  14.5848  14.6085  14.6147  14.6313  14.7151  14.7268  14.8189
    14.8369  14.9042  14.9090  14.9638  15.0731  15.0879  15.1031  15.1788
    15.2161  15.3311  15.3827  15.4337  15.4406  15.4902  15.5205  15.6579
    15.6655  15.6754  15.7374  15.8159  15.8560  15.8921  15.9218  15.9895
    16.0639  16.1293  16.1355  16.1922  16.2381  16.2524  16.2714  16.2965
    16.3215  16.3669  16.3857  16.5061  16.7192  16.7716  16.9846  17.0615
    17.8295  18.0351  18.1757  18.6018  18.7564  18.9559  19.2618  19.3187
    19.7008  19.8765  20.0806  20.5525  20.8248  21.1105  21.2172  21.2708
    21.5108  21.5339  21.5856  21.7323  21.8306  21.9778  22.2035  22.5500
    22.6999  22.7291  22.8328  23.4063  23.4401  23.7970  23.9522  24.6622
    24.8804

          k =-0.5000 0.1179 0.0000 ( 17794 PWs)   bands (ev):

    -7.0522  -6.9959  -5.9908  -4.1699  -2.1909  -1.5387   1.5359   2.2327
     3.5357   4.1287   4.6916   5.9054   6.0169   6.4518   7.2024   8.3063
     8.3287   8.4256   8.7028   8.9421   9.3026   9.4882   9.7359  10.1776
    10.2558  10.3596  10.4194  10.4775  10.4794  10.5232  10.7435  10.8203
    10.8545  10.9450  11.0651  11.0985  11.1274  11.1842  11.2383  11.3053
    11.3964  11.4138  11.6129  11.7039  11.7482  11.8259  12.0006  12.0567
    12.1671  12.1820  12.1949  12.1956  12.3364  12.4280  12.5172  12.5649
    12.5933  12.6212  12.6370  12.6428  12.6757  12.7377  12.8130  12.8150
    12.8314  12.8668  12.8751  12.9167  12.9338  13.0415  13.0554  13.0698
    13.1456  13.1484  13.1943  13.2240  13.2696  13.3475  13.3830  13.4047
    13.4205  13.5370  13.5385  13.5620  13.5748  13.5933  13.6312  13.6452
    13.6582  13.6733  13.7378  13.7730  13.8556  13.8665  13.9037  13.9440
    14.0924  14.1404  14.1645  14.2359  14.2407  14.2991  14.3392  14.4585
    14.5220  14.5281  14.5566  14.5827  14.5995  14.6878  14.7152  14.8351
    14.8760  14.8769  14.9219  14.9683  14.9842  15.0617  15.1035  15.1045
    15.1666  15.2902  15.3179  15.3675  15.4013  15.4267  15.5049  15.5306
    15.5422  15.5729  15.5790  15.6592  15.8068  15.8107  15.8365  15.9738
    15.9903  16.0045  16.0556  16.0922  16.1446  16.1911  16.2495  16.2706
    16.4546  16.5119  16.5850  16.7706  16.8218  17.0046  17.2278  17.4032
    17.5473  17.6019  17.7778  18.4037  18.5597  19.1471  19.1863  19.2794
    19.3593  19.4741  19.5694  19.9436  20.9323  21.2423  21.2650  21.5542
    21.6089  21.6330  22.0059  22.1948  22.3536  22.3844  22.4660  22.7407
    22.7925  22.9886  23.0854  23.3712  23.6695  24.1403  24.6547  24.7476
    25.0406

          k =-0.5000 0.1768 0.0000 ( 17756 PWs)   bands (ev):

    -7.4653  -6.8489  -6.5653  -3.1942  -3.0524  -0.4020   2.4381   2.4689
     3.5792   3.6892   4.0951   5.3063   6.2439   6.8439   7.0272   7.9398
     8.3960   8.5280   9.0633   9.1420   9.2865   9.5851   9.6092   9.9450
    10.3252  10.4425  10.4478  10.5004  10.5486  10.7230  10.8355  10.9477
    10.9879  11.0197  11.0670  11.1249  11.2124  11.2605  11.3305  11.3721
    11.4066  11.4717  11.6118  11.7421  11.7434  11.8298  12.0056  12.0966
    12.1404  12.1520  12.2505  12.2885  12.3928  12.4518  12.4530  12.5385
    12.5553  12.6003  12.6222  12.6405  12.6720  12.7028  12.8092  12.8223
    12.8417  12.8929  12.9021  12.9299  12.9567  13.0128  13.0197  13.0239
    13.1122  13.1178  13.1571  13.1681  13.2179  13.3007  13.3691  13.3835
    13.4005  13.4512  13.5096  13.5390  13.5587  13.5974  13.6115  13.6491
    13.6823  13.6955  13.7066  13.7740  13.7756  13.8184  13.8762  13.9933
    14.0126  14.0242  14.1271  14.1791  14.1973  14.2705  14.2928  14.3566
    14.3916  14.4378  14.5545  14.5557  14.6365  14.6484  14.7004  14.7757
    14.7952  14.8367  14.8451  14.8480  14.8628  14.9146  14.9285  14.9973
    15.0975  15.1033  15.1770  15.2556  15.3131  15.3332  15.3959  15.4286
    15.5313  15.5846  15.6376  15.6384  15.7285  15.8063  15.8476  15.8818
    15.9226  15.9882  15.9974  16.0148  16.1405  16.1963  16.3153  16.5086
    16.6292  16.6521  16.7475  16.7525  16.9033  17.0851  17.1090  17.2769
    17.3240  17.7908  17.9761  18.0625  18.4231  18.6919  18.9732  18.9809
    19.3313  19.3688  19.4296  19.5659  20.5349  20.7148  21.5198  21.5484
    21.8295  21.8387  21.9703  22.5854  22.7087  22.8080  22.9009  22.9914
    23.2944  23.7555  23.9556  24.1001  24.4141  24.4441  24.6236  24.6914
    24.9879

          k =-0.5000 0.2357 0.0000 ( 17778 PWs)   bands (ev):

    -7.7371  -7.2721  -6.3005  -3.8590  -2.1400   0.5679   2.5432   2.7241
     3.0431   3.3741   4.6475   4.8685   6.3563   6.8369   7.4141   7.5696
     8.4777   8.8254   9.2123   9.2782   9.4011   9.4647   9.7118   9.7935
    10.3211  10.3909  10.4870  10.5189  10.5298  10.6813  10.8775  10.9833
    11.0333  11.0734  11.1647  11.2129  11.3093  11.3410  11.4356  11.5149
    11.5259  11.6046  11.7198  11.7830  11.8252  11.9148  12.0147  12.1375
    12.1406  12.1717  12.2368  12.3266  12.4052  12.4329  12.4817  12.5057
    12.5329  12.5329  12.5890  12.5964  12.7114  12.7697  12.7752  12.8219
    12.8493  12.8519  12.8732  12.8956  12.9350  13.0205  13.0246  13.0325
    13.0509  13.1013  13.1077  13.1721  13.1940  13.2453  13.2724  13.3216
    13.3463  13.4135  13.4467  13.4500  13.5046  13.5276  13.6083  13.6150
    13.7186  13.7285  13.7331  13.7497  13.8209  13.8586  13.8635  13.8980
    13.9408  13.9928  14.0085  14.0624  14.1109  14.1531  14.1802  14.2355
    14.2810  14.3558  14.3667  14.4158  14.4951  14.5414  14.6111  14.6603
    14.6966  14.7059  14.7378  14.7862  14.8058  14.8236  14.8491  14.8846
    14.8991  15.0069  15.0710  15.1603  15.1613  15.3077  15.3307  15.3651
    15.4696  15.5054  15.5769  15.6172  15.6461  15.7416  15.7836  15.8680
    15.9040  15.9980  15.9999  16.0930  16.1222  16.1770  16.2500  16.4204
    16.4611  16.6192  16.9164  16.9409  16.9832  17.0199  17.3112  17.4901
    17.5482  17.7149  18.1868  18.2824  18.3348  18.3594  18.5536  18.8925
    18.9925  19.4261  19.4314  19.7467  20.1385  20.3857  20.9866  21.2459
    21.8695  22.1148  22.2571  22.9136  23.0484  23.3338  23.6236  23.8871
    23.9710  24.1624  24.1953  24.3740  24.4179  24.9504  25.1445  25.3872
    25.6231

          k =-0.5000 0.2946 0.0000 ( 17762 PWs)   bands (ev):

    -7.8596  -7.6298  -5.8301  -4.5980  -1.0209   1.3332   1.3457   2.5099
     3.0897   4.0542   4.2351   5.6482   5.7472   6.8680   7.8183   8.0443
     8.5090   9.1906   9.2492   9.2903   9.3743   9.4719   9.6995   9.9525
    10.0127  10.0982  10.2383  10.4031  10.6283  10.6990  10.8675  10.9269
    11.1673  11.2383  11.2687  11.3310  11.3494  11.4839  11.5460  11.5947
    11.6874  11.7792  11.8112  11.8388  11.9287  11.9773  12.0468  12.0837
    12.1779  12.2284  12.2524  12.2811  12.4097  12.4489  12.4775  12.4854
    12.5140  12.5264  12.5551  12.6117  12.6289  12.6638  12.7259  12.8289
    12.8768  12.8978  12.9260  12.9423  12.9589  12.9666  12.9793  13.0251
    13.0384  13.0713  13.0811  13.1419  13.1999  13.2215  13.2479  13.2667
    13.2894  13.3291  13.3609  13.4005  13.4510  13.4728  13.5168  13.5486
    13.6318  13.6647  13.6692  13.7137  13.7993  13.8166  13.8389  13.8764
    13.9018  13.9207  13.9423  13.9487  13.9753  14.0250  14.0877  14.1126
    14.1176  14.1741  14.2800  14.2954  14.3526  14.3958  14.4769  14.5092
    14.5402  14.5548  14.6059  14.6621  14.6671  14.7654  14.8804  14.8844
    14.9430  14.9796  14.9998  15.0279  15.1358  15.2175  15.2527  15.3443
    15.4358  15.4731  15.5586  15.6631  15.6659  15.7223  15.8014  15.8035
    15.9309  15.9419  16.0821  16.1068  16.1805  16.2067  16.2416  16.3962
    16.4589  16.6736  16.6951  16.9091  17.1244  17.2233  17.3130  17.5711
    17.7500  17.9045  17.9835  18.0942  18.2155  18.4968  18.6540  18.9999
    19.4075  19.4401  19.5466  19.8421  19.8846  20.1673  20.3867  20.6643
    22.3035  22.4252  22.6179  23.0736  23.2315  23.3311  23.6090  23.6892
    24.1270  24.6802  24.9647  25.1829  25.1909  25.3538  25.8067  26.1942
    26.2798

          k =-0.5000-0.3536 0.0000 ( 17712 PWs)   bands (ev):

    -7.8256  -7.8256  -5.2585  -5.2585   0.1477   0.1477   1.9557   1.9557
     3.5337   3.5337   5.0331   5.0331   6.2961   6.2961   8.3826   8.3826
     9.0337   9.0337   9.2992   9.2992   9.3191   9.3191   9.6299   9.6299
     9.9926   9.9926  10.2216  10.2216  10.7759  10.7759  10.7977  10.7977
    11.2594  11.2594  11.3266  11.3266  11.5027  11.5027  11.6577  11.6577
    11.7400  11.7400  11.8468  11.8468  11.9943  11.9943  12.1532  12.1532
    12.1726  12.1726  12.3242  12.3242  12.3766  12.3766  12.4509  12.4509
    12.5407  12.5407  12.5489  12.5489  12.6761  12.6761  12.6977  12.6977
    12.7916  12.7916  12.9649  12.9649  12.9784  12.9784  13.0107  13.0107
    13.0442  13.0442  13.0851  13.0851  13.1781  13.1781  13.1857  13.1857
    13.3205  13.3205  13.3537  13.3537  13.4262  13.4262  13.4831  13.4831
    13.6414  13.6414  13.6537  13.6537  13.7230  13.7230  13.7676  13.7676
    13.8437  13.8437  13.9840  13.9840  14.0040  14.0040  14.0410  14.0410
    14.2514  14.2514  14.3047  14.3047  14.3303  14.3303  14.3532  14.3532
    14.4651  14.4651  14.5623  14.5623  14.7722  14.7722  14.8275  14.8276
    14.9475  14.9475  15.0461  15.0461  15.1216  15.1216  15.3456  15.3456
    15.3916  15.3916  15.6132  15.6132  15.7203  15.7203  15.7705  15.7705
    15.8325  15.8325  16.2021  16.2021  16.2780  16.2780  16.3531  16.3531
    16.4530  16.4530  16.9133  16.9133  17.0829  17.0829  17.6095  17.6095
    17.7724  17.7724  17.9572  17.9572  18.1866  18.1866  19.1410  19.1410
    19.6194  19.6194  19.7599  19.7599  20.0004  20.0004  20.0873  20.0873
    22.6631  22.6631  22.8152  22.8152  23.3071  23.3071  23.4483  23.4483
    24.4907  24.4907  25.6266  25.6266  26.1005  26.1006  26.1316  26.1322
    26.3340

     the Fermi energy is    18.3203 ev

!    total energy              =  -21688.81892954 Ry

     total all-electron energy =  -1064656.509479 Ry
     estimated scf accuracy    <       0.00000096 Ry
     smearing contrib. (-TS)   =      -0.00354310 Ry
     internal energy E=F+TS    =  -21688.81538644 Ry

     The total energy is F=E-TS. E is the sum of the following terms:
     one-electron contribution =      30.02914781 Ry
     hartree contribution      =     405.24512201 Ry
     xc contribution           =    -908.01599759 Ry
     ewald contribution        =   -1822.16105054 Ry
     one-center paw contrib.   =  -19393.91260814 Ry

     convergence has been achieved in  61 iterations

     negative rho (up, down):  1.561E-03 0.000E+00

     Forces acting on atoms (cartesian axes, Ry/au):

     atom    1 type  1   force =     3.01956019    0.00000153    0.24004414
     atom    2 type  1   force =     3.01956301   -0.00000216    0.24003562
     atom    3 type  1   force =    -0.34975004    0.00001167    0.42660725
     atom    4 type  1   force =    -0.34976251   -0.00000944    0.42660273
     atom    5 type  1   force =     0.01679075   -0.00000440    0.05113130
     atom    6 type  1   force =     0.01678992    0.00000906    0.05112904
     atom    7 type  1   force =     0.00004588    0.00000038    0.00977674
     atom    8 type  1   force =     0.00004614    0.00000219    0.00977452
     atom    9 type  1   force =    -0.00055460    0.00000228    0.00209000
     atom   10 type  1   force =    -0.00055388   -0.00000076    0.00210449
     atom   11 type  1   force =    -0.00035998   -0.00001439   -0.00371597
     atom   12 type  1   force =    -0.00035910    0.00001144   -0.00371645
     atom   13 type  1   force =    -0.00881300   -0.00000168   -0.00296039
     atom   14 type  1   force =    -0.00881850    0.00000085   -0.00295557
     atom   15 type  1   force =     0.28956515   -0.00001072   -0.97008344
     atom   16 type  1   force =     0.28956048    0.00000916   -0.97007486
     atom   17 type  1   force =    -0.28869732   -0.00000435    0.97031333
     atom   18 type  1   force =    -0.28869437    0.00000385    0.97029797
     atom   19 type  1   force =     0.01020072   -0.00000161   -0.00079711
     atom   20 type  1   force =     0.01020493    0.00000096   -0.00079492
     atom   21 type  1   force =     0.00014649   -0.00000109   -0.00574394
     atom   22 type  1   force =     0.00014454   -0.00000070   -0.00573221
     atom   23 type  1   force =    -0.01681982   -0.00000034   -0.05015761
     atom   24 type  1   force =    -0.01681771   -0.00000036   -0.05015956
     atom   25 type  1   force =     0.34879400    0.00000527   -0.42732521
     atom   26 type  1   force =     0.34880292   -0.00000655   -0.42731491
     atom   27 type  1   force =    -3.02010969    0.00000203   -0.23918743
     atom   28 type  1   force =    -3.02010461   -0.00000211   -0.23918753

     Total force =     2.175894     Total SCF correction =     0.003219
     Message from routine bfgs:
     history already reset at previous step: exiting
     Energy error            =      5.1E+00 Ry
     Gradient error          =      9.7E-01 Ry/Bohr

     bfgs converged in   5 scf cycles and   2 bfgs steps
     (criteria: energy <  1.0E-04 Ry, force <  1.0E-03 Ry/Bohr)

     End of BFGS Geometry Optimization

     Final energy             =  -21688.8189295418 Ry

     File ./pwscf.bfgs deleted, as requested
Begin final coordinates

ATOMIC_POSITIONS (angstrom)
Au            2.0400000000        1.4424978336        0.0000000000    0   0   1
Au            2.0400000000        4.3274935009        0.0000000000    0   0   1
Au            0.0000000000        0.0000000000        1.4424978336    0   0   1
Au            0.0000000000        2.8849956672        1.4424978336    0   0   1
Au            2.0400000000        1.4424978336        2.8849956672    0   0   1
Au            2.0400000000        4.3274935009        2.8849956672    0   0   1
Au            0.0000000000        0.0000000000        4.3274935009    0   0   1
Au            0.0000000000        2.8849956672        4.3274935009    0   0   1
Au            2.0400000000        1.4424978336        5.7699913345    0   0   1
Au            2.0400000000        4.3274935009        5.7699913345    0   0   1
Au            0.0000000000        0.0000000000        7.2124891681    0   0   1
Au            0.0000000000        2.8849956672        7.2124891681    0   0   1
Au            2.0400000000        1.4424978336        8.6549870017    0   0   1
Au            2.0400000000        4.3274935009        8.6549870017    0   0   1
Au            0.0000000000        0.0000000000       10.0974848353    0   0   1
Au            0.0000000000        2.8849956672       10.0974848353    0   0   1
Au            3.6720000000        1.4424978336       11.5399826690    0   0   1
Au            3.6720000000        4.3274935009       11.5399826690    0   0   1
Au            1.6320000000        0.0000000000       12.9824805026    0   0   1
Au            1.6320000000        2.8849956672       12.9824805026    0   0   1
Au            3.6720000000        1.4424978336       14.4249783362    0   0   1
Au            3.6720000000        4.3274935009       14.4249783362    0   0   1
Au            1.6320000000        0.0000000000       15.8674761698    0   0   1
Au            1.6320000000        2.8849956672       15.8674761698    0   0   1
Au            3.6720000000        1.4424978336       17.3099740034    0   0   1
Au            3.6720000000        4.3274935009       17.3099740034    0   0   1
Au            1.6320000000        0.0000000000       18.7524718371    0   0   1
Au            1.6320000000        2.8849956672       18.7524718371    0   0   1
End final coordinates



     Writing all to output data dir ./pwscf.save/
 
     init_run     :     19.83s CPU     20.86s WALL (       1 calls)
     electrons    :   2571.20s CPU   2620.21s WALL (       1 calls)
     forces       :      9.26s CPU      9.34s WALL (       1 calls)

     Called by init_run:
     wfcinit      :     19.14s CPU     19.60s WALL (       1 calls)
     potinit      :      0.41s CPU      0.60s WALL (       1 calls)
     hinit0       :      0.15s CPU      0.43s WALL (       1 calls)

     Called by electrons:
     c_bands      :   2258.47s CPU   2302.14s WALL (      61 calls)
     sum_band     :    289.27s CPU    292.80s WALL (      61 calls)
     v_of_rho     :      2.03s CPU      2.97s WALL (      62 calls)
     newd         :      4.22s CPU      4.99s WALL (      62 calls)
     PAW_pot      :     16.91s CPU     17.04s WALL (      62 calls)
     mix_rho      :      0.43s CPU      0.45s WALL (      61 calls)

     Called by c_bands:
     init_us_2    :     31.12s CPU     31.40s WALL (    6200 calls)
     init_us_2:cp :     31.08s CPU     31.38s WALL (    6200 calls)
     cegterg      :   2115.20s CPU   2157.41s WALL (    3050 calls)

     Called by *egterg:
     cdiaghg      :    162.64s CPU    163.99s WALL (    9238 calls)
     h_psi        :   1096.67s CPU   1115.71s WALL (    9288 calls)
     s_psi        :    216.11s CPU    217.29s WALL (    9288 calls)
     g_psi        :      3.95s CPU      4.01s WALL (    6188 calls)

     Called by h_psi:
     h_psi:calbec :    233.39s CPU    234.22s WALL (    9288 calls)
     vloc_psi     :    625.96s CPU    634.33s WALL (    9288 calls)
     add_vuspsi   :    230.04s CPU    232.69s WALL (    9288 calls)

     General routines
     calbec       :    344.85s CPU    346.05s WALL (   12538 calls)
     fft          :      1.52s CPU      2.62s WALL (     815 calls)
     ffts         :      0.10s CPU      0.14s WALL (     123 calls)
     fftw         :    715.60s CPU    723.62s WALL ( 2948584 calls)
     interpolate  :      0.18s CPU      0.24s WALL (      62 calls)
     davcio       :      0.01s CPU      0.06s WALL (      50 calls)
 
     Parallel routines
 
     PWSCF        :  43m48.30s CPU  44m58.98s WALL

 
   This run was terminated on:  10: 7:35   9Mar2024            

=------------------------------------------------------------------------------=
   JOB DONE.
=------------------------------------------------------------------------------=
