MPI startup(): Warning: I_MPI_PMI_LIBRARY will be ignored since the hydra process manager was found
MPI startup(): Warning: I_MPI_PMI_LIBRARY will be ignored since the hydra process manager was found
MPI startup(): Warning: I_MPI_PMI_LIBRARY will be ignored since the hydra process manager was found
MPI startup(): Warning: I_MPI_PMI_LIBRARY will be ignored since the hydra process manager was found
MPI startup(): Warning: I_MPI_PMI_LIBRARY will be ignored since the hydra process manager was found
MPI startup(): Warning: I_MPI_PMI_LIBRARY will be ignored since the hydra process manager was found
MPI startup(): Warning: I_MPI_PMI_LIBRARY will be ignored since the hydra process manager was found
MPI startup(): Warning: I_MPI_PMI_LIBRARY will be ignored since the hydra process manager was found
MPI startup(): Warning: I_MPI_PMI_LIBRARY will be ignored since the hydra process manager was found
MPI startup(): Warning: I_MPI_PMI_LIBRARY will be ignored since the hydra process manager was found

     Program PWSCF v.7.0 starts on  2Mar2024 at  9:51:48 

     This program is part of the open-source Quantum ESPRESSO suite
     for quantum simulation of materials; please cite
         "P. Giannozzi et al., J. Phys.:Condens. Matter 21 395502 (2009);
         "P. Giannozzi et al., J. Phys.:Condens. Matter 29 465901 (2017);
         "P. Giannozzi et al., J. Chem. Phys. 152 154105 (2020);
          URL http://www.quantum-espresso.org", 
     in publications or presentations arising from this work. More details at
     http://www.quantum-espresso.org/quote

     Parallel version (MPI), running on    10 processors

     MPI processes distributed on     1 nodes
     R & G space division:  proc/nbgrp/npool/nimage =      10
     115226 MiB available memory on the printing compute node when the environment starts
 
     Reading input from GSF110_0.4.in
Warning: card &CELL ignored
Warning: card / ignored

     Current dimensions of program PWSCF are:
     Max number of different atomic species (ntypx) = 10
     Max number of k-points (npk) =  40000
     Max angular momentum in pseudopotentials (lmaxx) =  4

     File ./pwscf.bfgs deleted, as requested
     file Au.pbe-n-kjpaw_psl.1.0.0.UPF: wavefunction(s)  6S 5D renormalized
     Found identity + (  0.0000 -0.5000  0.0000) symmetry
     This is a supercell, fractional translations are disabled
     Message from routine setup:
     using ibrav=0 with symmetry is DISCOURAGED, use correct ibrav instead

     Subspace diagonalization in iterative solution of the eigenvalue problem:
     one sub-group per band group will be used
     scalapack distributed-memory algorithm (size of sub-group:  3*  3 procs)

 
     Parallelization info
     --------------------
     sticks:   dense  smooth     PW     G-vecs:    dense   smooth      PW
     Min         133     133     38                14227    14227    2178
     Max         134     134     39                14242    14242    2183
     Sum        1339    1339    389               142317   142317   21821
 
     Using Slab Decomposition
 


     bravais-lattice index     =            0
     lattice parameter (alat)  =       7.7101  a.u.
     unit-cell volume          =    2979.1368 (a.u.)^3
     number of atoms/cell      =           28
     number of atomic types    =            1
     number of electrons       =       308.00
     number of Kohn-Sham states=          185
     kinetic-energy cutoff     =      50.0000  Ry
     charge density cutoff     =     200.0000  Ry
     scf convergence threshold =      1.0E-06
     mixing beta               =       0.1000
     number of iterations used =            8  plain     mixing
     Exchange-correlation= SLA  PW   PBX  PBC
                           (   1   4   3   4   0   0   0)

     celldm(1)=   7.710083  celldm(2)=   0.000000  celldm(3)=   0.000000
     celldm(4)=   0.000000  celldm(5)=   0.000000  celldm(6)=   0.000000

     crystal axes: (cart. coord. in units of alat)
               a(1) = (   1.000000   0.000000   0.000000 )  
               a(2) = (   0.000000   1.414214   0.000000 )  
               a(3) = (   0.000000   0.000000   4.596194 )  

     reciprocal axes: (cart. coord. in units 2 pi/alat)
               b(1) = (  1.000000  0.000000  0.000000 )  
               b(2) = (  0.000000  0.707107  0.000000 )  
               b(3) = (  0.000000  0.000000  0.217571 )  


     PseudoPot. # 1 for Au read from file:
     ./Au.pbe-n-kjpaw_psl.1.0.0.UPF
     MD5 check sum: 4db85c736373c707a97ce4c36c2a9d23
     Pseudo is Projector augmented-wave + core cor, Zval = 11.0
     Generated using &quot;atomic&quot; code by A. Dal Corso  v.6.3
     Shape of augmentation charge: PSQ
     Using radial grid of 1279 points,  6 beta functions with: 
                l(1) =   0
                l(2) =   0
                l(3) =   1
                l(4) =   1
                l(5) =   2
                l(6) =   2
     Q(r) pseudized with 0 coefficients 


     atomic species   valence    mass     pseudopotential
        Au            11.00   196.96657     Au( 1.00)

      2 Sym. Ops. (no inversion) found



   Cartesian axes

     site n.     atom                  positions (alat units)
         1           Au  tau(   1) = (   0.5000000   0.3535534   0.0000000  )
         2           Au  tau(   2) = (   0.5000000   1.0606602   0.0000000  )
         3           Au  tau(   3) = (   0.0000000   0.0000000   0.3535534  )
         4           Au  tau(   4) = (   0.0000000   0.7071068   0.3535534  )
         5           Au  tau(   5) = (   0.5000000   0.3535534   0.7071068  )
         6           Au  tau(   6) = (   0.5000000   1.0606602   0.7071068  )
         7           Au  tau(   7) = (   0.0000000   0.0000000   1.0606602  )
         8           Au  tau(   8) = (   0.0000000   0.7071068   1.0606602  )
         9           Au  tau(   9) = (   0.5000000   0.3535534   1.4142136  )
        10           Au  tau(  10) = (   0.5000000   1.0606602   1.4142136  )
        11           Au  tau(  11) = (   0.0000000   0.0000000   1.7677670  )
        12           Au  tau(  12) = (   0.0000000   0.7071068   1.7677670  )
        13           Au  tau(  13) = (   0.5000000   0.3535534   2.1213203  )
        14           Au  tau(  14) = (   0.5000000   1.0606602   2.1213203  )
        15           Au  tau(  15) = (   0.0000000   0.0000000   2.4748737  )
        16           Au  tau(  16) = (   0.0000000   0.7071068   2.4748737  )
        17           Au  tau(  17) = (   0.9000000   0.3535534   2.8284271  )
        18           Au  tau(  18) = (   0.9000000   1.0606602   2.8284271  )
        19           Au  tau(  19) = (   0.4000000   0.0000000   3.1819805  )
        20           Au  tau(  20) = (   0.4000000   0.7071068   3.1819805  )
        21           Au  tau(  21) = (   0.9000000   0.3535534   3.5355339  )
        22           Au  tau(  22) = (   0.9000000   1.0606602   3.5355339  )
        23           Au  tau(  23) = (   0.4000000   0.0000000   3.8890873  )
        24           Au  tau(  24) = (   0.4000000   0.7071068   3.8890873  )
        25           Au  tau(  25) = (   0.9000000   0.3535534   4.2426407  )
        26           Au  tau(  26) = (   0.9000000   1.0606602   4.2426407  )
        27           Au  tau(  27) = (   0.4000000   0.0000000   4.5961941  )
        28           Au  tau(  28) = (   0.4000000   0.7071068   4.5961941  )

     number of k points=    35  Gaussian smearing, width (Ry)=  0.0200
                       cart. coord. in units 2pi/alat
        k(    1) = (   0.0000000   0.0000000   0.0000000), wk =   0.0208333
        k(    2) = (   0.0000000   0.0589256   0.0000000), wk =   0.0416667
        k(    3) = (   0.0000000   0.1178511   0.0000000), wk =   0.0416667
        k(    4) = (   0.0000000   0.1767767   0.0000000), wk =   0.0416667
        k(    5) = (   0.0000000   0.2357023   0.0000000), wk =   0.0416667
        k(    6) = (   0.0000000   0.2946278   0.0000000), wk =   0.0416667
        k(    7) = (   0.0000000  -0.3535534   0.0000000), wk =   0.0208333
        k(    8) = (   0.1250000   0.0000000   0.0000000), wk =   0.0416667
        k(    9) = (   0.1250000   0.0589256   0.0000000), wk =   0.0833333
        k(   10) = (   0.1250000   0.1178511   0.0000000), wk =   0.0833333
        k(   11) = (   0.1250000   0.1767767   0.0000000), wk =   0.0833333
        k(   12) = (   0.1250000   0.2357023   0.0000000), wk =   0.0833333
        k(   13) = (   0.1250000   0.2946278   0.0000000), wk =   0.0833333
        k(   14) = (   0.1250000  -0.3535534   0.0000000), wk =   0.0416667
        k(   15) = (   0.2500000   0.0000000   0.0000000), wk =   0.0416667
        k(   16) = (   0.2500000   0.0589256   0.0000000), wk =   0.0833333
        k(   17) = (   0.2500000   0.1178511   0.0000000), wk =   0.0833333
        k(   18) = (   0.2500000   0.1767767   0.0000000), wk =   0.0833333
        k(   19) = (   0.2500000   0.2357023   0.0000000), wk =   0.0833333
        k(   20) = (   0.2500000   0.2946278   0.0000000), wk =   0.0833333
        k(   21) = (   0.2500000  -0.3535534   0.0000000), wk =   0.0416667
        k(   22) = (   0.3750000   0.0000000   0.0000000), wk =   0.0416667
        k(   23) = (   0.3750000   0.0589256   0.0000000), wk =   0.0833333
        k(   24) = (   0.3750000   0.1178511   0.0000000), wk =   0.0833333
        k(   25) = (   0.3750000   0.1767767   0.0000000), wk =   0.0833333
        k(   26) = (   0.3750000   0.2357023   0.0000000), wk =   0.0833333
        k(   27) = (   0.3750000   0.2946278   0.0000000), wk =   0.0833333
        k(   28) = (   0.3750000  -0.3535534   0.0000000), wk =   0.0416667
        k(   29) = (  -0.5000000   0.0000000   0.0000000), wk =   0.0208333
        k(   30) = (  -0.5000000   0.0589256   0.0000000), wk =   0.0416667
        k(   31) = (  -0.5000000   0.1178511   0.0000000), wk =   0.0416667
        k(   32) = (  -0.5000000   0.1767767   0.0000000), wk =   0.0416667
        k(   33) = (  -0.5000000   0.2357023   0.0000000), wk =   0.0416667
        k(   34) = (  -0.5000000   0.2946278   0.0000000), wk =   0.0416667
        k(   35) = (  -0.5000000  -0.3535534   0.0000000), wk =   0.0208333

     Dense  grid:   142317 G-vectors     FFT dimensions: (  36,  50, 160)

     Estimated max dynamical RAM per process >     261.85 MB

     Estimated total dynamical RAM >       2.56 GB

     Initial potential from superposition of free atoms

     starting charge     307.9969, renormalised to     308.0000
     Starting wfcs are  252 randomized atomic wfcs
     Checking if some PAW data can be deallocated... 

     total cpu time spent up to now is       15.5 secs

     Self-consistent Calculation

     iteration #  1     ecut=    50.00 Ry     beta= 0.10
     Davidson diagonalization with overlap
     ethr =  1.00E-02,  avg # of iterations =  4.2

     total cpu time spent up to now is       58.0 secs

     total energy              =  -21685.94091167 Ry
     estimated scf accuracy    <      19.95259062 Ry

     iteration #  2     ecut=    50.00 Ry     beta= 0.10
     Davidson diagonalization with overlap
     ethr =  6.48E-03,  avg # of iterations =  2.7

     total cpu time spent up to now is       92.3 secs

     total energy              =  -21684.22762966 Ry
     estimated scf accuracy    <     186.42762808 Ry

     iteration #  3     ecut=    50.00 Ry     beta= 0.10
     Davidson diagonalization with overlap
     ethr =  6.48E-03,  avg # of iterations =  1.0

     total cpu time spent up to now is      120.7 secs

     total energy              =  -21688.76472907 Ry
     estimated scf accuracy    <       2.53629536 Ry

     iteration #  4     ecut=    50.00 Ry     beta= 0.10
     Davidson diagonalization with overlap
     ethr =  8.23E-04,  avg # of iterations =  4.6

     total cpu time spent up to now is      156.7 secs

     total energy              =  -21688.81178290 Ry
     estimated scf accuracy    <       1.35831598 Ry

     iteration #  5     ecut=    50.00 Ry     beta= 0.10
     Davidson diagonalization with overlap
     ethr =  4.41E-04,  avg # of iterations =  3.4

     total cpu time spent up to now is      190.9 secs

     total energy              =  -21688.71175644 Ry
     estimated scf accuracy    <       0.97801599 Ry

     iteration #  6     ecut=    50.00 Ry     beta= 0.10
     Davidson diagonalization with overlap
     ethr =  3.18E-04,  avg # of iterations =  3.3

     total cpu time spent up to now is      225.4 secs

     total energy              =  -21688.72582744 Ry
     estimated scf accuracy    <       0.31133700 Ry

     iteration #  7     ecut=    50.00 Ry     beta= 0.10
     Davidson diagonalization with overlap
     c_bands:  1 eigenvalues not converged
     c_bands:  1 eigenvalues not converged
     c_bands:  1 eigenvalues not converged
     ethr =  1.01E-04,  avg # of iterations = 11.8

     total cpu time spent up to now is      284.6 secs

     total energy              =  -21688.81229901 Ry
     estimated scf accuracy    <       0.11744446 Ry

     iteration #  8     ecut=    50.00 Ry     beta= 0.10
     Davidson diagonalization with overlap
     ethr =  3.81E-05,  avg # of iterations =  4.7

     total cpu time spent up to now is      322.3 secs

     total energy              =  -21688.81943850 Ry
     estimated scf accuracy    <       0.07859587 Ry

     iteration #  9     ecut=    50.00 Ry     beta= 0.10
     Davidson diagonalization with overlap
     ethr =  2.55E-05,  avg # of iterations =  2.9

     negative rho (up, down):  8.343E-04 0.000E+00

     total cpu time spent up to now is      355.8 secs

     total energy              =  -21688.82328036 Ry
     estimated scf accuracy    <       0.02579637 Ry

     iteration # 10     ecut=    50.00 Ry     beta= 0.10
     Davidson diagonalization with overlap
     c_bands:  4 eigenvalues not converged
     c_bands:  2 eigenvalues not converged
     c_bands:  3 eigenvalues not converged
     ethr =  8.38E-06,  avg # of iterations = 10.6

     negative rho (up, down):  2.204E-03 0.000E+00

     total cpu time spent up to now is      414.0 secs

     total energy              =  -21688.82929354 Ry
     estimated scf accuracy    <       0.03289144 Ry

     iteration # 11     ecut=    50.00 Ry     beta= 0.10
     Davidson diagonalization with overlap
     ethr =  8.38E-06,  avg # of iterations =  2.5

     negative rho (up, down):  3.645E-03 0.000E+00

     total cpu time spent up to now is      446.2 secs

     total energy              =  -21688.83175608 Ry
     estimated scf accuracy    <       0.00255518 Ry

     iteration # 12     ecut=    50.00 Ry     beta= 0.10
     Davidson diagonalization with overlap
     ethr =  8.30E-07,  avg # of iterations =  7.5

     negative rho (up, down):  4.070E-03 0.000E+00

     total cpu time spent up to now is      499.3 secs

     total energy              =  -21688.83260077 Ry
     estimated scf accuracy    <       0.00060765 Ry

     iteration # 13     ecut=    50.00 Ry     beta= 0.10
     Davidson diagonalization with overlap
     ethr =  1.97E-07,  avg # of iterations =  4.3

     negative rho (up, down):  4.280E-03 0.000E+00

     total cpu time spent up to now is      541.2 secs

     total energy              =  -21688.83271381 Ry
     estimated scf accuracy    <       0.00024880 Ry

     iteration # 14     ecut=    50.00 Ry     beta= 0.10
     Davidson diagonalization with overlap
     ethr =  8.08E-08,  avg # of iterations =  3.2

     negative rho (up, down):  4.438E-03 0.000E+00

     total cpu time spent up to now is      576.0 secs

     total energy              =  -21688.83266241 Ry
     estimated scf accuracy    <       0.00014414 Ry

     iteration # 15     ecut=    50.00 Ry     beta= 0.10
     Davidson diagonalization with overlap
     ethr =  4.68E-08,  avg # of iterations =  4.2

     negative rho (up, down):  4.622E-03 0.000E+00

     total cpu time spent up to now is      616.4 secs

     total energy              =  -21688.83268353 Ry
     estimated scf accuracy    <       0.00012186 Ry

     iteration # 16     ecut=    50.00 Ry     beta= 0.10
     Davidson diagonalization with overlap
     ethr =  3.96E-08,  avg # of iterations =  1.3

     negative rho (up, down):  4.851E-03 0.000E+00

     total cpu time spent up to now is      645.7 secs

     total energy              =  -21688.83268215 Ry
     estimated scf accuracy    <       0.00002741 Ry

     iteration # 17     ecut=    50.00 Ry     beta= 0.10
     Davidson diagonalization with overlap
     ethr =  8.90E-09,  avg # of iterations =  5.5

     negative rho (up, down):  4.791E-03 0.000E+00

     total cpu time spent up to now is      700.3 secs

     total energy              =  -21688.83268283 Ry
     estimated scf accuracy    <       0.00003940 Ry

     iteration # 18     ecut=    50.00 Ry     beta= 0.10
     Davidson diagonalization with overlap
     ethr =  8.90E-09,  avg # of iterations =  2.8

     negative rho (up, down):  4.797E-03 0.000E+00

     total cpu time spent up to now is      734.5 secs

     total energy              =  -21688.83268199 Ry
     estimated scf accuracy    <       0.00000488 Ry

     iteration # 19     ecut=    50.00 Ry     beta= 0.10
     Davidson diagonalization with overlap
     ethr =  1.58E-09,  avg # of iterations =  6.3

     negative rho (up, down):  4.849E-03 0.000E+00

     total cpu time spent up to now is      790.5 secs

     total energy              =  -21688.83268446 Ry
     estimated scf accuracy    <       0.00000308 Ry

     iteration # 20     ecut=    50.00 Ry     beta= 0.10
     Davidson diagonalization with overlap
     ethr =  1.00E-09,  avg # of iterations =  2.0

     negative rho (up, down):  4.925E-03 0.000E+00

     total cpu time spent up to now is      826.1 secs

     total energy              =  -21688.83268455 Ry
     estimated scf accuracy    <       0.00000164 Ry

     iteration # 21     ecut=    50.00 Ry     beta= 0.10
     Davidson diagonalization with overlap
     ethr =  5.34E-10,  avg # of iterations =  3.5

     negative rho (up, down):  4.953E-03 0.000E+00

     total cpu time spent up to now is      861.8 secs

     End of self-consistent calculation

          k = 0.0000 0.0000 0.0000 ( 17807 PWs)   bands (ev):

    -7.1788  -5.8510  -5.8508  -4.5496  -3.4024  -0.3309  -0.3306   2.2255
     2.6949   4.3738   5.0800   5.0807   5.5981   7.4925   7.4943   7.6232
     8.0048   8.1055   8.1397   9.1509   9.1516   9.2272   9.3206   9.5822
    10.0087  10.0163  10.1437  10.3259  10.3267  10.4589  10.5375  10.5401
    10.6553  10.9855  11.0491  11.1260  11.1473  11.1916  11.2926  11.2945
    11.3314  11.3632  11.4606  11.5267  11.5338  11.6812  11.6980  11.7096
    11.7944  11.8584  11.8688  11.8741  11.9795  12.0144  12.0621  12.1275
    12.1281  12.2365  12.3164  12.3368  12.3561  12.4285  12.4648  12.5952
    12.6421  12.6449  12.7183  12.7841  12.8034  12.8269  12.8819  13.0163
    13.0643  13.1100  13.1295  13.1863  13.2104  13.2731  13.3428  13.4166
    13.4404  13.4920  13.5602  13.5631  13.6286  13.6619  13.6729  13.7822
    13.8108  13.8521  13.8744  13.9429  14.0192  14.0516  14.0927  14.2666
    14.3002  14.3586  14.3964  14.4121  14.5421  14.6777  14.7198  14.7416
    14.7707  14.7923  14.8014  14.8387  14.8687  14.8937  14.9528  14.9723
    15.0280  15.0916  15.0934  15.1593  15.1718  15.2449  15.3015  15.4167
    15.4619  15.4780  15.5874  15.5882  15.6143  15.7292  15.7626  15.7868
    15.8178  15.8386  15.8796  15.9702  16.0024  16.0578  16.0974  16.1390
    16.1810  16.2459  16.2989  16.3003  16.3876  16.5096  16.6369  16.6511
    16.9885  17.4975  17.5175  17.8737  17.8980  17.9235  18.1076  18.1669
    18.2172  18.3435  18.4187  18.6428  18.8501  18.9424  18.9678  19.2870
    19.2921  19.6580  20.0937  20.3733  21.0640  21.1525  21.1532  21.6695
    22.7030  23.1094  23.5110  24.1123  24.2622  24.3489  24.3926  24.4615
    24.4879  24.6704  25.0220  25.0768  25.5431  25.7672  26.0223  26.0935
    26.1591

          k = 0.0000 0.0589 0.0000 ( 17795 PWs)   bands (ev):

    -7.1252  -6.5157  -5.1608  -5.0738  -2.6736  -1.2596   0.6116   2.2663
     2.7819   4.4482   4.4958   5.3250   5.6779   6.7901   7.5574   8.0341
     8.1269   8.1474   8.1613   8.4829   9.2247   9.3192   9.6380   9.7394
     9.7834  10.1295  10.2452  10.3428  10.3478  10.4869  10.5390  10.5620
    10.6907  10.9300  11.0122  11.1004  11.1929  11.2067  11.2591  11.3521
    11.3646  11.4439  11.4679  11.5371  11.5776  11.6527  11.7193  11.7297
    11.8118  11.8190  11.8719  11.8852  11.9095  12.0479  12.0950  12.1082
    12.1497  12.2132  12.2587  12.3381  12.3478  12.4418  12.4934  12.5868
    12.6147  12.6535  12.6869  12.6872  12.8218  12.8714  12.9166  13.0235
    13.0429  13.1105  13.1301  13.1506  13.1774  13.2554  13.3361  13.3648
    13.4199  13.5014  13.5261  13.5673  13.5781  13.6753  13.7570  13.7738
    13.8006  13.8054  13.9005  13.9099  14.0489  14.0763  14.1673  14.2988
    14.3484  14.3649  14.3761  14.4717  14.5286  14.6493  14.6908  14.7154
    14.7354  14.7888  14.8304  14.8424  14.8465  14.8857  14.9727  14.9778
    14.9862  15.1289  15.1547  15.1644  15.2447  15.2647  15.3109  15.4074
    15.4577  15.4776  15.4781  15.5767  15.6428  15.6865  15.7547  15.7571
    15.8150  15.8292  15.8711  16.0128  16.0192  16.0459  16.0719  16.0875
    16.1877  16.2345  16.3003  16.3273  16.3826  16.4646  16.6297  16.6432
    16.9563  16.9711  17.2871  17.3570  17.5494  17.9806  18.0926  18.1325
    18.3945  18.4562  18.5674  18.6894  18.8290  19.1126  19.2041  19.6375
    19.6638  19.8019  20.1669  20.4673  20.7161  21.1242  21.5131  21.7362
    22.7388  23.1368  23.5373  23.8589  23.9770  24.1212  24.2456  24.6008
    24.6288  24.6731  25.1219  25.2301  25.5465  25.7599  25.8047  26.0255
    26.1664

          k = 0.0000 0.1179 0.0000 ( 17803 PWs)   bands (ev):

    -7.0580  -6.9689  -5.9803  -4.1956  -2.1614  -1.5334   1.5544   2.3877
     3.0527   3.9297   4.5953   4.6912   6.0730   6.2799   7.3390   7.7848
     8.1194   8.2539   8.2841   8.6318   9.1831   9.3860   9.5773   9.7594
    10.0960  10.1865  10.3848  10.4029  10.4521  10.5593  10.5679  10.5972
    10.7923  10.8015  11.0410  11.0660  11.2093  11.2466  11.2930  11.4007
    11.4249  11.4533  11.4943  11.5068  11.5813  11.6191  11.6976  11.7162
    11.8187  11.8544  11.8895  11.9024  11.9626  12.0483  12.0979  12.1207
    12.1478  12.2065  12.2207  12.3572  12.3997  12.4755  12.5202  12.5475
    12.5656  12.6291  12.6820  12.6848  12.7000  12.9217  12.9580  12.9904
    12.9988  13.0500  13.0684  13.1204  13.1454  13.2263  13.2880  13.3011
    13.4224  13.5003  13.5281  13.5594  13.5713  13.6662  13.7302  13.7874
    13.8293  13.8772  13.8998  13.9160  14.1140  14.1276  14.1649  14.2850
    14.3365  14.3740  14.4102  14.4867  14.5483  14.5527  14.5816  14.6288
    14.7229  14.7292  14.8395  14.8516  14.8876  14.9132  14.9312  14.9975
    15.0074  15.1199  15.1590  15.2358  15.2744  15.2823  15.3320  15.3870
    15.4364  15.4726  15.5242  15.6146  15.6749  15.6928  15.6963  15.7245
    15.7605  15.8274  15.8358  15.8902  15.9559  15.9812  16.0473  16.0583
    16.2111  16.2721  16.2859  16.3512  16.4376  16.4853  16.5261  16.6151
    16.6407  16.6810  16.8338  16.8963  16.8996  17.4546  17.8407  17.8836
    18.3291  18.7109  18.8131  18.9155  19.2395  19.2689  19.7355  19.9581
    20.1340  20.3669  20.3698  20.7374  20.7497  21.3008  21.6911  21.8988
    22.8309  23.2206  23.4227  23.6114  23.6161  24.1497  24.1858  24.2370
    24.5215  24.6822  24.8323  25.4844  25.5470  25.7273  25.7592  26.1324
    26.1860

          k = 0.0000 0.1768 0.0000 ( 17795 PWs)   bands (ev):

    -7.4682  -6.8303  -6.5468  -3.2280  -3.0222  -0.4269   2.4850   2.5879
     3.3838   3.5106   3.5889   5.1812   5.3813   6.8743   6.9624   7.0918
     8.2508   8.4507   8.5001   8.9755   9.1332   9.4039   9.4976   9.8547
    10.1060  10.4367  10.4452  10.4836  10.5417  10.5754  10.6375  10.6599
    10.7188  10.9521  11.0002  11.0742  11.0938  11.1993  11.2598  11.3262
    11.4344  11.4504  11.4633  11.5184  11.5669  11.6197  11.7408  11.7923
    11.8577  11.9332  11.9496  11.9511  11.9700  12.0458  12.1052  12.1421
    12.1983  12.2954  12.3256  12.3661  12.4192  12.4432  12.4576  12.5388
    12.5637  12.6257  12.6571  12.7272  12.7407  12.8713  12.8922  12.9294
    12.9316  12.9655  12.9972  13.0639  13.1545  13.2407  13.2466  13.2706
    13.4221  13.5187  13.5569  13.5645  13.5915  13.6151  13.7589  13.8407
    13.8494  13.8618  13.9630  13.9960  14.0665  14.1555  14.1736  14.2147
    14.3018  14.3168  14.3790  14.3878  14.4516  14.5304  14.5417  14.5799
    14.6378  14.7144  14.7503  14.8516  14.8764  14.9232  14.9728  15.0266
    15.0672  15.0975  15.1243  15.1658  15.1783  15.2213  15.2814  15.3430
    15.3724  15.4038  15.4713  15.5074  15.5345  15.6203  15.6803  15.6908
    15.7109  15.7599  15.7886  15.8295  15.9293  15.9789  16.0156  16.0940
    16.1598  16.2049  16.2629  16.3477  16.3725  16.4549  16.4564  16.5149
    16.5805  16.6163  16.6220  16.7217  16.8089  16.8334  17.5622  17.6235
    18.0723  18.4281  18.7150  19.0019  19.8407  19.8868  19.9887  20.6278
    20.6409  20.7589  20.8686  21.0660  21.1627  21.5950  21.8480  22.0745
    22.9278  22.9597  23.3670  23.6098  23.7484  24.0579  24.1016  24.1969
    24.3021  24.5685  24.7025  25.1035  25.4110  25.4260  25.5111  25.5424
    25.6375

          k = 0.0000 0.2357 0.0000 ( 17822 PWs)   bands (ev):

    -7.7375  -7.2634  -6.2729  -3.8286  -2.1834   0.4975   2.4504   2.8561
     2.8660   3.3904   4.0781   4.7394   6.0626   6.4257   6.4440   7.4427
     8.3981   8.7325   8.7928   9.0999   9.1613   9.2720   9.5137   9.9128
    10.2482  10.2764  10.4663  10.4870  10.5223  10.6053  10.6418  10.6614
    10.7312  10.8319  10.8829  11.0218  11.1499  11.1900  11.2047  11.2910
    11.4775  11.4777  11.5679  11.5783  11.6187  11.6670  11.7193  11.8626
    11.8821  11.9336  11.9398  12.0304  12.0412  12.1370  12.1671  12.2387
    12.2559  12.2793  12.2883  12.3463  12.3742  12.4547  12.4656  12.5153
    12.6329  12.6382  12.7104  12.7251  12.7526  12.7837  12.7850  12.8099
    12.9583  12.9593  13.0252  13.0492  13.1015  13.2160  13.2562  13.3004
    13.3963  13.3964  13.5228  13.6100  13.6340  13.6637  13.8283  13.8416
    13.8611  13.9136  13.9626  14.0070  14.0923  14.1141  14.1271  14.1468
    14.2115  14.2344  14.3044  14.3670  14.3872  14.4224  14.5150  14.5180
    14.5677  14.6329  14.7729  14.7893  14.8273  14.8509  14.9502  14.9777
    14.9826  15.0143  15.0566  15.0986  15.1166  15.1832  15.1853  15.2174
    15.2647  15.3310  15.3865  15.3961  15.4303  15.5576  15.5842  15.5964
    15.6707  15.6717  15.7393  15.7452  15.8390  15.8525  15.8598  15.9101
    16.0114  16.0389  16.1492  16.1872  16.2837  16.3366  16.4430  16.4834
    16.4886  16.5802  16.5847  16.5931  17.1788  17.2835  17.3134  17.5477
    17.5514  18.1876  19.2019  19.2519  20.0763  20.4435  20.6190  20.6809
    20.8347  20.9271  21.2655  21.6986  21.9158  22.0063  22.1976  22.2520
    22.7346  22.9421  23.5741  23.5764  23.8159  23.9357  23.9544  24.2457
    24.3499  24.5954  24.7083  24.7246  24.7742  24.9094  24.9437  25.3256
    25.4352

          k = 0.0000 0.2946 0.0000 ( 17818 PWs)   bands (ev):

    -7.8576  -7.6234  -5.8015  -4.5680  -1.0755   1.2173   1.2652   2.3372
     3.2215   4.1610   4.2568   4.6466   5.7981   5.8047   7.3718   7.9542
     8.4817   9.0463   9.0796   9.1470   9.1955   9.2550   9.3782   9.9017
    10.0260  10.0874  10.0884  10.3847  10.3922  10.6145  10.6465  10.7230
    10.7893  10.8190  10.9183  10.9786  11.0742  11.2142  11.2542  11.2944
    11.4244  11.5604  11.6888  11.7066  11.7194  11.7302  11.7686  11.8331
    11.8590  11.9343  11.9433  12.0601  12.0755  12.1082  12.1762  12.1959
    12.2437  12.2545  12.3079  12.3184  12.3862  12.4909  12.4916  12.5483
    12.6029  12.6172  12.6648  12.7121  12.7249  12.7568  12.8231  12.8736
    12.9181  12.9684  12.9736  13.0882  13.1189  13.1588  13.2083  13.3620
    13.3894  13.4302  13.4914  13.5635  13.6302  13.7080  13.8211  13.8368
    13.9056  13.9557  13.9909  14.0031  14.0415  14.0644  14.0945  14.1141
    14.1504  14.1612  14.2120  14.2645  14.2719  14.3995  14.4082  14.4789
    14.5055  14.6041  14.6252  14.6508  14.6601  14.7427  14.7832  14.8025
    14.9067  14.9389  14.9938  15.0297  15.0386  15.1743  15.2220  15.2241
    15.2435  15.3062  15.3497  15.3760  15.3915  15.4299  15.4474  15.4705
    15.5584  15.6431  15.6473  15.6676  15.7214  15.8216  15.8246  15.9689
    15.9863  15.9977  16.0989  16.2268  16.2729  16.3291  16.4031  16.4690
    16.5235  16.5571  16.5771  16.5778  16.9312  17.0380  17.3971  17.7318
    17.8066  18.0939  19.5454  19.9312  20.2289  20.3101  20.5626  21.0610
    21.1696  21.1788  21.6886  22.0306  22.2679  22.4513  22.5470  22.5502
    22.8013  23.1654  23.4619  23.7306  23.7760  23.7800  23.9438  24.0106
    24.1743  24.2773  24.4694  24.5316  24.7548  24.7861  24.9454  24.9695
    25.0961

          k = 0.0000-0.3536 0.0000 ( 17844 PWs)   bands (ev):

    -7.8214  -7.8214  -5.2292  -5.2292   0.0805   0.0805   1.8056   1.8056
     3.6538   3.6538   5.0681   5.0681   5.2098   5.2098   8.3415   8.3415
     8.8543   8.8543   9.0808   9.0808   9.2666   9.2666   9.4989   9.4989
     9.6149   9.6149  10.2703  10.2703  10.4891  10.4891  10.7217  10.7217
    10.8389  10.8389  10.9898  10.9898  11.0479  11.0479  11.2697  11.2697
    11.5884  11.5884  11.6539  11.6539  11.8104  11.8104  11.8686  11.8686
    11.9220  11.9220  11.9508  11.9508  12.0479  12.0479  12.1131  12.1132
    12.2577  12.2577  12.3375  12.3375  12.4250  12.4250  12.5312  12.5312
    12.5908  12.5908  12.6459  12.6459  12.7943  12.7943  12.8436  12.8436
    12.9337  12.9337  13.0440  13.0440  13.1180  13.1180  13.3596  13.3596
    13.3895  13.3895  13.4868  13.4868  13.7748  13.7748  13.8595  13.8595
    13.8927  13.8927  13.9664  13.9664  14.0039  14.0039  14.0876  14.0876
    14.1176  14.1176  14.1477  14.1477  14.2892  14.2892  14.4060  14.4060
    14.5279  14.5279  14.6109  14.6109  14.6853  14.6853  14.7334  14.7334
    14.8015  14.8015  15.0433  15.0433  15.0927  15.0927  15.2564  15.2564
    15.2663  15.2663  15.3495  15.3495  15.4123  15.4123  15.4332  15.4332
    15.5367  15.5367  15.6578  15.6578  15.7545  15.7545  15.9096  15.9096
    16.0328  16.0328  16.1355  16.1355  16.2719  16.2719  16.4832  16.4832
    16.5441  16.5441  16.6018  16.6018  16.8105  16.8105  17.5767  17.5767
    18.0433  18.0433  19.8803  19.8803  20.3705  20.3705  20.8034  20.8034
    21.3300  21.3300  21.9546  21.9546  22.4704  22.4704  22.7842  22.7842
    23.1840  23.1840  23.3258  23.3258  23.7863  23.7863  23.9901  23.9901
    24.2303  24.2304  24.4844  24.4845  24.6069  24.6070  24.7217  24.7217
    25.0760

          k = 0.1250 0.0000 0.0000 ( 17777 PWs)   bands (ev):

    -7.1801  -5.8463  -5.8462  -4.5468  -3.4053  -0.3322  -0.3320   2.2132
     2.7466   4.4956   5.1098   5.1106   5.6130   7.4958   7.4975   7.6314
     8.1019   8.1315   8.3232   9.1563   9.1570   9.3167   9.3408   9.6170
    10.0240  10.0304  10.1477  10.3122  10.3127  10.3917  10.5349  10.5359
    10.5619  10.9919  11.0610  11.1009  11.1776  11.2255  11.2286  11.3706
    11.3719  11.4941  11.5035  11.5330  11.6124  11.6265  11.6708  11.7215
    11.7518  11.8009  11.8180  11.8547  11.9710  11.9919  12.0374  12.1269
    12.1554  12.2585  12.3499  12.4085  12.4397  12.4762  12.5746  12.6519
    12.7246  12.7433  12.7491  12.9403  12.9473  12.9901  13.0259  13.0654
    13.1271  13.2011  13.2179  13.2312  13.2788  13.3537  13.4205  13.4310
    13.4910  13.4968  13.5411  13.6031  13.6394  13.6641  13.6718  13.7318
    13.7904  13.8130  13.8310  13.8822  13.9672  14.0530  14.0691  14.1402
    14.2061  14.2911  14.3751  14.4626  14.5181  14.5272  14.5542  14.6092
    14.6157  14.6941  14.7141  14.8372  14.8933  14.9100  14.9192  14.9684
    15.0375  15.0544  15.0941  15.1282  15.1535  15.2456  15.3152  15.3294
    15.3422  15.4806  15.5323  15.5813  15.6220  15.6398  15.6553  15.7165
    15.8284  15.8326  15.8499  15.9471  15.9904  16.0145  16.0534  16.1011
    16.1523  16.1820  16.2053  16.2670  16.3226  16.4024  16.4769  16.4797
    16.7888  17.0884  17.5952  17.6008  17.8938  17.9256  18.2070  18.3234
    18.4117  18.5485  18.6050  18.7298  18.7721  19.1362  19.3087  19.3787
    19.4541  19.5988  19.6050  19.6782  20.8997  20.9060  21.1456  21.5506
    22.0837  22.4446  23.5163  23.7375  23.9753  24.0069  24.0668  24.2036
    24.2425  24.4393  24.5372  25.0815  25.1043  25.2932  25.2978  25.5789
    25.9116

          k = 0.1250 0.0589 0.0000 ( 17791 PWs)   bands (ev):

    -7.1264  -6.5118  -5.1596  -5.0684  -2.6745  -1.2612   0.6105   2.2531
     2.8360   4.5267   4.5672   5.3415   5.7047   6.7937   7.5541   8.1255
     8.1457   8.1729   8.3439   8.5336   9.2782   9.3804   9.6567   9.6988
     9.8024  10.1272  10.2502  10.3256  10.3382  10.4115  10.5026  10.5822
    10.6017  10.9929  11.0269  11.1566  11.1953  11.2016  11.2765  11.3428
    11.3937  11.4772  11.5263  11.5875  11.6233  11.6544  11.6630  11.7299
    11.7427  11.7850  11.8633  11.8884  11.9876  11.9980  12.0360  12.1222
    12.2016  12.2468  12.2854  12.4085  12.4101  12.4785  12.5583  12.6266
    12.6830  12.7369  12.7654  12.9026  12.9183  12.9688  13.0215  13.0608
    13.1413  13.1652  13.1875  13.2473  13.2684  13.3389  13.3862  13.4588
    13.4703  13.4944  13.5152  13.5820  13.6198  13.6947  13.7018  13.7091
    13.8177  13.8254  13.8377  13.9093  13.9349  14.0162  14.1278  14.1974
    14.2540  14.2833  14.3595  14.4392  14.5078  14.5174  14.5441  14.6014
    14.6247  14.6385  14.7240  14.8077  14.8359  14.9262  14.9586  14.9826
    15.0625  15.1066  15.1073  15.1494  15.1701  15.2578  15.2811  15.3726
    15.3762  15.4425  15.5188  15.5724  15.6256  15.6273  15.6561  15.7315
    15.7611  15.8283  15.8469  15.9369  15.9427  15.9792  16.0487  16.0637
    16.1265  16.1901  16.2053  16.2871  16.3215  16.3982  16.4461  16.4687
    16.8879  17.0255  17.1162  17.2868  17.5809  17.7197  18.0982  18.3552
    18.5871  18.6629  18.7757  18.8472  18.9671  19.1871  19.2248  19.4166
    19.4346  19.6888  19.8979  20.0318  20.8389  21.0881  21.1867  21.5846
    22.1343  22.5147  23.4581  23.5448  23.6512  23.7424  23.8887  24.0707
    24.1681  24.4941  24.5756  24.8786  25.2548  25.5598  25.6757  25.7675
    25.9089

          k = 0.1250 0.1179 0.0000 ( 17815 PWs)   bands (ev):

    -7.0548  -6.9702  -5.9795  -4.1892  -2.1631  -1.5319   1.5532   2.3727
     3.1144   3.9612   4.6095   4.8052   6.0488   6.3312   7.3247   7.8521
     8.2742   8.2957   8.4209   8.6449   9.2197   9.4652   9.5988   9.7374
    10.0999  10.1033  10.3593  10.3762  10.4603  10.4633  10.5067  10.6482
    10.6958  10.9911  11.0712  11.1678  11.1867  11.2527  11.2960  11.3405
    11.3841  11.4675  11.5574  11.5668  11.6023  11.6306  11.7365  11.7604
    11.7782  11.8621  11.8976  11.9542  11.9957  12.0513  12.0744  12.1208
    12.1635  12.2608  12.2772  12.3676  12.4013  12.4938  12.5120  12.5918
    12.6232  12.6745  12.7599  12.8375  12.8535  12.9452  13.0099  13.0169
    13.0876  13.1438  13.1440  13.2172  13.2828  13.3136  13.3716  13.3925
    13.4581  13.4671  13.4960  13.5557  13.6199  13.6982  13.7143  13.7541
    13.8345  13.8410  13.8949  13.9170  13.9762  14.0149  14.1066  14.2037
    14.2551  14.2784  14.3243  14.4072  14.4509  14.4920  14.5267  14.5619
    14.5740  14.6625  14.7181  14.7705  14.8158  14.9380  14.9453  15.0012
    15.0286  15.0954  15.1023  15.1711  15.1976  15.2798  15.3580  15.3710
    15.3878  15.4752  15.5257  15.5783  15.5961  15.6250  15.6589  15.7072
    15.7711  15.7714  15.8395  15.8688  15.9023  15.9218  15.9937  16.0109
    16.1132  16.1598  16.2106  16.3512  16.3584  16.3924  16.4459  16.4984
    16.5848  16.7481  16.8891  16.9555  17.0799  17.2801  17.8779  17.9115
    18.4276  18.7710  18.9559  19.0167  19.3280  19.3517  19.4519  19.5560
    19.8681  19.9221  20.3589  20.5579  21.1155  21.2074  21.3058  21.6759
    22.2632  22.7161  22.9841  23.2277  23.4472  23.6280  23.6280  23.7594
    23.9326  24.0813  24.8099  24.9750  25.4387  25.4566  25.7039  25.8731
    26.0933

          k = 0.1250 0.1768 0.0000 ( 17796 PWs)   bands (ev):

    -7.4655  -6.8307  -6.5469  -3.2205  -3.0239  -0.4211   2.4815   2.5714
     3.4174   3.5706   3.6229   5.2712   5.3707   6.9035   6.9499   7.1896
     8.4552   8.5022   8.5768   8.9872   9.1674   9.4275   9.5517   9.7994
    10.1393  10.3163  10.3874  10.4598  10.5165  10.5219  10.5869  10.7527
    10.7922  11.0286  11.0713  11.1167  11.1278  11.2108  11.2831  11.3093
    11.3510  11.4373  11.5541  11.5866  11.6192  11.6747  11.7424  11.8611
    11.8752  11.9256  11.9591  12.0049  12.0520  12.0728  12.1038  12.1712
    12.2078  12.2536  12.3012  12.3708  12.3823  12.4638  12.5248  12.5668
    12.5985  12.6433  12.7076  12.7811  12.7972  12.8913  12.9725  12.9761
    13.0318  13.1072  13.1248  13.1806  13.2168  13.2508  13.3047  13.3638
    13.4238  13.4397  13.5322  13.5662  13.5964  13.6754  13.7476  13.7761
    13.8340  13.8707  13.9082  13.9530  13.9729  14.0149  14.1211  14.1591
    14.1884  14.2347  14.3083  14.3430  14.3883  14.4213  14.4604  14.5542
    14.5793  14.6738  14.7271  14.7277  14.8186  14.8697  14.8765  14.9135
    14.9825  15.0160  15.0938  15.1373  15.2050  15.2177  15.2815  15.3049
    15.3771  15.4117  15.4398  15.4657  15.5355  15.5865  15.6939  15.7017
    15.7483  15.7545  15.7816  15.8425  15.8941  15.9177  15.9872  16.0347
    16.0485  16.2042  16.2365  16.2767  16.3259  16.3675  16.3772  16.4973
    16.4990  16.6511  16.6780  16.6983  16.7855  17.2492  17.5332  17.6669
    18.0493  18.4360  18.5901  19.2496  19.5970  19.7704  19.8513  20.0348
    20.1162  20.3221  20.9654  21.1946  21.3202  21.4894  21.5096  21.8163
    22.4179  22.5702  22.9731  23.0085  23.1312  23.2688  23.7246  23.7459
    23.8046  24.0915  24.7731  24.9264  25.0896  25.2701  25.6964  25.7044
    26.0326

          k = 0.1250 0.2357 0.0000 ( 17785 PWs)   bands (ev):

    -7.7352  -7.2626  -6.2742  -3.8304  -2.1747   0.5097   2.4651   2.8494
     2.8772   3.3983   4.1776   4.7275   6.1097   6.4475   6.5274   7.4868
     8.6123   8.7950   8.8346   9.1321   9.1753   9.2967   9.4915   9.9244
    10.2593  10.2621  10.3341  10.4954  10.5471  10.5580  10.6377  10.6801
    10.8427  10.8716  10.9670  11.0243  11.1786  11.2180  11.3186  11.3665
    11.3959  11.4911  11.5514  11.6324  11.6579  11.7342  11.7426  11.8882
    11.9340  12.0262  12.0290  12.0618  12.0742  12.1312  12.1602  12.2028
    12.2206  12.2654  12.3328  12.3654  12.4359  12.4371  12.5000  12.5819
    12.5857  12.6450  12.6994  12.7219  12.7707  12.8488  12.9237  12.9727
    12.9824  13.0231  13.0597  13.0877  13.1626  13.2213  13.3280  13.3403
    13.3990  13.4282  13.4903  13.5188  13.5842  13.6543  13.7703  13.7995
    13.8173  13.8629  13.8908  13.9446  13.9450  14.0124  14.0730  14.0825
    14.1811  14.2164  14.2196  14.2848  14.3504  14.3925  14.4562  14.4864
    14.5888  14.6017  14.6691  14.6802  14.7306  14.7581  14.8326  14.8614
    14.9606  14.9728  14.9763  15.0416  15.0462  15.1366  15.2061  15.2479
    15.2725  15.3550  15.4058  15.4145  15.4794  15.5145  15.5863  15.6206
    15.6270  15.6873  15.7168  15.7969  15.8102  15.8623  15.9152  15.9240
    15.9896  16.0608  16.1499  16.1759  16.2527  16.3247  16.3621  16.3999
    16.5128  16.5155  16.5450  16.6441  17.2084  17.2298  17.4047  17.7462
    17.9896  18.1262  18.3959  19.5294  19.7003  19.8945  20.2360  20.4481
    20.6602  20.8725  21.0008  21.2657  21.7151  21.9205  22.0142  22.1542
    22.3919  22.5423  22.6116  23.0549  23.2057  23.2847  23.6920  23.8082
    23.9377  24.0705  24.6480  24.7060  24.8180  25.0085  25.2744  25.7711
    25.8037

          k = 0.1250 0.2946 0.0000 ( 17801 PWs)   bands (ev):

    -7.8558  -7.6223  -5.8030  -4.5698  -1.0654   1.2329   1.2814   2.3620
     3.2051   4.1469   4.2586   4.7603   5.7977   5.9106   7.4028   8.0114
     8.6637   9.0736   9.1581   9.1733   9.2031   9.2647   9.3619   9.9445
    10.0266  10.0898  10.1132  10.3621  10.3806  10.6374  10.6927  10.7104
    10.7854  10.9031  10.9124  11.0168  11.1776  11.2206  11.3123  11.3837
    11.4721  11.5654  11.6361  11.6934  11.7734  11.7880  11.7918  11.8860
    11.9162  11.9417  12.0608  12.0645  12.1028  12.1090  12.2031  12.2187
    12.2669  12.3071  12.3526  12.3869  12.4479  12.4796  12.5075  12.5574
    12.5821  12.6714  12.6913  12.7482  12.7776  12.7909  12.8836  12.9077
    12.9472  12.9821  13.0260  13.0441  13.0870  13.2066  13.2420  13.3234
    13.3454  13.4450  13.5158  13.5355  13.5812  13.6111  13.7183  13.7869
    13.8048  13.8398  13.8929  13.9006  13.9483  13.9764  14.0371  14.0560
    14.0670  14.0852  14.1212  14.2481  14.2529  14.3313  14.3454  14.4482
    14.5229  14.5252  14.6066  14.6513  14.6526  14.7821  14.7845  14.8048
    14.8451  14.8733  14.9809  15.0100  15.0291  15.0378  15.0652  15.1344
    15.2187  15.2492  15.3260  15.3598  15.4160  15.4488  15.4513  15.4964
    15.5436  15.5956  15.6167  15.7475  15.8093  15.9050  15.9086  16.0121
    16.0141  16.0453  16.1462  16.2026  16.2656  16.3000  16.3593  16.3850
    16.4614  16.4736  16.5038  16.7226  17.0917  17.2152  17.4580  17.4999
    17.9847  18.1423  18.9728  19.6008  19.8505  20.1635  20.5199  20.6585
    20.6819  20.8714  21.4753  21.6407  21.8602  21.9638  22.1427  22.2652
    22.5807  22.5984  22.9318  23.1000  23.1976  23.4286  23.8306  23.8492
    24.0238  24.0652  24.4481  24.4962  24.6483  24.6659  24.9225  25.3478
    25.5855

          k = 0.1250-0.3536 0.0000 ( 17808 PWs)   bands (ev):

    -7.8199  -7.8199  -5.2308  -5.2308   0.0922   0.0922   1.8283   1.8283
     3.6384   3.6384   5.0657   5.0657   5.3274   5.3274   8.4382   8.4382
     8.8392   8.8392   9.1168   9.1168   9.3123   9.3123   9.5700   9.5700
     9.6179   9.6179  10.2588  10.2588  10.5231  10.5231  10.7436  10.7436
    10.8311  10.8311  10.9913  10.9913  11.1477  11.1477  11.3523  11.3523
    11.5916  11.5916  11.6910  11.6910  11.8220  11.8220  11.8833  11.8833
    11.8935  11.8935  12.0348  12.0348  12.1024  12.1024  12.2006  12.2006
    12.3051  12.3051  12.3489  12.3489  12.4780  12.4780  12.5613  12.5613
    12.6067  12.6067  12.7213  12.7213  12.7882  12.7882  12.8358  12.8358
    12.9815  12.9815  13.0627  13.0627  13.1109  13.1109  13.2394  13.2394
    13.3960  13.3960  13.4694  13.4694  13.6865  13.6865  13.7492  13.7492
    13.8226  13.8226  13.8790  13.8790  13.9421  13.9421  13.9694  13.9694
    14.0477  14.0477  14.1119  14.1119  14.1688  14.1688  14.4378  14.4378
    14.5718  14.5718  14.6095  14.6095  14.6934  14.6934  14.7558  14.7558
    14.8271  14.8271  14.9452  14.9452  15.0582  15.0582  15.0906  15.0906
    15.1595  15.1595  15.2845  15.2845  15.3808  15.3808  15.4780  15.4780
    15.5842  15.5842  15.6633  15.6633  15.8679  15.8679  16.0039  16.0039
    16.0630  16.0630  16.1520  16.1520  16.2754  16.2754  16.3661  16.3661
    16.4742  16.4742  16.6526  16.6526  17.0305  17.0305  17.4913  17.4913
    18.0502  18.0502  19.4368  19.4368  20.1955  20.1955  20.4340  20.4340
    21.0870  21.0870  21.3421  21.3421  22.1820  22.1820  22.4180  22.4180
    22.5686  22.5686  22.7966  22.7966  23.5767  23.5767  23.9077  23.9077
    24.0353  24.0353  24.3040  24.3040  24.6519  24.6519  24.9788  24.9790
    25.5672

          k = 0.2500 0.0000 0.0000 ( 17793 PWs)   bands (ev):

    -7.1831  -5.8353  -5.8351  -4.5401  -3.4123  -0.3353  -0.3351   2.1647
     2.8988   4.8542   5.1821   5.1831   5.6440   7.5006   7.5022   7.5988
     8.1077   8.4008   8.9245   9.1618   9.1625   9.2795   9.3074   9.7863
    10.0501  10.0526  10.1776  10.2816  10.2835  10.3512  10.5528  10.5566
    10.5610  10.9275  11.0728  11.0934  11.2019  11.3177  11.3291  11.4304
    11.4812  11.4852  11.4874  11.5514  11.5520  11.5965  11.7243  11.7279
    11.7490  11.7932  11.8600  11.8842  12.1527  12.1604  12.2110  12.2599
    12.3309  12.3620  12.4104  12.5023  12.5243  12.6624  12.6827  12.7716
    12.8086  12.9173  12.9343  12.9930  13.0161  13.0309  13.1260  13.1312
    13.2124  13.2798  13.3030  13.3273  13.3804  13.3853  13.4515  13.4735
    13.5125  13.5801  13.5980  13.6284  13.6733  13.6780  13.7465  13.8166
    13.8485  13.8727  13.8952  13.9402  13.9511  13.9561  14.0755  14.1021
    14.1183  14.1705  14.1906  14.2591  14.2781  14.4197  14.4541  14.4822
    14.4927  14.6064  14.6158  14.7224  14.7389  14.7632  14.7862  14.8296
    14.9002  14.9258  14.9758  15.1228  15.1626  15.1665  15.1942  15.2446
    15.3372  15.3449  15.4188  15.4560  15.4860  15.5357  15.5709  15.6134
    15.6435  15.6813  15.6876  15.7216  15.8987  15.9558  16.0063  16.0756
    16.1040  16.1277  16.1639  16.1941  16.2506  16.2791  16.3314  16.4051
    16.4551  16.9104  17.2753  17.4862  17.5759  17.6022  17.9432  17.9555
    18.2881  18.5850  18.7035  18.9076  18.9682  19.1914  19.2944  19.4354
    19.4852  19.4909  19.7406  19.7728  20.5419  20.6441  21.1849  21.2036
    21.6671  21.8915  22.7115  22.7192  23.1717  23.1875  23.2763  23.3636
    23.3973  23.5660  23.5962  23.6183  24.2104  24.3459  25.1085  25.1285
    25.1344

          k = 0.2500 0.0589 0.0000 ( 17783 PWs)   bands (ev):

    -7.1295  -6.5025  -5.1567  -5.0553  -2.6764  -1.2650   0.6082   2.2047
     2.9920   4.6011   4.9186   5.3777   5.7718   6.7938   7.5162   8.1345
     8.1523   8.4441   8.6514   8.9496   9.2743   9.2990   9.5847   9.8112
     9.8422  10.1957  10.2332  10.2951  10.3266  10.3510  10.5029  10.5714
    10.6624  10.9370  11.0567  11.1056  11.2096  11.2998  11.3451  11.4306
    11.4594  11.4889  11.5298  11.5799  11.6142  11.6588  11.6705  11.7808
    11.7987  11.7995  11.8810  11.8819  12.1515  12.1675  12.2038  12.2604
    12.2773  12.3808  12.3913  12.4970  12.5187  12.6680  12.6766  12.7631
    12.8285  12.8473  12.9631  12.9796  13.0005  13.0417  13.0589  13.1425
    13.1819  13.2238  13.2405  13.3550  13.3671  13.4293  13.4600  13.4996
    13.5080  13.5544  13.6101  13.6565  13.6854  13.6977  13.7417  13.8164
    13.8416  13.8436  13.8944  13.9323  13.9624  13.9820  14.0360  14.1037
    14.1237  14.1425  14.1511  14.2499  14.2617  14.4141  14.4432  14.4701
    14.4737  14.5453  14.6129  14.6330  14.6779  14.7608  14.8217  14.8598
    14.9383  14.9776  15.0400  15.0947  15.1328  15.1792  15.1844  15.2935
    15.3014  15.3578  15.3643  15.4005  15.4738  15.5430  15.5784  15.6111
    15.6423  15.7264  15.7344  15.8058  15.8714  15.9553  15.9742  16.0316
    16.0747  16.1123  16.1433  16.1883  16.2923  16.3418  16.3490  16.3894
    16.4265  16.9104  17.0218  17.2496  17.3732  17.5549  17.9874  18.0592
    18.1742  18.2261  18.8041  19.0261  19.0702  19.2556  19.3034  19.3870
    19.5975  19.7819  19.8463  20.1436  20.2588  20.4178  21.5405  21.6137
    21.6888  21.9159  22.0334  22.4270  22.6733  22.7573  23.3395  23.4376
    23.6211  23.6444  24.0649  24.2677  24.3527  24.4855  24.8942  25.1464
    25.2095

          k = 0.2500 0.1179 0.0000 ( 17763 PWs)   bands (ev):

    -7.0469  -6.9734  -5.9775  -4.1737  -2.1673  -1.5281   1.5515   2.3247
     3.2849   4.0365   4.6492   5.1359   6.0253   6.4119   7.2837   8.0349
     8.2849   8.5721   8.6846   9.0202   9.2552   9.2959   9.6482   9.8789
     9.8863  10.2229  10.3020  10.3426  10.3796  10.4635  10.5056  10.6433
    10.8241  10.9711  11.0561  11.1813  11.2352  11.2782  11.3374  11.3595
    11.4616  11.5204  11.5615  11.6044  11.6281  11.7485  11.7715  11.8059
    11.8551  11.8594  11.9158  11.9461  12.1029  12.1522  12.1893  12.2400
    12.2799  12.3730  12.3966  12.4921  12.4979  12.6292  12.6430  12.7496
    12.7708  12.8303  12.9270  12.9502  12.9785  13.0219  13.0250  13.1020
    13.1054  13.2159  13.2374  13.3446  13.3518  13.4015  13.4542  13.5234
    13.5270  13.5841  13.6208  13.6342  13.6853  13.6960  13.7559  13.7692
    13.7907  13.8477  13.8710  13.8968  13.9584  13.9626  13.9792  14.0035
    14.0787  14.0977  14.1893  14.1905  14.2566  14.3449  14.3688  14.4425
    14.4545  14.5033  14.5306  14.6085  14.6127  14.7329  14.7897  14.8885
    14.9542  14.9671  15.0148  15.0809  15.1062  15.1240  15.2407  15.2525
    15.2920  15.3494  15.4107  15.4236  15.5393  15.5803  15.6013  15.6244
    15.7284  15.7539  15.7669  15.8571  15.8892  15.9385  15.9621  16.0092
    16.0498  16.1040  16.1435  16.1624  16.2607  16.2642  16.3118  16.4761
    16.5151  16.5403  16.6555  16.8889  17.3772  17.5939  17.6148  17.7049
    18.0121  18.1995  18.6649  19.0291  19.3149  19.3421  19.4942  19.6615
    19.7859  19.8167  19.9132  20.0428  20.8081  21.0273  21.4039  21.6333
    21.7494  21.8215  21.9824  22.0155  22.2059  22.4578  23.1222  23.5157
    23.7435  23.7905  24.2331  24.6734  24.8988  25.0910  25.1925  25.2264
    25.3228

          k = 0.2500 0.1768 0.0000 ( 17751 PWs)   bands (ev):

    -7.4590  -6.8317  -6.5473  -3.2024  -3.0282  -0.4069   2.4785   2.5245
     3.4937   3.6388   3.8003   5.3472   5.5485   6.9167   6.9781   7.4357
     8.5026   8.7778   9.0369   9.1107   9.2295   9.3072   9.4837   9.9484
    10.0598  10.2497  10.3293  10.4205  10.4854  10.4971  10.5944  10.7789
    10.9909  10.9976  11.0806  11.1106  11.2241  11.2523  11.3427  11.3545
    11.4542  11.5462  11.5530  11.6594  11.6827  11.7765  11.8488  11.8819
    11.9260  11.9384  11.9725  12.0548  12.0564  12.1625  12.2366  12.2427
    12.3343  12.3576  12.3947  12.4820  12.4854  12.6005  12.6078  12.7054
    12.7231  12.7651  12.8797  12.9037  12.9316  12.9441  12.9762  13.0985
    13.1039  13.1682  13.1737  13.2968  13.3607  13.3730  13.4509  13.4775
    13.5148  13.5483  13.5693  13.6070  13.6271  13.6762  13.6959  13.7179
    13.7750  13.8093  13.8348  13.8485  13.8798  13.8991  13.9647  13.9969
    14.0136  14.0428  14.1317  14.1567  14.2091  14.2153  14.3271  14.4011
    14.4148  14.4879  14.5355  14.5832  14.6019  14.6976  14.7477  14.7782
    14.8624  14.9091  14.9612  15.0512  15.0733  15.1617  15.1628  15.2477
    15.2524  15.3610  15.3885  15.4875  15.5368  15.5600  15.5699  15.6658
    15.7043  15.7500  15.7870  15.8326  15.8826  15.9040  15.9399  16.0201
    16.0365  16.0874  16.1084  16.1324  16.1678  16.2245  16.3024  16.3157
    16.3711  16.6468  16.8105  16.8513  16.9301  17.1655  17.5555  17.8823
    17.9857  18.1748  18.4409  18.8262  18.9204  19.2224  19.5132  19.6936
    19.9821  20.3502  20.4494  20.4816  20.8343  21.0419  21.3262  21.4194
    21.8420  21.8710  21.9989  22.0788  22.3973  22.6020  22.9667  23.6949
    23.7494  24.0390  24.0726  24.9351  25.1838  25.2149  25.3473  25.7381
    25.8407

          k = 0.2500 0.2357 0.0000 ( 17768 PWs)   bands (ev):

    -7.7298  -7.2605  -6.2774  -3.8347  -2.1534   0.5394   2.5007   2.8056
     2.9373   3.4084   4.4460   4.6991   6.2570   6.4644   6.8194   7.5569
     8.7997   9.0390   9.1467   9.1815   9.2478   9.3565   9.3569   9.9769
    10.1224  10.2711  10.3583  10.4234  10.5006  10.6115  10.6232  10.6883
    10.9177  10.9944  11.0625  11.1854  11.2272  11.3412  11.3766  11.4909
    11.4958  11.5572  11.5768  11.6976  11.7206  11.7904  11.8893  11.9158
    11.9623  12.0230  12.0348  12.1571  12.1884  12.2046  12.2397  12.2467
    12.3835  12.4079  12.4427  12.4496  12.5337  12.5670  12.5807  12.6330
    12.7035  12.7047  12.8204  12.8251  12.8819  12.8916  12.9514  13.0392
    13.0861  13.1129  13.2019  13.2124  13.2639  13.3127  13.3383  13.3630
    13.4199  13.4818  13.5053  13.5289  13.5823  13.6213  13.6470  13.6632
    13.7016  13.7271  13.7746  13.8130  13.8566  13.8842  13.9111  13.9606
    13.9968  14.0181  14.0514  14.1313  14.1783  14.2021  14.2681  14.3766
    14.3919  14.3958  14.5574  14.5701  14.6020  14.6374  14.6548  14.7555
    14.7655  14.8716  14.8927  14.9739  15.0366  15.0678  15.1428  15.1755
    15.2376  15.2643  15.3277  15.3949  15.4295  15.4631  15.4855  15.5150
    15.6517  15.6987  15.7118  15.7581  15.7693  15.8615  15.8716  15.9644
    15.9970  16.0104  16.1132  16.1386  16.1533  16.2110  16.2636  16.3213
    16.3650  16.6156  16.7108  16.8605  17.0151  17.3393  17.4024  17.7783
    18.2954  18.4354  18.4978  18.6111  18.6801  18.8792  19.7214  19.9267
    20.0995  20.2617  20.3129  20.7268  20.8594  20.9177  21.5247  21.7416
    21.9693  22.1093  22.1984  22.3240  22.5931  22.8117  23.0936  23.6772
    23.8695  24.2472  24.3857  24.9970  25.2848  25.4092  25.5773  25.6992
    25.7318

          k = 0.2500 0.2946 0.0000 ( 17790 PWs)   bands (ev):

    -7.8513  -7.6195  -5.8066  -4.5739  -1.0407   1.2738   1.3180   2.4249
     3.1635   4.1137   4.2589   5.0771   5.7819   6.2297   7.5011   8.0881
     8.9257   9.1372   9.2007   9.2485   9.3415   9.3619   9.4725  10.0092
    10.0180  10.0425  10.0900  10.1731  10.5272  10.6613  10.7322  10.7466
    10.8980  10.9423  11.0709  11.1456  11.3066  11.4369  11.4740  11.5005
    11.5715  11.6049  11.6796  11.7222  11.7821  11.8476  11.8763  11.8894
    12.0067  12.0347  12.0599  12.1263  12.1884  12.2602  12.3035  12.3276
    12.4214  12.4357  12.4932  12.5255  12.5302  12.5486  12.6181  12.6400
    12.6635  12.7321  12.7865  12.7915  12.8728  12.9034  12.9402  12.9866
    13.0092  13.0226  13.0469  13.1141  13.1730  13.1850  13.2214  13.2868
    13.3233  13.4028  13.4400  13.4831  13.4881  13.5721  13.5773  13.6640
    13.6683  13.7161  13.7354  13.7592  13.7686  13.8249  13.8955  13.9088
    13.9096  13.9926  14.0121  14.0775  14.0868  14.1567  14.1647  14.3509
    14.3628  14.4140  14.4759  14.5011  14.6105  14.6251  14.6380  14.7351
    14.7367  14.8136  14.8181  14.9103  14.9401  14.9917  15.0219  15.0773
    15.1249  15.1407  15.2023  15.2746  15.3225  15.4221  15.4553  15.4668
    15.5203  15.6123  15.7210  15.7719  15.8292  15.8893  15.9185  15.9574
    16.0091  16.0388  16.1693  16.1899  16.2115  16.2479  16.3070  16.3203
    16.4047  16.5653  16.5899  16.6748  17.0406  17.1307  17.4148  18.0677
    18.2634  18.3918  18.6043  18.8256  19.0048  19.0511  19.6303  19.8766
    19.9566  20.1222  20.5274  20.5856  20.6807  21.1385  21.6326  21.9286
    22.1465  22.3431  22.3918  22.6340  22.7836  22.9017  23.3514  23.6009
    24.3698  24.5123  24.8445  24.9141  25.1149  25.2856  25.5617  25.6066
    25.7975

          k = 0.2500-0.3536 0.0000 ( 17788 PWs)   bands (ev):

    -7.8164  -7.8164  -5.2346  -5.2346   0.1206   0.1206   1.8847   1.8847
     3.6005   3.6005   5.0603   5.0603   5.6566   5.6566   8.5572   8.5572
     8.8276   8.8276   9.1945   9.1945   9.5150   9.5150   9.6113   9.6113
     9.7485   9.7485  10.0867  10.0867  10.6904  10.6904  10.7752  10.7752
    10.8616  10.8616  11.0919  11.0919  11.3618  11.3618  11.5671  11.5671
    11.6455  11.6455  11.6870  11.6870  11.8367  11.8367  11.9281  11.9281
    11.9685  11.9685  12.1076  12.1076  12.2602  12.2602  12.3034  12.3034
    12.4259  12.4259  12.4677  12.4677  12.5917  12.5917  12.6807  12.6807
    12.7382  12.7382  12.7718  12.7718  12.8516  12.8516  12.9406  12.9406
    13.0040  13.0040  13.0617  13.0617  13.1181  13.1181  13.1599  13.1599
    13.2926  13.2926  13.4028  13.4028  13.4953  13.4953  13.6169  13.6169
    13.6573  13.6573  13.7492  13.7492  13.8082  13.8082  13.8687  13.8687
    13.9171  13.9171  13.9717  13.9717  14.0715  14.0715  14.2797  14.2797
    14.3864  14.3864  14.5473  14.5473  14.6612  14.6612  14.7032  14.7032
    14.7762  14.7762  14.8534  14.8534  14.8725  14.8725  14.9828  14.9828
    15.0263  15.0263  15.1574  15.1574  15.3735  15.3735  15.4493  15.4493
    15.5951  15.5951  15.7527  15.7527  15.8883  15.8883  15.9385  15.9385
    16.0347  16.0347  16.2064  16.2064  16.2340  16.2340  16.4029  16.4029
    16.4279  16.4279  16.6339  16.6339  16.9689  16.9689  17.7106  17.7106
    18.2722  18.2722  19.0209  19.0209  19.2062  19.2062  19.4505  19.4505
    20.2342  20.2342  20.3286  20.3286  21.1719  21.1719  21.5585  21.5585
    22.3680  22.3680  22.5297  22.5297  23.1646  23.1646  23.6147  23.6147
    24.1814  24.1814  25.2486  25.2486  25.3909  25.3911  25.4652  25.4653
    25.6960

          k = 0.3750 0.0000 0.0000 ( 17794 PWs)   bands (ev):

    -7.1862  -5.8241  -5.8240  -4.5335  -3.4192  -0.3381  -0.3378   2.1075
     3.0707   5.2551   5.2562   5.3695   5.6674   7.5010   7.5024   7.5474
     8.1076   8.6194   8.7014   9.1631   9.1641   9.2981   9.7935  10.0510
    10.0534  10.2657  10.2690  10.2958  10.3642  10.5040  10.5494  10.5577
    10.6653  10.7589  10.9271  11.1319  11.1408  11.2438  11.3019  11.3100
    11.4486  11.4846  11.5150  11.6193  11.7532  11.7856  11.8322  11.8862
    11.8998  11.9781  12.0414  12.0978  12.2232  12.3072  12.3296  12.3713
    12.4776  12.5638  12.5905  12.6003  12.6776  12.7764  12.8319  12.8393
    12.9241  12.9475  12.9705  12.9923  13.0259  13.0493  13.1209  13.1405
    13.1522  13.2187  13.2317  13.2406  13.3278  13.4121  13.4159  13.4437
    13.5132  13.5659  13.5845  13.6146  13.6152  13.6676  13.6715  13.7402
    13.7971  13.8054  13.8616  13.8775  13.9080  13.9502  13.9565  14.0474
    14.1451  14.1676  14.1728  14.2105  14.2713  14.2987  14.3043  14.3219
    14.5018  14.5773  14.5835  14.6182  14.6510  14.7384  14.8171  14.8705
    14.9333  14.9929  15.0139  15.0372  15.0678  15.1131  15.1812  15.1840
    15.2626  15.2829  15.3148  15.3432  15.3586  15.4343  15.5051  15.5469
    15.5743  15.6895  15.6965  15.8402  15.8569  15.9083  15.9669  16.0047
    16.0866  16.0953  16.1583  16.1726  16.1820  16.2711  16.2764  16.3320
    16.3576  16.4091  16.4103  16.8065  17.1610  17.2131  17.4198  17.6552
    18.0658  18.1301  18.3547  18.6476  18.6717  19.1549  19.3756  19.5345
    19.7807  19.9632  20.0625  20.2802  20.4955  21.1407  21.3131  21.3334
    21.5108  21.5411  21.7867  21.8296  22.0469  22.0763  22.2705  22.3040
    22.6623  22.7381  23.4084  23.5760  23.7218  23.8713  24.5521  24.6154
    24.7317

          k = 0.3750 0.0589 0.0000 ( 17796 PWs)   bands (ev):

    -7.1326  -6.4932  -5.1538  -5.0421  -2.6784  -1.2686   0.6066   2.1484
     3.1672   4.6755   5.3887   5.4455   5.8434   6.7801   7.4663   8.1521
     8.1570   8.6379   8.7280   8.7814   9.2900   9.4457   9.8209   9.8710
    10.1888  10.2762  10.3267  10.3311  10.3829  10.4413  10.4996  10.6565
    10.6782  10.7658  10.9507  11.0696  11.2030  11.2418  11.3233  11.3468
    11.4473  11.5195  11.5735  11.6091  11.7234  11.8121  11.8274  11.9302
    11.9386  11.9903  12.0271  12.1452  12.2363  12.2749  12.3371  12.3808
    12.4918  12.5610  12.5991  12.6194  12.6831  12.7888  12.8097  12.8119
    12.9027  12.9049  12.9369  13.0037  13.0324  13.0477  13.0658  13.1444
    13.1480  13.1838  13.2346  13.3106  13.3348  13.4099  13.4184  13.4669
    13.4999  13.5414  13.5498  13.6109  13.6190  13.6637  13.6882  13.7262
    13.7517  13.8085  13.8502  13.8575  13.8846  13.9747  13.9820  14.0430
    14.1159  14.1315  14.1779  14.2215  14.2540  14.2745  14.3190  14.3342
    14.4833  14.5343  14.5846  14.6449  14.6536  14.7004  14.8166  14.8523
    14.9230  14.9845  14.9977  15.0417  15.0966  15.1449  15.1483  15.1786
    15.2345  15.2637  15.2824  15.3194  15.3690  15.3776  15.4647  15.4844
    15.5679  15.6659  15.7486  15.8492  15.8627  15.8906  15.9768  15.9822
    16.0282  16.0903  16.1217  16.1803  16.2110  16.2300  16.3079  16.3376
    16.3602  16.4231  16.5249  16.8879  16.9014  17.2948  17.4742  17.4931
    17.7454  18.1578  18.1986  18.7546  18.8792  19.2832  19.2863  19.3964
    19.5133  19.9913  20.3149  20.5395  20.5461  20.9134  21.1614  21.1660
    21.2224  21.4018  21.5240  21.7777  22.1574  22.3987  22.5900  22.8167
    23.1323  23.3628  23.4437  23.5100  23.5937  23.7195  24.2456  24.6387
    24.7710

          k = 0.3750 0.1179 0.0000 ( 17793 PWs)   bands (ev):

    -7.0391  -6.9765  -5.9757  -4.1582  -2.1714  -1.5244   1.5514   2.2708
     3.4727   4.1104   4.6869   5.6206   6.0256   6.4550   7.2375   8.2814
     8.2848   8.6759   8.7214   8.8391   9.2699   9.6301   9.6946   9.8941
    10.2115  10.2602  10.3215  10.4379  10.4414  10.4967  10.5163  10.7335
    10.8268  10.8703  11.0177  11.0925  11.2151  11.2420  11.3324  11.4329
    11.4468  11.5662  11.5844  11.6830  11.6867  11.7765  11.8083  11.9647
    11.9866  12.0494  12.0525  12.1666  12.2200  12.3119  12.3511  12.4179
    12.4878  12.5663  12.6105  12.6157  12.7012  12.7045  12.7661  12.8153
    12.8541  12.8943  12.9071  12.9424  13.0323  13.0680  13.0765  13.1437
    13.1584  13.2074  13.2374  13.2968  13.3509  13.3846  13.3975  13.4422
    13.4835  13.5101  13.5480  13.5595  13.5796  13.6517  13.6704  13.6842
    13.7445  13.7847  13.8287  13.8416  13.8623  13.9437  13.9695  14.0208
    14.0472  14.0988  14.1328  14.1672  14.2380  14.2526  14.3396  14.3572
    14.4153  14.5126  14.5493  14.6139  14.6491  14.7044  14.7312  14.8034
    14.8595  14.8960  14.9835  14.9881  15.0078  15.0684  15.0781  15.1459
    15.1710  15.2408  15.2628  15.2998  15.3936  15.4671  15.5283  15.5300
    15.6093  15.6903  15.7412  15.7610  15.8048  15.8147  15.9393  15.9603
    16.0402  16.0651  16.0986  16.1283  16.1831  16.2024  16.2767  16.3151
    16.3841  16.5371  16.5731  16.7890  16.8968  17.0721  17.5267  17.5917
    17.7735  17.8968  18.0150  18.3035  18.8776  19.1658  19.1862  19.4354
    19.7220  20.0686  20.2678  20.3413  20.5373  20.6712  20.9109  21.1273
    21.2267  21.2715  21.7558  21.8760  22.3895  22.7930  23.1700  23.2753
    23.5275  23.5445  23.6481  23.7371  23.7676  24.2171  24.2887  24.6067
    24.8811

          k = 0.3750 0.1768 0.0000 ( 17788 PWs)   bands (ev):

    -7.4525  -6.8327  -6.5477  -3.1841  -3.0326  -0.3927   2.4743   2.4815
     3.5638   3.6821   4.0185   5.3274   5.9795   6.8772   7.0276   7.7621
     8.5026   8.7306   9.0355   9.0897   9.2483   9.5383   9.7531   9.9482
    10.0579  10.3170  10.3893  10.4753  10.5447  10.5906  10.6720  10.8707
    10.9021  11.0129  11.0846  11.1040  11.1678  11.2704  11.3283  11.4335
    11.5808  11.6083  11.6419  11.6975  11.7243  11.8002  11.8137  11.9631
    12.0130  12.0721  12.1350  12.1463  12.3044  12.3460  12.3783  12.4264
    12.4303  12.5734  12.5763  12.6163  12.7057  12.7097  12.7481  12.8094
    12.8120  12.8681  12.9140  12.9446  13.0070  13.0250  13.0596  13.1190
    13.1379  13.1718  13.1972  13.2419  13.3061  13.3220  13.3590  13.4081
    13.4597  13.4673  13.5082  13.5205  13.5518  13.6123  13.6545  13.6962
    13.7021  13.7543  13.7683  13.8189  13.8611  13.9037  13.9473  13.9583
    13.9895  14.0480  14.0842  14.0919  14.1842  14.1897  14.2941  14.3414
    14.3677  14.3716  14.4906  14.4968  14.5905  14.6125  14.6437  14.7547
    14.7602  14.8111  14.8906  14.9036  14.9687  15.0112  15.0208  15.0544
    15.1816  15.1832  15.2662  15.2844  15.3741  15.4532  15.5303  15.5644
    15.5938  15.6434  15.7168  15.7238  15.8083  15.8226  15.8408  15.8871
    15.9116  15.9371  16.0091  16.0806  16.0900  16.2486  16.3341  16.4181
    16.5562  16.6004  16.6943  16.8243  16.9297  17.1472  17.2727  17.6546
    17.6627  17.8953  18.0744  18.2892  18.3735  18.9441  18.9592  19.1889
    19.8007  19.9955  20.0637  20.0724  20.1925  20.5644  20.8873  21.3482
    21.4736  21.7528  21.9861  22.1482  22.4743  23.0323  23.3859  23.5602
    23.6957  23.7440  23.8593  24.1771  24.5250  24.6535  25.0018  25.0198
    25.2847

          k = 0.3750 0.2357 0.0000 ( 17756 PWs)   bands (ev):

    -7.7244  -7.2585  -6.2806  -3.8389  -2.1321   0.5695   2.5373   2.7593
     3.0148   3.4008   4.6722   4.7501   6.3687   6.6405   7.2094   7.5821
     8.7706   8.8035   9.2287   9.3023   9.3029   9.4151   9.7864   9.8521
    10.0984  10.3035  10.3824  10.4646  10.5583  10.6717  10.7454  10.8293
    10.9292  11.0304  11.1939  11.2242  11.2726  11.2936  11.4374  11.4794
    11.6335  11.6985  11.7446  11.7557  11.8038  11.8098  11.8847  11.9529
    12.0749  12.1148  12.2144  12.2225  12.3279  12.3419  12.3898  12.4239
    12.4494  12.5061  12.6187  12.6277  12.6598  12.7291  12.7473  12.8011
    12.8067  12.8535  12.8613  12.9093  12.9615  12.9815  13.0015  13.0405
    13.0805  13.1062  13.1335  13.2111  13.2651  13.2807  13.3274  13.3831
    13.3861  13.4191  13.4257  13.4790  13.5069  13.5352  13.5587  13.6356
    13.6790  13.7026  13.7656  13.7676  13.8204  13.8626  13.8920  13.9243
    13.9679  13.9852  14.0482  14.0650  14.0754  14.1282  14.1537  14.2104
    14.2173  14.3839  14.4088  14.4255  14.4646  14.4994  14.5894  14.6503
    14.6509  14.7810  14.8099  14.8337  14.8997  14.9401  14.9758  15.0002
    15.0734  15.1211  15.1442  15.2448  15.2790  15.3753  15.4090  15.4395
    15.5226  15.5650  15.6223  15.6930  15.7101  15.7673  15.7950  15.8419
    15.8895  15.9296  15.9636  16.0704  16.2000  16.3031  16.3332  16.4075
    16.4077  16.5752  16.6291  16.9924  17.1277  17.4164  17.4383  17.5382
    17.7510  17.9684  18.1629  18.3425  18.5528  18.5605  18.7852  19.0355
    19.3622  19.5455  19.6962  20.1415  20.3378  20.4106  21.1810  21.5434
    21.5837  21.7802  22.3465  22.5389  22.8186  23.2297  23.4383  23.8667
    23.8962  23.9601  24.3846  24.7730  24.9790  24.9972  25.4417  25.5809
    25.7021

          k = 0.3750 0.2946 0.0000 ( 17761 PWs)   bands (ev):

    -7.8470  -7.6168  -5.8102  -4.5780  -1.0158   1.3212   1.3496   2.4927
     3.1217   4.0814   4.2537   5.4693   5.7676   6.6506   7.6774   8.0828
     8.7278   9.1632   9.2439   9.3163   9.3803   9.5719   9.6424   9.9073
    10.0430  10.0766  10.1128  10.1807  10.6252  10.7010  10.8143  10.8744
    10.9747  11.1581  11.1900  11.3721  11.3724  11.4438  11.4509  11.6328
    11.6794  11.7311  11.7726  11.8137  11.8980  11.9315  11.9487  12.0054
    12.0970  12.1300  12.2223  12.2392  12.2558  12.3525  12.3539  12.4660
    12.4834  12.5496  12.5706  12.6452  12.6714  12.7215  12.7234  12.7552
    12.8216  12.8292  12.8718  12.8814  12.9152  12.9768  12.9905  13.0285
    13.0376  13.0827  13.1003  13.1395  13.1521  13.2261  13.2755  13.2766
    13.2902  13.3707  13.3822  13.4032  13.4396  13.4957  13.5131  13.5307
    13.6045  13.6308  13.7011  13.7083  13.7598  13.7731  13.7807  13.8159
    13.8789  13.9063  13.9577  14.0082  14.0342  14.0575  14.0599  14.1647
    14.2147  14.3037  14.3522  14.3952  14.4259  14.4625  14.4989  14.5582
    14.6040  14.6331  14.6560  14.7397  14.7571  14.8045  14.9092  14.9183
    14.9541  15.0796  15.0926  15.1854  15.2376  15.2801  15.2976  15.4600
    15.4757  15.5664  15.5924  15.6080  15.8021  15.8111  15.8469  15.8644
    15.9565  16.0003  16.0372  16.1353  16.1643  16.1686  16.2473  16.3371
    16.3962  16.4849  16.7250  17.1605  17.2154  17.2862  17.4248  17.6536
    17.9338  18.1746  18.1771  18.4923  18.6235  18.7898  18.8664  19.0114
    19.0205  19.1508  19.4757  19.8229  20.5867  20.7084  21.2630  21.3898
    21.5474  21.8193  22.3819  22.5135  23.3790  23.6179  23.9764  24.0242
    24.0908  24.5444  24.5787  24.6880  25.2612  25.4351  25.7520  25.8791
    26.2076

          k = 0.3750-0.3536 0.0000 ( 17776 PWs)   bands (ev):

    -7.8129  -7.8129  -5.2385  -5.2385   0.1493   0.1493   1.9435   1.9435
     3.5633   3.5633   5.0519   5.0519   6.0833   6.0833   8.4772   8.4772
     8.9234   8.9234   9.2603   9.2603   9.5451   9.5451   9.6091   9.6091
     9.9101   9.9102  10.0673  10.0673  10.7554  10.7554  10.7842  10.7842
    11.1090  11.1090  11.2735  11.2735  11.4726  11.4726  11.6471  11.6471
    11.7168  11.7168  11.7714  11.7714  11.9908  11.9908  12.0421  12.0421
    12.1262  12.1262  12.1555  12.1555  12.3057  12.3057  12.3982  12.3982
    12.5229  12.5229  12.5916  12.5916  12.6870  12.6870  12.7521  12.7521
    12.8360  12.8360  12.8582  12.8582  12.9431  12.9431  13.0208  13.0208
    13.0475  13.0475  13.0833  13.0833  13.1170  13.1170  13.2229  13.2229
    13.2838  13.2838  13.3607  13.3607  13.4006  13.4006  13.4536  13.4536
    13.6093  13.6093  13.6696  13.6696  13.7378  13.7378  13.7807  13.7807
    13.8355  13.8355  13.9232  13.9232  13.9977  13.9977  14.1446  14.1446
    14.3130  14.3130  14.3732  14.3732  14.4782  14.4782  14.5138  14.5138
    14.5949  14.5949  14.6464  14.6464  14.7530  14.7530  14.7725  14.7725
    14.9705  14.9705  15.1708  15.1708  15.2290  15.2290  15.3627  15.3627
    15.5056  15.5056  15.5938  15.5938  15.8293  15.8293  15.8955  15.8955
    15.9787  15.9787  16.0676  16.0676  16.1585  16.1585  16.3023  16.3023
    16.4758  16.4758  16.9356  16.9356  17.2375  17.2375  17.6721  17.6721
    17.8487  17.8487  18.5534  18.5534  18.7147  18.7147  18.8509  18.8509
    19.2236  19.2236  19.4842  19.4842  20.9074  20.9074  21.0287  21.0287
    21.9788  21.9788  22.1559  22.1559  23.7968  23.7968  24.2878  24.2878
    24.4007  24.4007  24.7329  24.7329  25.1740  25.1740  26.0291  26.0291
    26.2475

          k =-0.5000 0.0000 0.0000 ( 17814 PWs)   bands (ev):

    -7.1874  -5.8195  -5.8194  -4.5308  -3.4222  -0.3392  -0.3389   2.0836
     3.1453   5.2856   5.2868   5.6732   5.6810   7.4998   7.5011   7.5212
     8.1069   8.2952   8.7557   9.1644   9.1656   9.2943  10.0421  10.0474
    10.2652  10.2680  10.3623  10.3857  10.5284  10.5412  10.5775  10.6244
    10.7465  10.9195  10.9645  11.0050  11.0856  11.1498  11.1501  11.2254
    11.3194  11.4286  11.6067  11.6692  11.7543  11.8265  11.9958  12.0068
    12.0709  12.1218  12.1909  12.1972  12.2962  12.3468  12.4552  12.5363
    12.5519  12.5825  12.6631  12.6876  12.7336  12.7574  12.8181  12.8252
    12.9167  12.9328  12.9487  12.9619  13.0059  13.0701  13.0838  13.0845
    13.1467  13.1752  13.1825  13.2512  13.2592  13.2892  13.3484  13.4375
    13.4745  13.5068  13.5311  13.5453  13.5840  13.5991  13.6297  13.6770
    13.7214  13.8168  13.8260  13.8540  13.8690  13.8791  13.9264  13.9950
    14.0165  14.2107  14.2149  14.2298  14.2301  14.3086  14.3237  14.4247
    14.4754  14.5607  14.6081  14.6155  14.6834  14.7223  14.8058  14.8218
    14.8321  14.8638  14.8984  14.9085  15.0145  15.0646  15.1561  15.1716
    15.2377  15.3436  15.3944  15.4516  15.4912  15.4919  15.5840  15.7076
    15.7095  15.7237  15.8209  15.8674  15.9538  15.9692  16.0709  16.0886
    16.0970  16.1199  16.1717  16.1955  16.2255  16.2567  16.2678  16.3245
    16.3321  16.3537  16.3924  16.4558  16.4831  16.7238  16.7303  16.7983
    18.1461  18.2731  18.3793  18.6192  18.7122  18.8017  19.3085  19.3328
    20.0169  20.0319  20.4513  20.5606  21.0436  21.0516  21.0589  21.3067
    21.3128  21.3966  21.4683  21.4780  21.5074  21.5178  22.2247  22.5254
    22.6349  22.6840  22.7112  23.0622  23.7575  23.7623  24.0482  24.2722
    24.9229

          k =-0.5000 0.0589 0.0000 ( 17814 PWs)   bands (ev):

    -7.1338  -6.4893  -5.1526  -5.0366  -2.6792  -1.2700   0.6062   2.1248
     3.2430   4.7063   5.4134   5.7384   5.8749   6.7699   7.4421   8.1514
     8.1695   8.3004   8.7982   8.8507   9.2887   9.3712   9.8790  10.1664
    10.2840  10.3143  10.4047  10.4119  10.4414  10.4835  10.6550  10.6632
    10.7541  10.9194  10.9834  11.0313  11.0441  11.1264  11.2176  11.2893
    11.3472  11.4237  11.6560  11.6657  11.7944  11.8270  12.0179  12.0533
    12.0871  12.1378  12.1699  12.1876  12.2580  12.4122  12.4642  12.5543
    12.5623  12.6213  12.6560  12.6758  12.7500  12.7668  12.7932  12.8263
    12.8891  12.9023  12.9137  12.9379  12.9896  13.0103  13.0871  13.0913
    13.1168  13.1447  13.1860  13.2338  13.2912  13.3709  13.3883  13.4090
    13.4216  13.5118  13.5557  13.5701  13.5736  13.6044  13.6327  13.6759
    13.6772  13.7394  13.8284  13.8317  13.8530  13.8700  13.9178  13.9641
    14.0900  14.1932  14.2044  14.2291  14.2435  14.3109  14.3561  14.4248
    14.4987  14.5807  14.6056  14.6105  14.6312  14.7170  14.7263  14.8193
    14.8304  14.8935  14.8996  14.9637  15.0733  15.0838  15.0973  15.1749
    15.2152  15.3311  15.3792  15.4336  15.4347  15.4877  15.5217  15.6624
    15.6643  15.6810  15.7364  15.8169  15.8555  15.8925  15.9185  15.9874
    16.0580  16.1256  16.1357  16.1918  16.2388  16.2505  16.2688  16.2958
    16.3186  16.3629  16.3775  16.5016  16.7152  16.7721  16.9881  17.0583
    17.8245  18.0116  18.1754  18.5998  18.7549  18.9395  19.2906  19.3214
    19.7009  19.8761  20.0824  20.5513  20.8316  21.1107  21.2109  21.2765
    21.5174  21.5333  21.5845  21.7314  21.8282  21.9783  22.1996  22.5476
    22.6992  22.7307  22.8309  23.4073  23.4338  23.7818  23.9510  24.6394
    24.8820

          k =-0.5000 0.1179 0.0000 ( 17794 PWs)   bands (ev):

    -7.0359  -6.9779  -5.9749  -4.1517  -2.1731  -1.5228   1.5519   2.2483
     3.5535   4.1406   4.7016   5.9189   6.0308   6.4635   7.2163   8.2833
     8.3356   8.4364   8.7145   8.9233   9.2744   9.4981   9.7112  10.1831
    10.2384  10.3418  10.4034  10.4828  10.4842  10.5306  10.7438  10.8169
    10.8617  10.9455  11.0642  11.0959  11.1289  11.1808  11.2375  11.3085
    11.3987  11.4137  11.6104  11.6972  11.7501  11.8357  11.9980  12.0586
    12.1675  12.1794  12.1869  12.2014  12.3407  12.4244  12.5210  12.5665
    12.5968  12.6243  12.6383  12.6452  12.6787  12.7419  12.8162  12.8221
    12.8339  12.8673  12.8793  12.9152  12.9356  13.0453  13.0574  13.0727
    13.1430  13.1520  13.1945  13.2275  13.2708  13.3492  13.3860  13.4054
    13.4213  13.5381  13.5386  13.5630  13.5752  13.5935  13.6306  13.6463
    13.6575  13.6748  13.7380  13.7718  13.8557  13.8660  13.9044  13.9449
    14.0921  14.1418  14.1632  14.2353  14.2397  14.2973  14.3379  14.4565
    14.5185  14.5293  14.5566  14.5828  14.5950  14.6880  14.7168  14.8280
    14.8737  14.8757  14.9128  14.9677  14.9817  15.0593  15.1002  15.1029
    15.1649  15.2879  15.3179  15.3666  15.3994  15.4248  15.5023  15.5201
    15.5469  15.5718  15.5804  15.6581  15.8039  15.8097  15.8355  15.9705
    15.9894  15.9992  16.0551  16.0925  16.1432  16.1888  16.2433  16.2613
    16.4533  16.5097  16.5809  16.7660  16.8181  17.0073  17.2267  17.3988
    17.5390  17.5871  17.7780  18.4031  18.5572  19.1775  19.1864  19.2681
    19.3571  19.4759  19.5677  19.9435  20.9345  21.2394  21.2656  21.5532
    21.6013  21.6382  22.0116  22.1967  22.3510  22.3739  22.4596  22.7392
    22.7950  22.9864  23.0846  23.3683  23.6589  24.1375  24.6513  24.7442
    25.0422

          k =-0.5000 0.1768 0.0000 ( 17756 PWs)   bands (ev):

    -7.4497  -6.8331  -6.5478  -3.1764  -3.0344  -0.3868   2.4536   2.4844
     3.5913   3.6986   4.1127   5.3203   6.2579   6.8577   7.0389   7.9511
     8.4052   8.5033   9.0734   9.1231   9.2587   9.5605   9.6188   9.9518
    10.3089  10.4248  10.4468  10.4889  10.5559  10.7296  10.8276  10.9538
    10.9859  11.0047  11.0737  11.1193  11.2156  11.2610  11.3336  11.3736
    11.4059  11.4727  11.6122  11.7376  11.7463  11.8376  12.0059  12.0976
    12.1256  12.1548  12.2563  12.2942  12.3933  12.4484  12.4548  12.5458
    12.5609  12.6056  12.6271  12.6466  12.6736  12.7036  12.8124  12.8264
    12.8450  12.8937  12.9016  12.9309  12.9598  13.0123  13.0214  13.0276
    13.1124  13.1212  13.1572  13.1730  13.2159  13.3042  13.3705  13.3849
    13.4018  13.4522  13.5100  13.5389  13.5587  13.5985  13.6123  13.6494
    13.6836  13.6967  13.7060  13.7742  13.7752  13.8182  13.8776  13.9935
    14.0123  14.0254  14.1267  14.1797  14.1947  14.2706  14.2919  14.3545
    14.3902  14.4370  14.5493  14.5563  14.6347  14.6508  14.7007  14.7734
    14.7945  14.8348  14.8439  14.8442  14.8617  14.9103  14.9231  14.9943
    15.0961  15.1103  15.1766  15.2555  15.3169  15.3318  15.3910  15.4288
    15.5264  15.5805  15.6292  15.6380  15.7284  15.8035  15.8449  15.8785
    15.9186  15.9846  15.9955  16.0125  16.1328  16.1923  16.3039  16.5039
    16.6196  16.6537  16.7468  16.7478  16.8975  17.0824  17.1042  17.2665
    17.3249  17.7905  17.9753  18.0615  18.4194  18.6920  18.9745  19.0102
    19.3295  19.3685  19.4256  19.5552  20.5372  20.7114  21.5209  21.5455
    21.8317  21.8419  21.9564  22.5892  22.6982  22.8063  22.9037  22.9965
    23.2932  23.7538  23.9552  24.0972  24.4119  24.4433  24.6212  24.6921
    24.9905

          k =-0.5000 0.2357 0.0000 ( 17778 PWs)   bands (ev):

    -7.7222  -7.2577  -6.2819  -3.8407  -2.1232   0.5821   2.5533   2.7394
     3.0554   3.3891   4.6617   4.8849   6.3702   6.8517   7.4258   7.5812
     8.4875   8.8007   9.2212   9.2507   9.3822   9.4390   9.7197   9.8041
    10.3179  10.3839  10.4689  10.5009  10.5381  10.6611  10.8650  10.9862
    11.0285  11.0745  11.1689  11.2189  11.3140  11.3451  11.4370  11.5172
    11.5269  11.6044  11.7209  11.7855  11.8233  11.9198  12.0192  12.1380
    12.1387  12.1652  12.2388  12.3332  12.4062  12.4349  12.4886  12.5072
    12.5351  12.5382  12.5957  12.6030  12.7116  12.7705  12.7782  12.8207
    12.8490  12.8577  12.8759  12.8983  12.9397  13.0216  13.0265  13.0345
    13.0509  13.1070  13.1086  13.1730  13.1970  13.2446  13.2747  13.3212
    13.3471  13.4157  13.4478  13.4509  13.5024  13.5291  13.6092  13.6175
    13.7208  13.7277  13.7334  13.7501  13.8190  13.8590  13.8608  13.8989
    13.9423  13.9916  14.0106  14.0622  14.1110  14.1509  14.1782  14.2355
    14.2811  14.3558  14.3663  14.4139  14.4942  14.5394  14.6081  14.6578
    14.6973  14.7053  14.7353  14.7791  14.8069  14.8210  14.8401  14.8838
    14.8994  15.0060  15.0778  15.1587  15.1623  15.3083  15.3283  15.3653
    15.4659  15.5123  15.5735  15.6136  15.6462  15.7381  15.7782  15.8632
    15.9048  15.9874  15.9957  16.0820  16.1210  16.1775  16.2378  16.4117
    16.4470  16.6151  16.9157  16.9389  16.9839  17.0202  17.3082  17.4859
    17.5463  17.7052  18.1845  18.2825  18.3360  18.3702  18.5541  18.8921
    19.0063  19.4151  19.4315  19.7390  20.1397  20.3850  20.9828  21.2477
    21.8712  22.1160  22.2460  22.9118  23.0513  23.3400  23.6162  23.8882
    23.9716  24.1654  24.1948  24.3735  24.4162  24.9491  25.1449  25.3845
    25.6201

          k =-0.5000 0.2946 0.0000 ( 17762 PWs)   bands (ev):

    -7.8452  -7.6156  -5.8116  -4.5797  -1.0055   1.3467   1.3574   2.5225
     3.1047   4.0686   4.2496   5.6626   5.7612   6.8802   7.8336   8.0557
     8.5194   9.1660   9.2573   9.2635   9.3485   9.4799   9.6808   9.9629
    10.0228  10.0760  10.2196  10.4121  10.6114  10.6809  10.8512  10.9123
    11.1735  11.2433  11.2745  11.3358  11.3536  11.4880  11.5488  11.5978
    11.6895  11.7804  11.8129  11.8400  11.9351  11.9767  12.0496  12.0872
    12.1770  12.2284  12.2479  12.2824  12.4142  12.4558  12.4832  12.4856
    12.5180  12.5291  12.5594  12.6159  12.6291  12.6695  12.7258  12.8281
    12.8818  12.9009  12.9266  12.9447  12.9630  12.9701  12.9829  13.0295
    13.0414  13.0742  13.0803  13.1435  13.1996  13.2236  13.2503  13.2699
    13.2903  13.3309  13.3613  13.4023  13.4528  13.4693  13.5180  13.5509
    13.6314  13.6644  13.6716  13.7139  13.7955  13.8159  13.8395  13.8748
    13.9024  13.9209  13.9400  13.9460  13.9743  14.0251  14.0877  14.1113
    14.1201  14.1748  14.2793  14.2940  14.3531  14.3968  14.4750  14.5060
    14.5417  14.5498  14.6046  14.6567  14.6684  14.7647  14.8732  14.8843
    14.9429  14.9818  14.9987  15.0275  15.1362  15.2164  15.2500  15.3413
    15.4350  15.4722  15.5564  15.6594  15.6648  15.7183  15.7945  15.7952
    15.9277  15.9302  16.0802  16.1089  16.1789  16.1906  16.2400  16.3811
    16.4564  16.6708  16.6962  16.9113  17.1260  17.2210  17.3132  17.5704
    17.7475  17.9033  17.9843  18.1047  18.2149  18.4964  18.6478  18.9966
    19.3950  19.4417  19.5470  19.8431  19.8797  20.1664  20.3815  20.6640
    22.3054  22.4249  22.6112  23.0716  23.2344  23.3342  23.6063  23.6915
    24.1268  24.6878  24.9537  25.1881  25.1884  25.3511  25.8047  26.1946
    26.2755

          k =-0.5000-0.3536 0.0000 ( 17712 PWs)   bands (ev):

    -7.8114  -7.8114  -5.2401  -5.2401   0.1613   0.1613   1.9686   1.9686
     3.5484   3.5484   5.0473   5.0473   6.3090   6.3090   8.3937   8.3937
     9.0475   9.0475   9.2830   9.2830   9.3170   9.3170   9.6060   9.6060
     9.9736   9.9736  10.2313  10.2313  10.7597  10.7597  10.7803  10.7803
    11.2656  11.2656  11.3311  11.3311  11.5061  11.5061  11.6607  11.6607
    11.7424  11.7424  11.8513  11.8513  11.9971  11.9971  12.1511  12.1511
    12.1754  12.1754  12.3191  12.3191  12.3809  12.3809  12.4554  12.4554
    12.5464  12.5464  12.5542  12.5542  12.6785  12.6785  12.6993  12.6993
    12.7951  12.7951  12.9661  12.9661  12.9839  12.9839  13.0139  13.0139
    13.0468  13.0468  13.0871  13.0871  13.1797  13.1797  13.1862  13.1862
    13.3242  13.3242  13.3547  13.3547  13.4257  13.4257  13.4835  13.4835
    13.6415  13.6415  13.6519  13.6519  13.7231  13.7231  13.7661  13.7661
    13.8432  13.8432  13.9815  13.9815  14.0048  14.0048  14.0387  14.0387
    14.2506  14.2506  14.3039  14.3039  14.3321  14.3321  14.3540  14.3540
    14.4650  14.4650  14.5563  14.5563  14.7749  14.7749  14.8268  14.8268
    14.9434  14.9434  15.0448  15.0448  15.1213  15.1213  15.3446  15.3446
    15.3877  15.3877  15.6106  15.6106  15.7132  15.7132  15.7624  15.7624
    15.8271  15.8271  16.1951  16.1951  16.2757  16.2757  16.3471  16.3471
    16.4513  16.4513  16.9122  16.9122  17.0887  17.0887  17.6093  17.6093
    17.7746  17.7746  17.9562  17.9562  18.1887  18.1887  19.1308  19.1308
    19.6199  19.6199  19.7540  19.7540  19.9981  19.9981  20.0857  20.0857
    22.6599  22.6599  22.8181  22.8181  23.3047  23.3047  23.4510  23.4510
    24.4884  24.4884  25.6359  25.6360  26.1001  26.1001  26.1215  26.1215
    26.3392

     the Fermi energy is    18.3282 ev

!    total energy              =  -21688.83268424 Ry

     total all-electron energy =  -1064656.523234 Ry
     estimated scf accuracy    <       0.00000042 Ry
     smearing contrib. (-TS)   =      -0.02252092 Ry
     internal energy E=F+TS    =  -21688.81016332 Ry

     The total energy is F=E-TS. E is the sum of the following terms:
     one-electron contribution =      30.02432168 Ry
     hartree contribution      =     405.24921305 Ry
     xc contribution           =    -908.01286279 Ry
     ewald contribution        =   -1822.16105053 Ry
     one-center paw contrib.   =  -19393.90978472 Ry

     convergence has been achieved in  21 iterations

     negative rho (up, down):  4.953E-03 0.000E+00

     Forces acting on atoms (cartesian axes, Ry/au):

     atom    1 type  1   force =     3.01188298   -0.00000326    0.23885540
     atom    2 type  1   force =     3.01188298    0.00000326    0.23885540
     atom    3 type  1   force =    -0.34972541    0.00000000    0.42705207
     atom    4 type  1   force =    -0.34972808    0.00000000    0.42705414
     atom    5 type  1   force =     0.01648838   -0.00000104    0.05135113
     atom    6 type  1   force =     0.01648838    0.00000104    0.05135113
     atom    7 type  1   force =     0.00011639    0.00000000    0.00921292
     atom    8 type  1   force =     0.00011246    0.00000000    0.00921443
     atom    9 type  1   force =    -0.00066164    0.00000022    0.00242355
     atom   10 type  1   force =    -0.00066164   -0.00000022    0.00242355
     atom   11 type  1   force =    -0.00027434    0.00000000   -0.00331762
     atom   12 type  1   force =    -0.00027430    0.00000000   -0.00331837
     atom   13 type  1   force =    -0.00883707   -0.00000065   -0.00295766
     atom   14 type  1   force =    -0.00883707    0.00000065   -0.00295766
     atom   15 type  1   force =     0.28896598    0.00000000   -0.96777675
     atom   16 type  1   force =     0.28896591    0.00000000   -0.96777824
     atom   17 type  1   force =    -0.28831182    0.00000340    0.96800133
     atom   18 type  1   force =    -0.28831182   -0.00000340    0.96800133
     atom   19 type  1   force =     0.01032224    0.00000000   -0.00077665
     atom   20 type  1   force =     0.01032095    0.00000000   -0.00077517
     atom   21 type  1   force =     0.00002700   -0.00000217   -0.00498483
     atom   22 type  1   force =     0.00002700    0.00000217   -0.00498483
     atom   23 type  1   force =    -0.01658592    0.00000000   -0.05039148
     atom   24 type  1   force =    -0.01658688    0.00000000   -0.05039533
     atom   25 type  1   force =     0.34889339    0.00000136   -0.42805013
     atom   26 type  1   force =     0.34889339   -0.00000136   -0.42805013
     atom   27 type  1   force =    -3.01229210    0.00000000   -0.23863937
     atom   28 type  1   force =    -3.01229933    0.00000000   -0.23864217

     Total force =     6.467657     Total SCF correction =     0.001502

     Writing all to output data dir ./pwscf.save/
 
     init_run     :     14.73s CPU     15.17s WALL (       1 calls)
     electrons    :    836.86s CPU    846.32s WALL (       1 calls)
     forces       :      6.55s CPU      6.62s WALL (       1 calls)

     Called by init_run:
     wfcinit      :     14.01s CPU     14.32s WALL (       1 calls)
     potinit      :      0.45s CPU      0.50s WALL (       1 calls)
     hinit0       :      0.13s CPU      0.17s WALL (       1 calls)

     Called by electrons:
     c_bands      :    754.59s CPU    763.17s WALL (      21 calls)
     sum_band     :     74.62s CPU     75.28s WALL (      21 calls)
     v_of_rho     :      0.43s CPU      0.56s WALL (      22 calls)
     newd         :      0.74s CPU      0.84s WALL (      22 calls)
     PAW_pot      :      6.82s CPU      6.84s WALL (      22 calls)
     mix_rho      :      0.09s CPU      0.09s WALL (      21 calls)

     Called by c_bands:
     init_us_2    :      4.34s CPU      4.37s WALL (    1540 calls)
     init_us_2:cp :      4.34s CPU      4.37s WALL (    1540 calls)
     cegterg      :    720.42s CPU    728.77s WALL (     735 calls)

     Called by *egterg:
     cdiaghg      :     83.99s CPU     84.77s WALL (    3966 calls)
     h_psi        :    341.64s CPU    346.17s WALL (    4001 calls)
     s_psi        :     68.28s CPU     68.58s WALL (    4001 calls)
     g_psi        :      1.10s CPU      1.11s WALL (    3231 calls)

     Called by h_psi:
     h_psi:calbec :     75.51s CPU     75.76s WALL (    4001 calls)
     vloc_psi     :    191.55s CPU    193.98s WALL (    4001 calls)
     add_vuspsi   :     73.35s CPU     73.94s WALL (    4001 calls)

     General routines
     calbec       :    108.62s CPU    108.98s WALL (    4876 calls)
     fft          :      0.39s CPU      0.60s WALL (     253 calls)
     ffts         :      0.02s CPU      0.02s WALL (      21 calls)
     fftw         :    212.03s CPU    214.45s WALL (  808981 calls)
 
     Parallel routines
 
     PWSCF        :  14m25.47s CPU  14m41.17s WALL

 
   This run was terminated on:  10: 6:29   2Mar2024            

=------------------------------------------------------------------------------=
   JOB DONE.
=------------------------------------------------------------------------------=
