MPI startup(): Warning: I_MPI_PMI_LIBRARY will be ignored since the hydra process manager was found
MPI startup(): Warning: I_MPI_PMI_LIBRARY will be ignored since the hydra process manager was found
MPI startup(): Warning: I_MPI_PMI_LIBRARY will be ignored since the hydra process manager was found
MPI startup(): Warning: I_MPI_PMI_LIBRARY will be ignored since the hydra process manager was found
MPI startup(): Warning: I_MPI_PMI_LIBRARY will be ignored since the hydra process manager was found
MPI startup(): Warning: I_MPI_PMI_LIBRARY will be ignored since the hydra process manager was found
MPI startup(): Warning: I_MPI_PMI_LIBRARY will be ignored since the hydra process manager was found
MPI startup(): Warning: I_MPI_PMI_LIBRARY will be ignored since the hydra process manager was found
MPI startup(): Warning: I_MPI_PMI_LIBRARY will be ignored since the hydra process manager was found
MPI startup(): Warning: I_MPI_PMI_LIBRARY will be ignored since the hydra process manager was found

     Program PWSCF v.7.0 starts on 11Mar2024 at  8: 7:50 

     This program is part of the open-source Quantum ESPRESSO suite
     for quantum simulation of materials; please cite
         "P. Giannozzi et al., J. Phys.:Condens. Matter 21 395502 (2009);
         "P. Giannozzi et al., J. Phys.:Condens. Matter 29 465901 (2017);
         "P. Giannozzi et al., J. Chem. Phys. 152 154105 (2020);
          URL http://www.quantum-espresso.org", 
     in publications or presentations arising from this work. More details at
     http://www.quantum-espresso.org/quote

     Parallel version (MPI), running on    10 processors

     MPI processes distributed on     1 nodes
     R & G space division:  proc/nbgrp/npool/nimage =      10
     151634 MiB available memory on the printing compute node when the environment starts
 
     Reading input from GSF110R_0.05.in
Warning: card &CELL ignored
Warning: card / ignored

     Current dimensions of program PWSCF are:
     Max number of different atomic species (ntypx) = 10
     Max number of k-points (npk) =  40000
     Max angular momentum in pseudopotentials (lmaxx) =  4

     File ./pwscf.update deleted, as requested

     File ./pwscf.bfgs deleted, as requested
     file Au.pbe-n-kjpaw_psl.1.0.0.UPF: wavefunction(s)  6S 5D renormalized
     Found identity + (  0.0000 -0.5000  0.0000) symmetry
     This is a supercell, fractional translations are disabled

     Subspace diagonalization in iterative solution of the eigenvalue problem:
     one sub-group per band group will be used
     scalapack distributed-memory algorithm (size of sub-group:  3*  3 procs)

 
     Parallelization info
     --------------------
     sticks:   dense  smooth     PW     G-vecs:    dense   smooth      PW
     Min         167     133     38                19889    14227    2178
     Max         168     134     39                19904    14242    2183
     Sum        1677    1339    389               198971   142317   21821
 
     Using Slab Decomposition
 


     bravais-lattice index     =            0
     lattice parameter (alat)  =       7.7101  a.u.
     unit-cell volume          =    2979.1368 (a.u.)^3
     number of atoms/cell      =           28
     number of atomic types    =            1
     number of electrons       =       308.00
     number of Kohn-Sham states=          185
     kinetic-energy cutoff     =      50.0000  Ry
     charge density cutoff     =     250.0000  Ry
     scf convergence threshold =      1.0E-06
     mixing beta               =       0.0080
     number of iterations used =            8  plain     mixing
     energy convergence thresh.=      1.0E-04
     force convergence thresh. =      1.0E-03
     Exchange-correlation= SLA  PW   PBX  PBC
                           (   1   4   3   4   0   0   0)
     nstep                     =           50


     celldm(1)=   7.710083  celldm(2)=   0.000000  celldm(3)=   0.000000
     celldm(4)=   0.000000  celldm(5)=   0.000000  celldm(6)=   0.000000

     crystal axes: (cart. coord. in units of alat)
               a(1) = (   1.000000   0.000000   0.000000 )  
               a(2) = (   0.000000   1.414214   0.000000 )  
               a(3) = (   0.000000   0.000000   4.596194 )  

     reciprocal axes: (cart. coord. in units 2 pi/alat)
               b(1) = (  1.000000  0.000000  0.000000 )  
               b(2) = (  0.000000  0.707107  0.000000 )  
               b(3) = (  0.000000  0.000000  0.217571 )  


     PseudoPot. # 1 for Au read from file:
     ./Au.pbe-n-kjpaw_psl.1.0.0.UPF
     MD5 check sum: 4db85c736373c707a97ce4c36c2a9d23
     Pseudo is Projector augmented-wave + core cor, Zval = 11.0
     Generated using &quot;atomic&quot; code by A. Dal Corso  v.6.3
     Shape of augmentation charge: PSQ
     Using radial grid of 1279 points,  6 beta functions with: 
                l(1) =   0
                l(2) =   0
                l(3) =   1
                l(4) =   1
                l(5) =   2
                l(6) =   2
     Q(r) pseudized with 0 coefficients 


     atomic species   valence    mass     pseudopotential
        Au            11.00   196.96657     Au( 1.00)

     No symmetry found



   Cartesian axes

     site n.     atom                  positions (alat units)
         1           Au  tau(   1) = (   0.5000000   0.3535534   0.0000000  )
         2           Au  tau(   2) = (   0.5000000   1.0606602   0.0000000  )
         3           Au  tau(   3) = (   0.0000000   0.0000000   0.3535534  )
         4           Au  tau(   4) = (   0.0000000   0.7071068   0.3535534  )
         5           Au  tau(   5) = (   0.5000000   0.3535534   0.7071068  )
         6           Au  tau(   6) = (   0.5000000   1.0606602   0.7071068  )
         7           Au  tau(   7) = (   0.0000000   0.0000000   1.0606602  )
         8           Au  tau(   8) = (   0.0000000   0.7071068   1.0606602  )
         9           Au  tau(   9) = (   0.5000000   0.3535534   1.4142136  )
        10           Au  tau(  10) = (   0.5000000   1.0606602   1.4142136  )
        11           Au  tau(  11) = (   0.0000000   0.0000000   1.7677670  )
        12           Au  tau(  12) = (   0.0000000   0.7071068   1.7677670  )
        13           Au  tau(  13) = (   0.5000000   0.3535534   2.1213203  )
        14           Au  tau(  14) = (   0.5000000   1.0606602   2.1213203  )
        15           Au  tau(  15) = (   0.0000000   0.0000000   2.4748737  )
        16           Au  tau(  16) = (   0.0000000   0.7071068   2.4748737  )
        17           Au  tau(  17) = (   0.5500000   0.3535534   2.8284271  )
        18           Au  tau(  18) = (   0.5500000   1.0606602   2.8284271  )
        19           Au  tau(  19) = (   0.0500000   0.0000000   3.1819805  )
        20           Au  tau(  20) = (   0.0500000   0.7071068   3.1819805  )
        21           Au  tau(  21) = (   0.5500000   0.3535534   3.5355339  )
        22           Au  tau(  22) = (   0.5500000   1.0606602   3.5355339  )
        23           Au  tau(  23) = (   0.0500000   0.0000000   3.8890873  )
        24           Au  tau(  24) = (   0.0500000   0.7071068   3.8890873  )
        25           Au  tau(  25) = (   0.5500000   0.3535534   4.2426407  )
        26           Au  tau(  26) = (   0.5500000   1.0606602   4.2426407  )
        27           Au  tau(  27) = (   0.0500000   0.0000000   4.5961941  )
        28           Au  tau(  28) = (   0.0500000   0.7071068   4.5961941  )

     number of k points=    50  Gaussian smearing, width (Ry)=  0.2000
                       cart. coord. in units 2pi/alat
        k(    1) = (   0.0000000   0.0000000   0.0000000), wk =   0.0208333
        k(    2) = (   0.0000000   0.0589256   0.0000000), wk =   0.0416667
        k(    3) = (   0.0000000   0.1178511   0.0000000), wk =   0.0416667
        k(    4) = (   0.0000000   0.1767767   0.0000000), wk =   0.0416667
        k(    5) = (   0.0000000   0.2357023   0.0000000), wk =   0.0416667
        k(    6) = (   0.0000000   0.2946278   0.0000000), wk =   0.0416667
        k(    7) = (   0.0000000  -0.3535534   0.0000000), wk =   0.0208333
        k(    8) = (   0.1250000   0.0000000   0.0000000), wk =   0.0416667
        k(    9) = (   0.1250000   0.0589256   0.0000000), wk =   0.0416667
        k(   10) = (   0.1250000   0.1178511   0.0000000), wk =   0.0416667
        k(   11) = (   0.1250000   0.1767767   0.0000000), wk =   0.0416667
        k(   12) = (   0.1250000   0.2357023   0.0000000), wk =   0.0416667
        k(   13) = (   0.1250000   0.2946278   0.0000000), wk =   0.0416667
        k(   14) = (   0.1250000  -0.3535534   0.0000000), wk =   0.0416667
        k(   15) = (   0.1250000  -0.2946278   0.0000000), wk =   0.0416667
        k(   16) = (   0.1250000  -0.2357023   0.0000000), wk =   0.0416667
        k(   17) = (   0.1250000  -0.1767767   0.0000000), wk =   0.0416667
        k(   18) = (   0.1250000  -0.1178511   0.0000000), wk =   0.0416667
        k(   19) = (   0.1250000  -0.0589256   0.0000000), wk =   0.0416667
        k(   20) = (   0.2500000   0.0000000   0.0000000), wk =   0.0416667
        k(   21) = (   0.2500000   0.0589256   0.0000000), wk =   0.0416667
        k(   22) = (   0.2500000   0.1178511   0.0000000), wk =   0.0416667
        k(   23) = (   0.2500000   0.1767767   0.0000000), wk =   0.0416667
        k(   24) = (   0.2500000   0.2357023   0.0000000), wk =   0.0416667
        k(   25) = (   0.2500000   0.2946278   0.0000000), wk =   0.0416667
        k(   26) = (   0.2500000  -0.3535534   0.0000000), wk =   0.0416667
        k(   27) = (   0.2500000  -0.2946278   0.0000000), wk =   0.0416667
        k(   28) = (   0.2500000  -0.2357023   0.0000000), wk =   0.0416667
        k(   29) = (   0.2500000  -0.1767767   0.0000000), wk =   0.0416667
        k(   30) = (   0.2500000  -0.1178511   0.0000000), wk =   0.0416667
        k(   31) = (   0.2500000  -0.0589256   0.0000000), wk =   0.0416667
        k(   32) = (   0.3750000   0.0000000   0.0000000), wk =   0.0416667
        k(   33) = (   0.3750000   0.0589256   0.0000000), wk =   0.0416667
        k(   34) = (   0.3750000   0.1178511   0.0000000), wk =   0.0416667
        k(   35) = (   0.3750000   0.1767767   0.0000000), wk =   0.0416667
        k(   36) = (   0.3750000   0.2357023   0.0000000), wk =   0.0416667
        k(   37) = (   0.3750000   0.2946278   0.0000000), wk =   0.0416667
        k(   38) = (   0.3750000  -0.3535534   0.0000000), wk =   0.0416667
        k(   39) = (   0.3750000  -0.2946278   0.0000000), wk =   0.0416667
        k(   40) = (   0.3750000  -0.2357023   0.0000000), wk =   0.0416667
        k(   41) = (   0.3750000  -0.1767767   0.0000000), wk =   0.0416667
        k(   42) = (   0.3750000  -0.1178511   0.0000000), wk =   0.0416667
        k(   43) = (   0.3750000  -0.0589256   0.0000000), wk =   0.0416667
        k(   44) = (  -0.5000000   0.0000000   0.0000000), wk =   0.0208333
        k(   45) = (  -0.5000000   0.0589256   0.0000000), wk =   0.0416667
        k(   46) = (  -0.5000000   0.1178511   0.0000000), wk =   0.0416667
        k(   47) = (  -0.5000000   0.1767767   0.0000000), wk =   0.0416667
        k(   48) = (  -0.5000000   0.2357023   0.0000000), wk =   0.0416667
        k(   49) = (  -0.5000000   0.2946278   0.0000000), wk =   0.0416667
        k(   50) = (  -0.5000000  -0.3535534   0.0000000), wk =   0.0208333

     Dense  grid:   198971 G-vectors     FFT dimensions: (  40,  60, 180)

     Smooth grid:   142317 G-vectors     FFT dimensions: (  36,  50, 160)

     Estimated max dynamical RAM per process >     363.77 MB

     Estimated total dynamical RAM >       3.55 GB

     Initial potential from superposition of free atoms

     starting charge     307.9969, renormalised to     308.0000
     Starting wfcs are  252 randomized atomic wfcs
     Checking if some PAW data can be deallocated... 

     total cpu time spent up to now is       22.3 secs

     Self-consistent Calculation

     iteration #  1     ecut=    50.00 Ry     beta= 0.01
     Davidson diagonalization with overlap
     ethr =  1.00E-02,  avg # of iterations =  4.3

     total cpu time spent up to now is       80.2 secs

     total energy              =  -21689.64808253 Ry
     estimated scf accuracy    <      28.86925806 Ry

     iteration #  2     ecut=    50.00 Ry     beta= 0.01
     Davidson diagonalization with overlap
     ethr =  9.37E-03,  avg # of iterations =  1.0

     total cpu time spent up to now is      118.4 secs

     total energy              =  -21689.58284382 Ry
     estimated scf accuracy    <      12.94681428 Ry

     iteration #  3     ecut=    50.00 Ry     beta= 0.01
     Davidson diagonalization with overlap
     ethr =  4.20E-03,  avg # of iterations =  1.2

     total cpu time spent up to now is      158.4 secs

     total energy              =  -21689.39314759 Ry
     estimated scf accuracy    <       4.00635613 Ry

     iteration #  4     ecut=    50.00 Ry     beta= 0.01
     Davidson diagonalization with overlap
     ethr =  1.30E-03,  avg # of iterations =  4.7

     total cpu time spent up to now is      207.5 secs

     total energy              =  -21689.40019440 Ry
     estimated scf accuracy    <       1.98346524 Ry

     iteration #  5     ecut=    50.00 Ry     beta= 0.01
     Davidson diagonalization with overlap
     ethr =  6.44E-04,  avg # of iterations =  6.7

     total cpu time spent up to now is      263.3 secs

     total energy              =  -21689.47591301 Ry
     estimated scf accuracy    <       2.81124763 Ry

     iteration #  6     ecut=    50.00 Ry     beta= 0.01
     Davidson diagonalization with overlap
     ethr =  6.44E-04,  avg # of iterations =  1.4

     total cpu time spent up to now is      303.1 secs

     total energy              =  -21689.13883551 Ry
     estimated scf accuracy    <       1.59758667 Ry

     iteration #  7     ecut=    50.00 Ry     beta= 0.01
     Davidson diagonalization with overlap
     ethr =  5.19E-04,  avg # of iterations =  2.0

     total cpu time spent up to now is      347.7 secs

     total energy              =  -21689.22430348 Ry
     estimated scf accuracy    <       0.89291216 Ry

     iteration #  8     ecut=    50.00 Ry     beta= 0.01
     Davidson diagonalization with overlap
     c_bands:  1 eigenvalues not converged
     c_bands:  1 eigenvalues not converged
     ethr =  2.90E-04,  avg # of iterations =  3.7

     total cpu time spent up to now is      394.3 secs

     total energy              =  -21689.25324450 Ry
     estimated scf accuracy    <       0.91174970 Ry

     iteration #  9     ecut=    50.00 Ry     beta= 0.01
     Davidson diagonalization with overlap
     ethr =  2.90E-04,  avg # of iterations =  1.1

     total cpu time spent up to now is      433.4 secs

     total energy              =  -21689.19254349 Ry
     estimated scf accuracy    <       0.68829025 Ry

     iteration # 10     ecut=    50.00 Ry     beta= 0.01
     Davidson diagonalization with overlap
     ethr =  2.23E-04,  avg # of iterations =  2.5

     total cpu time spent up to now is      475.2 secs

     total energy              =  -21689.19742427 Ry
     estimated scf accuracy    <       0.26426798 Ry

     iteration # 11     ecut=    50.00 Ry     beta= 0.01
     Davidson diagonalization with overlap
     c_bands:  2 eigenvalues not converged
     c_bands:  2 eigenvalues not converged
     c_bands:  1 eigenvalues not converged
     ethr =  8.58E-05,  avg # of iterations =  9.6

     total cpu time spent up to now is      547.8 secs

     total energy              =  -21689.21572080 Ry
     estimated scf accuracy    <       0.30985727 Ry

     iteration # 12     ecut=    50.00 Ry     beta= 0.01
     Davidson diagonalization with overlap
     ethr =  8.58E-05,  avg # of iterations =  1.7

     total cpu time spent up to now is      588.4 secs

     total energy              =  -21689.25563230 Ry
     estimated scf accuracy    <       0.07369572 Ry

     iteration # 13     ecut=    50.00 Ry     beta= 0.01
     Davidson diagonalization with overlap
     c_bands:  1 eigenvalues not converged
     c_bands:  1 eigenvalues not converged
     c_bands:  1 eigenvalues not converged
     c_bands:  2 eigenvalues not converged
     c_bands:  1 eigenvalues not converged
     ethr =  2.39E-05,  avg # of iterations = 10.9

     total cpu time spent up to now is      656.7 secs

     total energy              =  -21689.19805446 Ry
     estimated scf accuracy    <       0.23966058 Ry

     iteration # 14     ecut=    50.00 Ry     beta= 0.01
     Davidson diagonalization with overlap
     ethr =  2.39E-05,  avg # of iterations =  5.3

     total cpu time spent up to now is      721.9 secs

     total energy              =  -21689.22019388 Ry
     estimated scf accuracy    <       0.07329821 Ry

     iteration # 15     ecut=    50.00 Ry     beta= 0.01
     Davidson diagonalization with overlap
     ethr =  2.38E-05,  avg # of iterations =  2.0

     total cpu time spent up to now is      766.3 secs

     total energy              =  -21689.22340765 Ry
     estimated scf accuracy    <       0.02609901 Ry

     iteration # 16     ecut=    50.00 Ry     beta= 0.01
     Davidson diagonalization with overlap
     c_bands:  1 eigenvalues not converged
     ethr =  8.47E-06,  avg # of iterations =  2.6

     total cpu time spent up to now is      811.4 secs

     total energy              =  -21689.22365599 Ry
     estimated scf accuracy    <       0.01937445 Ry

     iteration # 17     ecut=    50.00 Ry     beta= 0.01
     Davidson diagonalization with overlap
     ethr =  6.29E-06,  avg # of iterations =  2.0

     total cpu time spent up to now is      857.0 secs

     total energy              =  -21689.22196632 Ry
     estimated scf accuracy    <       0.01915645 Ry

     iteration # 18     ecut=    50.00 Ry     beta= 0.01
     Davidson diagonalization with overlap
     ethr =  6.22E-06,  avg # of iterations =  4.0

     total cpu time spent up to now is      921.2 secs

     total energy              =  -21689.22668759 Ry
     estimated scf accuracy    <       0.01458031 Ry

     iteration # 19     ecut=    50.00 Ry     beta= 0.01
     Davidson diagonalization with overlap
     ethr =  4.73E-06,  avg # of iterations =  1.1

     total cpu time spent up to now is      960.3 secs

     total energy              =  -21689.22797136 Ry
     estimated scf accuracy    <       0.00280549 Ry

     iteration # 20     ecut=    50.00 Ry     beta= 0.01
     Davidson diagonalization with overlap
     c_bands:  1 eigenvalues not converged
     c_bands:  3 eigenvalues not converged
     c_bands:  3 eigenvalues not converged
     c_bands:  3 eigenvalues not converged
     ethr =  9.11E-07,  avg # of iterations =  5.2

     total cpu time spent up to now is     1009.1 secs

     total energy              =  -21689.22800271 Ry
     estimated scf accuracy    <       0.00419192 Ry

     iteration # 21     ecut=    50.00 Ry     beta= 0.01
     Davidson diagonalization with overlap
     c_bands:  1 eigenvalues not converged
     c_bands:  1 eigenvalues not converged
     c_bands:  1 eigenvalues not converged
     ethr =  9.11E-07,  avg # of iterations =  5.3

     total cpu time spent up to now is     1057.1 secs

     total energy              =  -21689.22776120 Ry
     estimated scf accuracy    <       0.00295059 Ry

     iteration # 22     ecut=    50.00 Ry     beta= 0.01
     Davidson diagonalization with overlap
     ethr =  9.11E-07,  avg # of iterations =  1.1

     total cpu time spent up to now is     1095.5 secs

     total energy              =  -21689.22750168 Ry
     estimated scf accuracy    <       0.00212138 Ry

     iteration # 23     ecut=    50.00 Ry     beta= 0.01
     Davidson diagonalization with overlap
     ethr =  6.89E-07,  avg # of iterations =  1.0

     total cpu time spent up to now is     1133.7 secs

     total energy              =  -21689.22768629 Ry
     estimated scf accuracy    <       0.00148503 Ry

     iteration # 24     ecut=    50.00 Ry     beta= 0.01
     Davidson diagonalization with overlap
     ethr =  4.82E-07,  avg # of iterations =  2.3

     total cpu time spent up to now is     1188.3 secs

     total energy              =  -21689.22610451 Ry
     estimated scf accuracy    <       0.00256825 Ry

     iteration # 25     ecut=    50.00 Ry     beta= 0.01
     Davidson diagonalization with overlap
     ethr =  4.82E-07,  avg # of iterations =  3.5

     total cpu time spent up to now is     1252.9 secs

     total energy              =  -21689.22694575 Ry
     estimated scf accuracy    <       0.00031478 Ry

     iteration # 26     ecut=    50.00 Ry     beta= 0.01
     Davidson diagonalization with overlap
     ethr =  1.02E-07,  avg # of iterations =  2.7

     total cpu time spent up to now is     1298.5 secs

     total energy              =  -21689.22701612 Ry
     estimated scf accuracy    <       0.00018551 Ry

     iteration # 27     ecut=    50.00 Ry     beta= 0.01
     Davidson diagonalization with overlap
     ethr =  6.02E-08,  avg # of iterations =  2.3

     total cpu time spent up to now is     1345.6 secs

     total energy              =  -21689.22716788 Ry
     estimated scf accuracy    <       0.00029708 Ry

     iteration # 28     ecut=    50.00 Ry     beta= 0.01
     Davidson diagonalization with overlap
     ethr =  6.02E-08,  avg # of iterations =  3.7

     total cpu time spent up to now is     1413.0 secs

     total energy              =  -21689.22724676 Ry
     estimated scf accuracy    <       0.00074815 Ry

     iteration # 29     ecut=    50.00 Ry     beta= 0.01
     Davidson diagonalization with overlap
     ethr =  6.02E-08,  avg # of iterations =  1.0

     total cpu time spent up to now is     1451.0 secs

     total energy              =  -21689.22724212 Ry
     estimated scf accuracy    <       0.00078695 Ry

     iteration # 30     ecut=    50.00 Ry     beta= 0.01
     Davidson diagonalization with overlap
     ethr =  6.02E-08,  avg # of iterations =  1.0

     total cpu time spent up to now is     1489.3 secs

     total energy              =  -21689.22703275 Ry
     estimated scf accuracy    <       0.00073347 Ry

     iteration # 31     ecut=    50.00 Ry     beta= 0.01
     Davidson diagonalization with overlap
     c_bands:  1 eigenvalues not converged
     ethr =  6.02E-08,  avg # of iterations =  2.4

     total cpu time spent up to now is     1547.1 secs

     total energy              =  -21689.22707798 Ry
     estimated scf accuracy    <       0.00024412 Ry

     iteration # 32     ecut=    50.00 Ry     beta= 0.01
     Davidson diagonalization with overlap
     ethr =  6.02E-08,  avg # of iterations =  1.6

     total cpu time spent up to now is     1589.0 secs

     total energy              =  -21689.22710883 Ry
     estimated scf accuracy    <       0.00016002 Ry

     iteration # 33     ecut=    50.00 Ry     beta= 0.01
     Davidson diagonalization with overlap
     ethr =  5.20E-08,  avg # of iterations =  1.0

     total cpu time spent up to now is     1627.2 secs

     total energy              =  -21689.22712935 Ry
     estimated scf accuracy    <       0.00015721 Ry

     iteration # 34     ecut=    50.00 Ry     beta= 0.01
     Davidson diagonalization with overlap
     ethr =  5.10E-08,  avg # of iterations =  1.0

     total cpu time spent up to now is     1665.6 secs

     total energy              =  -21689.22714570 Ry
     estimated scf accuracy    <       0.00014872 Ry

     iteration # 35     ecut=    50.00 Ry     beta= 0.01
     Davidson diagonalization with overlap
     ethr =  4.83E-08,  avg # of iterations =  1.0

     total cpu time spent up to now is     1704.1 secs

     total energy              =  -21689.22716859 Ry
     estimated scf accuracy    <       0.00012530 Ry

     iteration # 36     ecut=    50.00 Ry     beta= 0.01
     Davidson diagonalization with overlap
     ethr =  4.07E-08,  avg # of iterations =  1.0

     total cpu time spent up to now is     1742.3 secs

     total energy              =  -21689.22716310 Ry
     estimated scf accuracy    <       0.00011961 Ry

     iteration # 37     ecut=    50.00 Ry     beta= 0.01
     Davidson diagonalization with overlap
     ethr =  3.88E-08,  avg # of iterations =  2.0

     total cpu time spent up to now is     1786.4 secs

     total energy              =  -21689.22724743 Ry
     estimated scf accuracy    <       0.00012064 Ry

     iteration # 38     ecut=    50.00 Ry     beta= 0.01
     Davidson diagonalization with overlap
     ethr =  3.88E-08,  avg # of iterations =  3.7

     total cpu time spent up to now is     1852.6 secs

     total energy              =  -21689.22715306 Ry
     estimated scf accuracy    <       0.00046409 Ry

     iteration # 39     ecut=    50.00 Ry     beta= 0.01
     Davidson diagonalization with overlap
     ethr =  3.88E-08,  avg # of iterations =  2.1

     total cpu time spent up to now is     1906.3 secs

     total energy              =  -21689.22717328 Ry
     estimated scf accuracy    <       0.00012990 Ry

     iteration # 40     ecut=    50.00 Ry     beta= 0.01
     Davidson diagonalization with overlap
     ethr =  3.88E-08,  avg # of iterations =  2.0

     total cpu time spent up to now is     1956.0 secs

     total energy              =  -21689.22721983 Ry
     estimated scf accuracy    <       0.00007510 Ry

     iteration # 41     ecut=    50.00 Ry     beta= 0.01
     Davidson diagonalization with overlap
     ethr =  2.44E-08,  avg # of iterations =  3.0

     total cpu time spent up to now is     2018.6 secs

     total energy              =  -21689.22730916 Ry
     estimated scf accuracy    <       0.00022100 Ry

     iteration # 42     ecut=    50.00 Ry     beta= 0.01
     Davidson diagonalization with overlap
     ethr =  2.44E-08,  avg # of iterations =  2.0

     total cpu time spent up to now is     2066.8 secs

     total energy              =  -21689.22714607 Ry
     estimated scf accuracy    <       0.00033950 Ry

     iteration # 43     ecut=    50.00 Ry     beta= 0.01
     Davidson diagonalization with overlap
     ethr =  2.44E-08,  avg # of iterations =  3.2

     total cpu time spent up to now is     2130.3 secs

     total energy              =  -21689.22720159 Ry
     estimated scf accuracy    <       0.00002764 Ry

     iteration # 44     ecut=    50.00 Ry     beta= 0.01
     Davidson diagonalization with overlap
     ethr =  8.97E-09,  avg # of iterations =  5.0

     total cpu time spent up to now is     2220.4 secs

     total energy              =  -21689.22721059 Ry
     estimated scf accuracy    <       0.00003672 Ry

     iteration # 45     ecut=    50.00 Ry     beta= 0.01
     Davidson diagonalization with overlap
     ethr =  8.97E-09,  avg # of iterations =  3.2

     total cpu time spent up to now is     2286.4 secs

     total energy              =  -21689.22724451 Ry
     estimated scf accuracy    <       0.00002557 Ry

     iteration # 46     ecut=    50.00 Ry     beta= 0.01
     Davidson diagonalization with overlap
     ethr =  8.30E-09,  avg # of iterations =  1.8

     total cpu time spent up to now is     2329.4 secs

     total energy              =  -21689.22723395 Ry
     estimated scf accuracy    <       0.00003850 Ry

     iteration # 47     ecut=    50.00 Ry     beta= 0.01
     Davidson diagonalization with overlap
     ethr =  8.30E-09,  avg # of iterations =  2.0

     total cpu time spent up to now is     2380.3 secs

     total energy              =  -21689.22725072 Ry
     estimated scf accuracy    <       0.00000478 Ry

     iteration # 48     ecut=    50.00 Ry     beta= 0.01
     Davidson diagonalization with overlap
     ethr =  1.55E-09,  avg # of iterations =  1.2

     total cpu time spent up to now is     2420.1 secs

     total energy              =  -21689.22726249 Ry
     estimated scf accuracy    <       0.00000403 Ry

     iteration # 49     ecut=    50.00 Ry     beta= 0.01
     Davidson diagonalization with overlap
     ethr =  1.31E-09,  avg # of iterations =  1.6

     total cpu time spent up to now is     2461.8 secs

     total energy              =  -21689.22727278 Ry
     estimated scf accuracy    <       0.00000197 Ry

     iteration # 50     ecut=    50.00 Ry     beta= 0.01
     Davidson diagonalization with overlap
     ethr =  6.39E-10,  avg # of iterations =  4.3

     total cpu time spent up to now is     2535.3 secs

     total energy              =  -21689.22728751 Ry
     estimated scf accuracy    <       0.00000213 Ry

     iteration # 51     ecut=    50.00 Ry     beta= 0.01
     Davidson diagonalization with overlap
     ethr =  6.39E-10,  avg # of iterations =  2.0

     total cpu time spent up to now is     2583.0 secs

     End of self-consistent calculation

          k = 0.0000 0.0000 0.0000 ( 17807 PWs)   bands (ev):

    -0.0577   0.2235   0.2236   0.2840   0.9294   1.0307   1.0307   1.5702
     1.7261   1.9947   2.4940   2.4941   3.6272   4.5107   5.2073   5.2074
     5.9642   6.4755   6.4756   6.7819   8.4077   8.4326   9.1209   9.6948
     9.7318  10.3131  10.3830  10.3830  10.8488  10.9531  10.9540  11.0554
    11.0820  11.1661  11.1882  11.2248  11.2568  11.2913  11.3646  11.3810
    11.4616  11.4815  11.5029  11.5076  11.5251  11.6507  11.6694  11.6758
    11.7991  11.8047  11.8088  11.8719  12.0000  12.0152  12.0360  12.0408
    12.0922  12.1580  12.2332  12.2460  12.3871  12.4103  12.4415  12.6095
    12.6170  12.6297  12.6413  12.7055  12.7386  12.8079  12.8634  12.8847
    13.0102  13.0167  13.0195  13.1472  13.1710  13.2004  13.2921  13.3305
    13.3694  13.4074  13.4408  13.5542  13.6246  13.6380  13.7655  13.8373
    13.9382  13.9489  14.1135  14.1695  14.2003  14.2097  14.2239  14.2888
    14.3527  14.3987  14.4043  14.4665  14.4997  14.5527  14.6210  14.6560
    14.6612  14.7086  14.7626  14.7665  14.7755  14.7797  14.8659  14.8820
    15.0176  15.0310  15.0568  15.1271  15.1502  15.1847  15.1892  15.3607
    15.4369  15.4384  15.4991  15.5023  15.5551  15.6575  15.7180  15.7791
    15.7833  15.8102  15.8324  15.8730  15.9089  15.9370  16.0594  16.1656
    16.1708  16.2161  16.2197  16.2655  16.4337  16.8111  16.8111  16.8846
    16.9344  16.9492  17.0184  17.0188  17.5550  17.5551  17.5942  17.7973
    17.7998  17.9710  17.9755  18.0249  18.3409  18.3410  18.8149  18.8167
    19.8017  19.9214  20.1954  20.5397  21.3419  21.4434  21.4434  22.3822
    22.6717  23.0026  23.0184  23.0188  23.2862  23.6078  24.1446  24.6886
    24.6914  24.8117  24.8152  25.3128  25.3823  25.3825  25.4133  25.8318
    26.0452

          k = 0.0000 0.0589 0.0000 ( 17795 PWs)   bands (ev):

    -0.0514   0.2202   0.2375   0.3074   0.9202   0.9740   1.0921   1.5361
     1.7252   2.0375   2.3799   2.5828   3.6489   4.5086   5.0069   5.4472
     5.9843   6.2526   6.6284   6.8062   8.4449   8.4725   9.0399   9.7286
     9.7679  10.3442  10.3656  10.3696  10.8785  10.8840  10.9482  11.0294
    11.0844  11.1067  11.1424  11.2295  11.2749  11.3120  11.3443  11.3760
    11.4850  11.4904  11.5026  11.5184  11.5316  11.5538  11.6587  11.7016
    11.7439  11.7652  11.8203  11.8340  11.9125  12.1013  12.1078  12.1224
    12.1603  12.1788  12.2367  12.3278  12.3597  12.4709  12.5350  12.6027
    12.6178  12.6436  12.6677  12.6818  12.7038  12.7743  12.7764  12.8912
    12.9877  13.0762  13.1287  13.1460  13.1542  13.1569  13.2289  13.3096
    13.3915  13.3981  13.4269  13.5554  13.5894  13.6426  13.7701  13.8254
    13.8930  13.9692  14.1341  14.1912  14.2127  14.2186  14.2318  14.3177
    14.3615  14.3935  14.4059  14.5027  14.5475  14.5875  14.6064  14.6487
    14.6520  14.6750  14.7313  14.7691  14.7947  14.8017  14.8398  14.8721
    14.9851  15.0476  15.0818  15.0980  15.1340  15.1732  15.1768  15.3637
    15.4149  15.4561  15.4862  15.4968  15.5578  15.6486  15.6786  15.7194
    15.7630  15.7987  15.8121  15.8578  15.9099  15.9436  16.0499  16.1090
    16.1659  16.1664  16.2012  16.2228  16.4299  16.7090  16.7773  16.8445
    16.8803  16.9141  16.9502  17.1003  17.1265  17.2465  17.3292  17.3678
    17.6084  18.0137  18.1527  18.2799  18.5469  18.6979  19.2529  19.3109
    19.8429  19.9484  20.2854  20.5579  21.3681  21.3801  21.7677  22.4022
    22.7045  22.7701  23.0294  23.2839  23.4146  23.5972  24.1535  24.1663
    24.1784  24.5823  25.3150  25.4275  25.5226  25.5526  25.7387  25.8328
    25.9227

          k = 0.0000 0.1179 0.0000 ( 17803 PWs)   bands (ev):

    -0.0332   0.2206   0.2655   0.3731   0.8959   0.9320   1.1491   1.4567
     1.7225   2.1405   2.2440   2.6445   3.7161   4.5034   4.8446   5.7264
     5.9658   6.0432   6.7122   6.8795   8.5551   8.5910   8.8164   9.8274
     9.8737  10.0016  10.3714  10.4346  10.7131  10.8935  10.9834  11.0587
    11.0900  11.1637  11.1744  11.2395  11.3033  11.3448  11.3772  11.3885
    11.4434  11.4783  11.5485  11.5501  11.5567  11.5804  11.5859  11.6307
    11.6494  11.7751  11.8217  11.8607  12.0181  12.1184  12.1319  12.1382
    12.2096  12.2319  12.3221  12.3790  12.4395  12.5060  12.5339  12.5380
    12.5688  12.5909  12.6039  12.6199  12.6981  12.7072  12.8836  12.9370
    12.9834  13.0317  13.0804  13.0970  13.1873  13.2719  13.2877  13.2993
    13.3100  13.3573  13.4604  13.5327  13.6076  13.6577  13.7239  13.8337
    13.9156  13.9213  14.1681  14.1829  14.1938  14.2631  14.2960  14.3661
    14.4187  14.4279  14.4550  14.4595  14.4842  14.5338  14.5995  14.6157
    14.6465  14.6499  14.6721  14.7871  14.8285  14.8392  14.8615  14.8865
    14.9315  15.0297  15.0430  15.0730  15.1796  15.2118  15.2397  15.2940
    15.3596  15.3841  15.4515  15.5142  15.5353  15.5528  15.6285  15.6813
    15.7141  15.7371  15.7450  15.7724  15.8930  15.9019  15.9442  15.9639
    16.0639  16.1952  16.1983  16.2165  16.4285  16.4509  16.5481  16.5789
    16.5977  16.6326  16.8152  16.8336  16.8497  16.8711  16.9700  17.4682
    17.6420  17.8096  18.2392  18.4620  19.2169  19.3993  19.9591  20.0168
    20.0680  20.0877  20.5162  20.6185  21.3554  21.5168  22.1903  22.4635
    22.7903  22.8388  23.0768  23.3013  23.4176  23.5588  23.7747  23.7907
    24.2370  24.4039  25.1281  25.1824  25.3473  25.3606  25.4682  25.6318
    25.8327

          k = 0.0000 0.1768 0.0000 ( 17795 PWs)   bands (ev):

    -0.0040   0.2159   0.3082   0.4645   0.8699   0.9151   1.1916   1.3585
     1.7189   2.0940   2.2691   2.6785   3.8345   4.4976   4.7185   5.6295
     6.0428   6.1361   6.7334   7.0028   8.4917   8.7347   8.7869   9.3876
     9.9828  10.0416  10.3996  10.5743  10.6900  10.7965  11.0175  11.1245
    11.1255  11.1325  11.1862  11.2365  11.2691  11.2705  11.3922  11.4281
    11.4585  11.4981  11.5108  11.6194  11.6384  11.6385  11.6940  11.7121
    11.7217  11.8585  11.8972  11.9247  12.0801  12.0864  12.1037  12.1798
    12.2570  12.2855  12.2994  12.4128  12.4197  12.4253  12.4807  12.5033
    12.5073  12.5557  12.5796  12.6113  12.6504  12.6861  12.7973  12.8882
    12.9905  13.0163  13.0637  13.1355  13.1535  13.1946  13.2421  13.4162
    13.4354  13.4530  13.4772  13.5289  13.6744  13.6984  13.7555  13.7624
    13.7697  14.0387  14.1505  14.1524  14.1843  14.2473  14.2486  14.3186
    14.3635  14.4100  14.4155  14.4549  14.4773  14.4851  14.5660  14.6333
    14.6414  14.6700  14.7272  14.7380  14.7739  14.8606  14.8628  14.8865
    14.8915  14.9457  14.9987  15.0751  15.1431  15.1699  15.1833  15.1992
    15.2849  15.3229  15.4500  15.4793  15.5316  15.5394  15.5420  15.5609
    15.6292  15.6387  15.6681  15.7146  15.7860  15.8650  15.8945  15.9130
    15.9702  16.0377  16.0960  16.1064  16.1231  16.2060  16.2163  16.2167
    16.4097  16.4485  16.7507  16.7596  16.7858  16.8660  17.0055  17.5813
    17.6269  17.6873  18.1893  18.8648  19.9699  20.0872  20.1301  20.1412
    20.5036  20.7845  20.8682  21.0269  21.4094  21.7912  22.2853  22.5657
    22.7885  22.8760  22.9115  23.0717  23.3194  23.5653  23.9098  23.9406
    24.3438  24.5220  24.7727  24.7749  24.9693  25.3287  25.3388  25.5167
    25.5629

          k = 0.0000 0.2357 0.0000 ( 17822 PWs)   bands (ev):

     0.0341   0.1984   0.3638   0.5386   0.8784   0.9311   1.2056   1.2541
     1.7169   1.9458   2.3998   2.6837   4.0117   4.4954   4.6252   5.2651
     6.2541   6.3906   6.7033   7.1734   8.1204   8.8013   8.9771   9.0516
    10.1795  10.2584  10.3039  10.5363  10.5997  10.7378  10.9328  11.0009
    11.1238  11.2201  11.2280  11.2472  11.2844  11.3818  11.3918  11.5181
    11.5622  11.6031  11.6530  11.6993  11.7200  11.7273  11.7287  11.8070
    11.8397  11.8862  11.9735  12.0190  12.0209  12.0567  12.0862  12.1363
    12.2281  12.2341  12.2429  12.3603  12.3731  12.3953  12.4101  12.4153
    12.5278  12.5844  12.6053  12.6426  12.6505  12.7826  12.7970  12.8341
    12.8443  12.8927  13.1564  13.1812  13.2185  13.2736  13.2899  13.4244
    13.4810  13.5116  13.5252  13.5932  13.5967  13.7170  13.7324  13.7738
    13.8372  14.0429  14.0543  14.0719  14.0854  14.1983  14.2090  14.2474
    14.2730  14.2753  14.3143  14.3786  14.4679  14.4898  14.5810  14.5918
    14.6328  14.6488  14.7118  14.7257  14.7677  14.7723  14.8307  14.8393
    14.8926  14.9257  14.9427  14.9774  15.0116  15.0247  15.0736  15.1123
    15.1378  15.1457  15.2193  15.2430  15.3405  15.4580  15.5092  15.5672
    15.5972  15.5986  15.6295  15.6363  15.6577  15.6980  15.8262  15.8552
    15.8994  15.9212  15.9295  16.1735  16.1850  16.1973  16.2032  16.2494
    16.3730  16.4674  16.6574  16.7162  16.7837  16.8731  17.0577  17.4735
    17.6929  17.7378  18.2481  19.3398  20.0263  20.3708  20.4528  20.7235
    20.8186  20.9318  21.3973  21.6066  21.9659  21.9733  22.1986  22.3651
    22.7008  22.8140  22.8195  23.0996  23.1123  23.7842  23.8760  24.3422
    24.4693  24.5806  24.6403  24.6968  24.7463  24.8856  25.2068  25.2287
    25.2637

          k = 0.0000 0.2946 0.0000 ( 17818 PWs)   bands (ev):

     0.0782   0.1664   0.4281   0.5419   0.9622   0.9804   1.1510   1.1720
     1.7232   1.8247   2.5148   2.6588   4.2523   4.5017   4.5611   4.8977
     6.3840   6.6098   6.7835   7.3329   7.8022   8.2962   9.2729   9.3786
     9.9662  10.1703  10.3959  10.5038  10.6098  10.8270  10.8285  10.9538
    11.1054  11.1824  11.2797  11.3314  11.4050  11.4733  11.5120  11.5178
    11.6372  11.6792  11.7230  11.7673  11.7841  11.7922  11.8415  11.8667
    11.8839  11.9073  11.9938  11.9990  12.0101  12.0437  12.0608  12.0919
    12.1281  12.2005  12.2007  12.2599  12.3040  12.3356  12.4063  12.4208
    12.5240  12.5670  12.5889  12.6279  12.6553  12.7792  12.7898  12.9396
    13.0174  13.0557  13.0834  13.2330  13.2435  13.3049  13.3102  13.4391
    13.5087  13.5761  13.6103  13.6652  13.6943  13.7374  13.7498  13.7672
    13.8155  13.9213  13.9313  14.0060  14.0747  14.0838  14.1288  14.1509
    14.2122  14.2253  14.2343  14.3539  14.3886  14.4095  14.4297  14.4706
    14.4783  14.5061  14.5749  14.6213  14.6909  14.7163  14.7454  14.7794
    14.8393  14.8456  14.8773  14.9088  14.9589  15.0077  15.0665  15.0728
    15.1024  15.1249  15.1838  15.2730  15.3084  15.3180  15.3601  15.3608
    15.3951  15.5064  15.5194  15.6237  15.6549  15.6734  15.7431  15.8853
    15.9309  15.9933  16.1318  16.1617  16.1870  16.2124  16.2417  16.3852
    16.4007  16.4626  16.5595  16.6111  16.8643  16.8893  17.1294  17.3393
    17.7843  17.7941  18.5575  19.6589  19.8918  20.5392  20.6394  20.8041
    21.1083  21.2320  21.4995  21.7183  22.2841  22.5499  22.5700  22.5935
    22.7073  22.7738  22.8184  22.9047  23.1343  23.3543  23.8463  24.1380
    24.1691  24.4309  24.6780  24.8258  24.8892  25.0756  25.1185  25.2087
    25.2736

          k = 0.0000-0.3536 0.0000 ( 17844 PWs)   bands (ev):

     0.1242   0.1243   0.4930   0.4930   1.0568   1.0568   1.0813   1.0814
     1.7523   1.7524   2.6025   2.6026   4.5198   4.5199   4.5543   4.5544
     6.5097   6.5098   7.1489   7.1489   7.9048   7.9048   9.6088   9.6088
     9.7566   9.7566  10.6000  10.6001  10.7489  10.7490  10.7572  10.7573
    11.2206  11.2206  11.3319  11.3319  11.4524  11.4524  11.5202  11.5202
    11.6641  11.6641  11.7897  11.7897  11.8648  11.8648  11.8841  11.8841
    11.9035  11.9035  11.9230  11.9231  12.0183  12.0183  12.1078  12.1079
    12.1427  12.1428  12.1950  12.1950  12.3426  12.3426  12.3757  12.3757
    12.4287  12.4287  12.6877  12.6877  12.7762  12.7762  12.8245  12.8246
    13.1361  13.1361  13.1399  13.1399  13.3215  13.3215  13.3786  13.3786
    13.5853  13.5853  13.6262  13.6262  13.7813  13.7813  13.8641  13.8641
    13.8713  13.8713  13.9186  13.9186  13.9618  13.9618  14.1219  14.1219
    14.1281  14.1281  14.2260  14.2260  14.2504  14.2504  14.3898  14.3899
    14.4247  14.4247  14.6014  14.6014  14.6646  14.6646  14.7498  14.7499
    14.7764  14.7764  14.9428  14.9428  14.9661  14.9662  15.1163  15.1163
    15.1518  15.1518  15.2035  15.2036  15.2374  15.2374  15.3650  15.3650
    15.3782  15.3782  15.5223  15.5223  15.6353  15.6354  15.8620  15.8620
    15.9456  15.9456  16.1842  16.1842  16.2115  16.2115  16.3795  16.3795
    16.4426  16.4426  16.5078  16.5078  16.8971  16.8971  17.2235  17.2235
    17.8127  17.8128  19.1074  19.1074  20.5183  20.5183  20.6744  20.6745
    20.9253  20.9254  22.1609  22.1609  22.1900  22.1900  22.7611  22.7611
    23.0001  23.0001  23.0046  23.0047  23.0683  23.0684  23.4632  23.4632
    24.5756  24.5756  24.7116  24.7116  24.9356  24.9356  25.1275  25.1276
    25.3698

          k = 0.1250 0.0000 0.0000 ( 17777 PWs)   bands (ev):

    -0.0191   0.1646   0.1646   0.3967   0.9460   1.0783   1.0783   1.5580
     1.6307   2.0357   2.4501   2.4501   3.7278   4.6494   4.9807   4.9807
     6.0619   6.7147   6.8286   6.8287   8.5609   8.6120   8.9653   9.7432
     9.8522  10.3008  10.4215  10.4215  10.7800  11.0610  11.0616  11.0880
    11.1151  11.2231  11.2277  11.2333  11.2913  11.3061  11.3892  11.4204
    11.4262  11.4373  11.4984  11.5115  11.5259  11.6148  11.6301  11.6390
    11.6651  11.6747  11.7040  11.7270  11.7424  11.7609  12.0634  12.0641
    12.0703  12.0962  12.4467  12.4476  12.5034  12.5590  12.6387  12.6407
    12.8034  12.8453  12.9349  12.9370  12.9875  12.9901  12.9931  13.0449
    13.0954  13.1248  13.2267  13.2706  13.2813  13.3031  13.3054  13.3566
    13.3592  13.4247  13.4749  13.5347  13.5590  13.6353  13.6701  13.7930
    13.7932  13.8404  13.8463  13.9382  13.9496  13.9511  14.1194  14.1619
    14.2247  14.2302  14.2989  14.3708  14.3725  14.4550  14.5810  14.6509
    14.6695  14.6757  14.6963  14.7101  14.7251  14.7640  14.8048  14.9382
    14.9572  14.9621  14.9687  15.1027  15.1243  15.1713  15.1876  15.2953
    15.3043  15.3599  15.4748  15.5408  15.5511  15.5939  15.6203  15.6570
    15.6999  15.7055  15.7445  15.8500  15.9376  15.9426  16.0389  16.1137
    16.1164  16.1775  16.1968  16.1979  16.3294  16.7199  16.7202  16.8856
    16.9327  17.0028  17.0307  17.0309  17.0354  17.6283  17.7560  17.7565
    17.9325  17.9338  18.2128  18.2136  18.7091  18.7118  18.9258  19.4126
    19.4152  19.6839  19.9896  20.0337  21.1690  21.1692  21.2153  21.5542
    22.1046  22.3181  22.3181  23.5014  23.5254  23.8213  23.9424  24.4518
    24.4568  24.5957  24.6023  24.9998  25.0444  25.0501  25.1570  25.1689
    25.3403

          k = 0.1250 0.0589 0.0000 ( 17791 PWs)   bands (ev):

    -0.0142   0.1468   0.1961   0.4165   0.9377   1.0262   1.1306   1.5040
     1.6617   2.0678   2.3454   2.5357   3.7494   4.6427   4.8403   5.1413
     6.0863   6.6408   6.7404   6.9640   8.5977   8.6506   8.8774   9.7798
     9.8880  10.3332  10.3703  10.4469  10.8168  10.9063  11.0391  11.1114
    11.1148  11.1442  11.2027  11.2544  11.2833  11.3235  11.3962  11.4137
    11.4201  11.4463  11.4517  11.5018  11.5460  11.5523  11.6421  11.6557
    11.6781  11.7230  11.7456  11.7512  11.7811  11.8337  11.8870  12.0784
    12.1097  12.3191  12.4117  12.5110  12.5191  12.5576  12.6005  12.6509
    12.7902  12.8265  12.9357  12.9573  12.9735  13.0105  13.0170  13.0590
    13.0833  13.0833  13.1965  13.2060  13.2194  13.2515  13.3425  13.3648
    13.3844  13.4081  13.4784  13.5384  13.5636  13.6401  13.6754  13.7773
    13.8044  13.8464  13.8675  13.8986  13.9894  13.9988  14.1520  14.1815
    14.1840  14.2425  14.2890  14.3239  14.4495  14.4592  14.5507  14.6173
    14.6590  14.6728  14.6775  14.7251  14.7254  14.7728  14.8314  14.8863
    14.9134  14.9403  15.0155  15.1142  15.1152  15.1822  15.2361  15.2689
    15.3149  15.3584  15.4587  15.5003  15.5297  15.5997  15.6119  15.6492
    15.7047  15.7050  15.7455  15.8017  15.8908  15.9487  16.0001  16.0814
    16.0980  16.1010  16.1368  16.1816  16.3499  16.5754  16.7898  16.8187
    16.8807  16.9268  16.9874  17.1175  17.1687  17.1827  17.3412  17.5716
    17.6661  17.8151  18.5024  18.5373  18.9257  18.9694  19.0085  19.6036
    19.7216  19.7408  20.0312  20.0682  20.8874  21.2401  21.5647  21.6000
    22.1191  22.2000  22.7688  23.5081  23.5609  23.8131  23.8349  23.9232
    23.9570  24.2716  24.3952  24.7047  24.9537  24.9905  25.2653  25.3752
    25.5489

          k = 0.1250 0.1179 0.0000 ( 17815 PWs)   bands (ev):

     0.0001   0.1398   0.2417   0.4711   0.9165   0.9820   1.1755   1.4124
     1.6930   2.1531   2.2260   2.5987   3.8162   4.6247   4.7273   5.2945
     6.1583   6.4370   6.8166   7.0368   8.6356   8.7073   8.7679   9.8854
     9.9931  10.0159  10.4260  10.4296  10.6870  10.9208  10.9425  11.1539
    11.1828  11.1877  11.2109  11.2227  11.3096  11.3259  11.3529  11.3999
    11.4615  11.4788  11.5035  11.5252  11.5400  11.5565  11.6217  11.6807
    11.7731  11.7964  11.8092  11.8163  11.8634  11.9283  11.9618  12.1147
    12.1394  12.3151  12.4148  12.4557  12.4998  12.5268  12.5598  12.6086
    12.7163  12.7831  12.8772  12.9196  12.9330  12.9585  13.0070  13.0226
    13.0529  13.1165  13.1207  13.2159  13.2234  13.2962  13.3050  13.3459
    13.4252  13.4534  13.4928  13.5288  13.5672  13.6318  13.7509  13.7546
    13.7877  13.7973  13.8465  13.9424  14.0067  14.0819  14.1247  14.1276
    14.2168  14.2262  14.2844  14.3421  14.4861  14.5139  14.5550  14.5665
    14.6070  14.6105  14.6935  14.7092  14.7207  14.7775  14.8265  14.8559
    14.8928  15.0065  15.0516  15.0834  15.1787  15.1968  15.2025  15.2533
    15.2816  15.3301  15.3499  15.4750  15.4924  15.5452  15.5785  15.6031
    15.6771  15.7084  15.7286  15.7296  15.8150  15.8637  15.9783  15.9811
    16.0434  16.0564  16.0722  16.0840  16.3855  16.3872  16.5415  16.5800
    16.6668  16.8384  16.8429  16.9546  16.9599  16.9816  17.3207  17.3562
    17.4232  17.7951  18.4580  18.6925  19.2487  19.3520  19.6014  19.9009
    20.1464  20.1755  20.3065  20.4039  20.6157  21.3111  21.5922  22.0748
    22.1348  22.3638  23.1735  23.4135  23.5062  23.5716  23.6838  23.7089
    23.7735  23.8775  24.0051  24.1269  24.6802  24.9388  25.2745  25.5447
    25.6349

          k = 0.1250 0.1768 0.0000 ( 17796 PWs)   bands (ev):

     0.0223   0.1385   0.2997   0.5413   0.8977   0.9543   1.2048   1.3121
     1.7133   2.0991   2.2678   2.6365   3.9331   4.6002   4.6425   5.3543
     6.2737   6.3180   6.9421   7.0486   8.3015   8.8828   8.9551   9.3747
    10.0504  10.1595  10.4512  10.5680  10.6430  10.8456  10.9481  11.0701
    11.1978  11.2283  11.2605  11.2872  11.3126  11.3209  11.3343  11.4663
    11.4816  11.5574  11.5690  11.6033  11.6080  11.6294  11.7318  11.7440
    11.8373  11.8975  11.8990  11.9306  11.9521  11.9955  12.0766  12.1543
    12.1953  12.2668  12.3381  12.3974  12.4430  12.4917  12.5189  12.5771
    12.6217  12.6691  12.7414  12.8021  12.8127  12.8547  12.9050  12.9655
    13.0217  13.0771  13.2016  13.2208  13.2573  13.3078  13.3440  13.3901
    13.4117  13.4692  13.5141  13.5179  13.6092  13.6620  13.6785  13.6914
    13.7651  13.8326  13.8618  13.9256  13.9299  14.0782  14.0958  14.1465
    14.1606  14.1962  14.2461  14.3626  14.4617  14.4805  14.5250  14.5693
    14.6129  14.6417  14.6742  14.7125  14.7462  14.7707  14.7874  14.8207
    14.9043  15.0084  15.0309  15.0467  15.0826  15.1293  15.1331  15.1904
    15.2147  15.3041  15.3598  15.4399  15.4619  15.4886  15.5283  15.5562
    15.5852  15.6574  15.7022  15.7748  15.7816  15.7954  15.8276  15.8559
    15.9895  16.0023  16.0266  16.0632  16.0745  16.0950  16.2445  16.3906
    16.4178  16.5998  16.7639  16.9382  16.9821  17.0374  17.0608  17.4818
    17.4895  18.0117  18.2103  18.5477  19.6177  20.0026  20.1332  20.2486
    20.3172  20.3636  20.4441  21.1491  21.1667  21.4184  21.6168  22.0628
    22.0761  22.2342  22.9643  23.1355  23.4979  23.5344  23.6999  23.7550
    23.8360  23.9557  24.1097  24.1152  24.6654  24.7732  25.1066  25.1445
    25.4653

          k = 0.1250 0.2357 0.0000 ( 17785 PWs)   bands (ev):

     0.0500   0.1357   0.3669   0.5844   0.9165   0.9512   1.2080   1.2116
     1.7311   1.9757   2.3882   2.6467   4.1056   4.5762   4.5842   5.2144
     6.4079   6.4222   7.0073   7.1132   7.9272   8.7602   9.1182   9.2096
    10.2598  10.3594  10.3728  10.5376  10.6133  10.7350  10.9416  11.0917
    11.1572  11.2311  11.2646  11.3159  11.3345  11.3977  11.4255  11.5465
    11.5700  11.6466  11.6715  11.7091  11.7184  11.7705  11.7945  11.8630
    11.8657  11.9413  11.9696  12.0028  12.0600  12.0771  12.1542  12.1919
    12.1992  12.2812  12.2915  12.3677  12.3836  12.3977  12.4799  12.4881
    12.5333  12.6172  12.6174  12.6747  12.7194  12.8003  12.8558  12.9546
    13.0295  13.0423  13.2027  13.2134  13.2653  13.3461  13.3653  13.3960
    13.4323  13.4678  13.4768  13.5051  13.5446  13.6424  13.6474  13.7010
    13.7761  13.7934  13.8022  13.8569  13.9236  14.0217  14.0368  14.0552
    14.0648  14.2040  14.3579  14.4077  14.4270  14.4470  14.4622  14.5177
    14.5595  14.5992  14.6273  14.6758  14.6875  14.7041  14.7467  14.7489
    14.7953  14.8865  14.9058  14.9609  15.0062  15.0612  15.0855  15.2010
    15.2409  15.2531  15.2791  15.2821  15.3470  15.4279  15.4855  15.4910
    15.5562  15.5972  15.6141  15.6188  15.6455  15.7699  15.8316  15.8577
    15.8831  15.9069  16.0189  16.0337  16.0856  16.0909  16.1043  16.2873
    16.4293  16.4634  16.6796  16.7480  17.0216  17.1524  17.1655  17.5722
    17.6433  17.9634  18.2686  18.5152  19.8585  20.0641  20.3903  20.5482
    20.6226  20.9822  21.0227  21.4398  21.4890  21.5982  21.6620  21.9062
    21.9261  22.1017  22.4822  22.7479  23.6189  23.6538  23.9441  23.9557
    24.0484  24.1040  24.2822  24.4338  24.5012  24.5922  24.8306  25.2647
    25.5231

          k = 0.1250 0.2946 0.0000 ( 17801 PWs)   bands (ev):

     0.0794   0.1256   0.4389   0.5664   0.9777   0.9934   1.1191   1.1739
     1.7554   1.8712   2.4952   2.6273   4.3323   4.5491   4.5628   4.9397
     6.5844   6.6458   6.9367   7.2597   7.6354   8.2299   9.4018   9.5199
    10.0487  10.2428  10.4900  10.6068  10.6211  10.8414  10.9332  11.0167
    11.1247  11.1592  11.3113  11.3854  11.3987  11.4756  11.5459  11.5712
    11.6197  11.7153  11.7764  11.7813  11.8181  11.8549  11.8639  11.9079
    11.9368  11.9723  12.0220  12.0543  12.0890  12.0974  12.1798  12.1876
    12.2378  12.2538  12.2541  12.3306  12.3407  12.3805  12.3895  12.4423
    12.4671  12.5440  12.6251  12.6903  12.6981  12.7869  12.8272  13.0318
    13.0427  13.0764  13.0983  13.1807  13.2184  13.2634  13.3585  13.4200
    13.4668  13.5066  13.5241  13.5500  13.5588  13.6346  13.6355  13.7017
    13.7040  13.7429  13.7575  13.8159  13.8264  13.8950  13.9447  13.9812
    14.1312  14.1704  14.2316  14.2615  14.3458  14.4129  14.4617  14.5114
    14.5191  14.5837  14.5867  14.6385  14.6467  14.6838  14.7047  14.7687
    14.7950  14.8480  14.8709  14.8903  14.9060  14.9902  15.0034  15.0157
    15.0518  15.0709  15.1015  15.1016  15.3082  15.3247  15.3368  15.4240
    15.5376  15.5679  15.6247  15.7563  15.7744  15.8348  15.8565  15.8678
    15.9399  15.9577  16.0002  16.0513  16.0726  16.0983  16.1035  16.2096
    16.3612  16.4123  16.6131  16.6351  17.0805  17.1838  17.3142  17.6566
    17.7276  17.7757  18.5304  18.6951  19.7751  20.4872  20.6576  20.7891
    20.9395  20.9876  21.1799  21.3108  21.4250  21.5080  21.7433  21.9123
    21.9957  22.1129  22.4182  22.9300  23.7993  23.8585  23.9739  24.0240
    24.1317  24.1611  24.2622  24.2842  24.5499  24.7942  24.9727  25.1726
    25.4632

          k = 0.1250-0.3536 0.0000 ( 17808 PWs)   bands (ev):

     0.1060   0.1061   0.5094   0.5094   1.0301   1.0301   1.1019   1.1020
     1.7982   1.7983   2.5766   2.5767   4.5212   4.5212   4.6498   4.6498
     6.7236   6.7237   7.0547   7.0547   7.8116   7.8117   9.7187   9.7187
     9.8711   9.8712  10.6791  10.6792  10.7649  10.7649  10.8837  10.8837
    11.1964  11.1964  11.3247  11.3247  11.4634  11.4634  11.5925  11.5925
    11.6858  11.6859  11.7833  11.7833  11.8939  11.8939  11.9374  11.9375
    12.0099  12.0099  12.0493  12.0493  12.0690  12.0690  12.1658  12.1658
    12.2156  12.2156  12.2475  12.2476  12.3748  12.3748  12.4240  12.4240
    12.4651  12.4651  12.7172  12.7172  12.7746  12.7747  12.8450  12.8450
    13.0682  13.0682  13.1321  13.1322  13.2769  13.2769  13.3422  13.3422
    13.5172  13.5172  13.5576  13.5576  13.6391  13.6391  13.6699  13.6700
    13.7277  13.7277  13.7977  13.7977  13.8183  13.8183  13.8959  13.8959
    13.9840  13.9840  14.1427  14.1427  14.4591  14.4591  14.5015  14.5015
    14.5760  14.5760  14.6316  14.6316  14.6871  14.6871  14.7576  14.7576
    14.7853  14.7853  14.8142  14.8142  14.8543  14.8543  14.9066  14.9066
    14.9609  14.9609  15.1470  15.1471  15.1924  15.1925  15.4548  15.4548
    15.4879  15.4879  15.7507  15.7507  15.8474  15.8475  15.9202  15.9202
    15.9661  15.9662  16.0210  16.0210  16.0734  16.0734  16.1141  16.1141
    16.3699  16.3699  16.5942  16.5942  17.1422  17.1422  17.5119  17.5120
    17.7387  17.7388  18.7350  18.7350  20.1463  20.1463  20.8872  20.8872
    21.0856  21.0856  21.1506  21.1506  21.2685  21.2685  21.8968  21.8968
    21.9966  21.9967  23.0692  23.0692  23.5659  23.5659  24.0969  24.0969
    24.1468  24.1469  24.2023  24.2024  24.9716  24.9716  25.2465  25.2467
    25.5190

          k = 0.1250-0.2946 0.0000 ( 17801 PWs)   bands (ev):

     0.0794   0.1256   0.4389   0.5664   0.9777   0.9934   1.1191   1.1739
     1.7554   1.8712   2.4952   2.6273   4.3323   4.5491   4.5628   4.9397
     6.5844   6.6458   6.9367   7.2597   7.6354   8.2299   9.4018   9.5199
    10.0487  10.2428  10.4900  10.6068  10.6211  10.8414  10.9332  11.0167
    11.1247  11.1592  11.3113  11.3854  11.3987  11.4756  11.5459  11.5712
    11.6197  11.7153  11.7764  11.7813  11.8181  11.8549  11.8639  11.9079
    11.9368  11.9723  12.0220  12.0543  12.0890  12.0974  12.1798  12.1876
    12.2378  12.2538  12.2541  12.3306  12.3407  12.3805  12.3895  12.4423
    12.4671  12.5440  12.6251  12.6903  12.6981  12.7869  12.8272  13.0318
    13.0427  13.0764  13.0983  13.1807  13.2184  13.2634  13.3585  13.4200
    13.4668  13.5066  13.5241  13.5500  13.5588  13.6346  13.6355  13.7017
    13.7040  13.7429  13.7575  13.8159  13.8264  13.8950  13.9447  13.9812
    14.1312  14.1704  14.2316  14.2615  14.3458  14.4129  14.4617  14.5114
    14.5191  14.5837  14.5867  14.6385  14.6467  14.6838  14.7047  14.7687
    14.7950  14.8480  14.8709  14.8903  14.9060  14.9902  15.0034  15.0157
    15.0518  15.0709  15.1015  15.1016  15.3082  15.3247  15.3368  15.4240
    15.5376  15.5679  15.6247  15.7563  15.7744  15.8348  15.8565  15.8678
    15.9399  15.9577  16.0002  16.0513  16.0726  16.0983  16.1035  16.2096
    16.3612  16.4123  16.6131  16.6351  17.0805  17.1838  17.3142  17.6566
    17.7277  17.7757  18.5304  18.6951  19.7751  20.4872  20.6576  20.7891
    20.9395  20.9876  21.1799  21.3108  21.4250  21.5080  21.7433  21.9123
    21.9957  22.1129  22.4182  22.9300  23.7993  23.8585  23.9739  24.0240
    24.1317  24.1611  24.2622  24.2842  24.5499  24.7942  24.9727  25.1726
    25.4632

          k = 0.1250-0.2357 0.0000 ( 17785 PWs)   bands (ev):

     0.0500   0.1357   0.3669   0.5844   0.9165   0.9512   1.2080   1.2116
     1.7311   1.9757   2.3882   2.6467   4.1056   4.5762   4.5842   5.2144
     6.4079   6.4222   7.0073   7.1132   7.9272   8.7602   9.1182   9.2096
    10.2598  10.3594  10.3728  10.5376  10.6133  10.7350  10.9416  11.0917
    11.1572  11.2311  11.2646  11.3159  11.3345  11.3977  11.4255  11.5465
    11.5700  11.6466  11.6715  11.7091  11.7184  11.7705  11.7945  11.8630
    11.8657  11.9413  11.9696  12.0028  12.0600  12.0771  12.1542  12.1919
    12.1992  12.2812  12.2915  12.3677  12.3836  12.3977  12.4799  12.4881
    12.5333  12.6172  12.6174  12.6747  12.7194  12.8003  12.8558  12.9546
    13.0295  13.0423  13.2027  13.2134  13.2653  13.3461  13.3653  13.3960
    13.4323  13.4678  13.4768  13.5051  13.5446  13.6424  13.6474  13.7010
    13.7761  13.7934  13.8022  13.8569  13.9236  14.0217  14.0368  14.0552
    14.0648  14.2040  14.3579  14.4077  14.4270  14.4470  14.4622  14.5177
    14.5595  14.5992  14.6273  14.6758  14.6875  14.7041  14.7467  14.7489
    14.7953  14.8865  14.9058  14.9609  15.0062  15.0612  15.0855  15.2010
    15.2409  15.2531  15.2791  15.2821  15.3470  15.4279  15.4855  15.4910
    15.5562  15.5972  15.6141  15.6188  15.6455  15.7699  15.8316  15.8577
    15.8831  15.9069  16.0189  16.0337  16.0856  16.0909  16.1043  16.2873
    16.4293  16.4634  16.6796  16.7480  17.0216  17.1524  17.1655  17.5722
    17.6433  17.9634  18.2686  18.5152  19.8585  20.0641  20.3903  20.5482
    20.6226  20.9822  21.0227  21.4398  21.4890  21.5982  21.6620  21.9062
    21.9261  22.1017  22.4822  22.7479  23.6189  23.6538  23.9441  23.9557
    24.0484  24.1040  24.2822  24.4338  24.5012  24.5922  24.8306  25.2647
    25.5231

          k = 0.1250-0.1768 0.0000 ( 17796 PWs)   bands (ev):

     0.0223   0.1385   0.2997   0.5413   0.8977   0.9543   1.2048   1.3121
     1.7134   2.0991   2.2678   2.6365   3.9331   4.6002   4.6425   5.3543
     6.2737   6.3180   6.9421   7.0486   8.3015   8.8828   8.9551   9.3747
    10.0504  10.1595  10.4512  10.5680  10.6430  10.8456  10.9481  11.0701
    11.1978  11.2283  11.2605  11.2872  11.3126  11.3209  11.3343  11.4663
    11.4816  11.5574  11.5690  11.6033  11.6080  11.6294  11.7318  11.7440
    11.8373  11.8975  11.8990  11.9306  11.9521  11.9955  12.0766  12.1543
    12.1953  12.2668  12.3381  12.3974  12.4430  12.4917  12.5189  12.5771
    12.6217  12.6691  12.7414  12.8021  12.8127  12.8547  12.9050  12.9655
    13.0217  13.0771  13.2016  13.2208  13.2573  13.3078  13.3440  13.3901
    13.4117  13.4692  13.5141  13.5179  13.6092  13.6620  13.6785  13.6914
    13.7651  13.8326  13.8618  13.9256  13.9299  14.0782  14.0958  14.1465
    14.1606  14.1962  14.2461  14.3626  14.4617  14.4805  14.5250  14.5693
    14.6129  14.6417  14.6742  14.7125  14.7462  14.7707  14.7874  14.8207
    14.9043  15.0084  15.0309  15.0467  15.0826  15.1293  15.1331  15.1904
    15.2147  15.3041  15.3598  15.4399  15.4619  15.4886  15.5283  15.5562
    15.5852  15.6574  15.7022  15.7748  15.7816  15.7954  15.8276  15.8559
    15.9895  16.0023  16.0266  16.0632  16.0745  16.0950  16.2445  16.3906
    16.4178  16.5998  16.7639  16.9382  16.9821  17.0374  17.0608  17.4818
    17.4895  18.0117  18.2103  18.5477  19.6177  20.0026  20.1332  20.2486
    20.3172  20.3636  20.4441  21.1491  21.1667  21.4184  21.6168  22.0628
    22.0761  22.2342  22.9643  23.1355  23.4979  23.5344  23.6999  23.7550
    23.8360  23.9557  24.1097  24.1152  24.6654  24.7732  25.1066  25.1445
    25.4653

          k = 0.1250-0.1179 0.0000 ( 17815 PWs)   bands (ev):

     0.0001   0.1398   0.2417   0.4711   0.9165   0.9820   1.1755   1.4123
     1.6930   2.1531   2.2260   2.5987   3.8162   4.6247   4.7273   5.2945
     6.1583   6.4370   6.8166   7.0368   8.6356   8.7073   8.7679   9.8854
     9.9931  10.0159  10.4260  10.4296  10.6870  10.9208  10.9425  11.1539
    11.1828  11.1877  11.2109  11.2227  11.3096  11.3259  11.3529  11.3999
    11.4615  11.4788  11.5035  11.5252  11.5400  11.5565  11.6217  11.6807
    11.7731  11.7964  11.8092  11.8163  11.8634  11.9283  11.9618  12.1147
    12.1394  12.3151  12.4148  12.4557  12.4998  12.5268  12.5598  12.6086
    12.7163  12.7831  12.8772  12.9196  12.9330  12.9585  13.0070  13.0226
    13.0529  13.1165  13.1207  13.2159  13.2234  13.2962  13.3050  13.3459
    13.4252  13.4534  13.4928  13.5288  13.5672  13.6318  13.7509  13.7546
    13.7877  13.7973  13.8465  13.9424  14.0067  14.0819  14.1247  14.1276
    14.2168  14.2262  14.2844  14.3421  14.4861  14.5139  14.5550  14.5665
    14.6070  14.6105  14.6935  14.7092  14.7207  14.7775  14.8265  14.8559
    14.8928  15.0065  15.0516  15.0834  15.1787  15.1968  15.2025  15.2533
    15.2816  15.3301  15.3499  15.4751  15.4924  15.5452  15.5785  15.6031
    15.6771  15.7084  15.7286  15.7296  15.8150  15.8637  15.9783  15.9811
    16.0434  16.0564  16.0722  16.0840  16.3855  16.3872  16.5415  16.5800
    16.6668  16.8384  16.8429  16.9546  16.9599  16.9816  17.3207  17.3562
    17.4232  17.7951  18.4580  18.6925  19.2487  19.3520  19.6014  19.9009
    20.1464  20.1755  20.3065  20.4039  20.6157  21.3111  21.5922  22.0748
    22.1348  22.3638  23.1735  23.4135  23.5062  23.5716  23.6838  23.7089
    23.7735  23.8775  24.0051  24.1269  24.6802  24.9388  25.2745  25.5447
    25.6350

          k = 0.1250-0.0589 0.0000 ( 17791 PWs)   bands (ev):

    -0.0142   0.1468   0.1961   0.4165   0.9377   1.0262   1.1306   1.5040
     1.6617   2.0678   2.3454   2.5357   3.7494   4.6427   4.8403   5.1413
     6.0863   6.6408   6.7404   6.9640   8.5977   8.6506   8.8774   9.7798
     9.8880  10.3332  10.3703  10.4469  10.8168  10.9063  11.0391  11.1114
    11.1148  11.1442  11.2027  11.2544  11.2833  11.3235  11.3962  11.4137
    11.4201  11.4463  11.4517  11.5018  11.5460  11.5523  11.6421  11.6557
    11.6781  11.7230  11.7456  11.7512  11.7811  11.8337  11.8870  12.0784
    12.1097  12.3191  12.4117  12.5110  12.5191  12.5576  12.6005  12.6509
    12.7902  12.8265  12.9357  12.9573  12.9735  13.0105  13.0170  13.0590
    13.0833  13.0833  13.1965  13.2060  13.2194  13.2515  13.3425  13.3648
    13.3844  13.4081  13.4784  13.5384  13.5636  13.6401  13.6754  13.7773
    13.8044  13.8464  13.8675  13.8986  13.9894  13.9988  14.1520  14.1815
    14.1840  14.2425  14.2890  14.3239  14.4495  14.4592  14.5507  14.6173
    14.6590  14.6728  14.6775  14.7251  14.7254  14.7728  14.8314  14.8863
    14.9134  14.9403  15.0155  15.1142  15.1152  15.1822  15.2361  15.2689
    15.3149  15.3584  15.4587  15.5003  15.5297  15.5997  15.6119  15.6492
    15.7047  15.7050  15.7455  15.8017  15.8908  15.9487  16.0001  16.0814
    16.0980  16.1010  16.1368  16.1816  16.3499  16.5754  16.7898  16.8187
    16.8807  16.9268  16.9874  17.1175  17.1687  17.1827  17.3412  17.5716
    17.6661  17.8151  18.5024  18.5373  18.9257  18.9694  19.0085  19.6036
    19.7216  19.7408  20.0312  20.0682  20.8874  21.2401  21.5647  21.6000
    22.1191  22.2000  22.7688  23.5081  23.5609  23.8131  23.8349  23.9232
    23.9570  24.2716  24.3952  24.7047  24.9537  24.9905  25.2653  25.3752
    25.5488

          k = 0.2500 0.0000 0.0000 ( 17793 PWs)   bands (ev):

     0.0473   0.0473   0.0907   0.6759   0.9905   1.1540   1.1540   1.4626
     1.5223   2.0589   2.3605   2.3606   4.0096   4.6608   4.6609   5.0524
     6.2066   6.6778   7.4614   7.4614   8.5001   9.0046   9.1211   9.8846
    10.1470  10.2746  10.4951  10.4953  10.6423  10.8886  10.9577  11.1452
    11.1469  11.2227  11.2631  11.2631  11.2684  11.3731  11.3842  11.3870
    11.4300  11.4382  11.4648  11.4963  11.5074  11.5310  11.5565  11.5665
    11.6348  11.7023  11.7565  11.8357  11.8379  12.0303  12.0606  12.0621
    12.2629  12.2632  12.5333  12.6829  12.7160  12.7610  12.7719  12.8497
    12.8574  12.9267  13.0558  13.0929  13.1118  13.1225  13.1428  13.1547
    13.2139  13.3576  13.3742  13.3750  13.3914  13.4057  13.4294  13.4956
    13.5188  13.5200  13.5216  13.5422  13.5701  13.5807  13.5914  13.6108
    13.6701  13.7282  13.8316  13.8488  13.8634  13.9342  13.9521  13.9956
    14.0775  14.0806  14.0816  14.0979  14.2108  14.3456  14.3564  14.3717
    14.3886  14.4769  14.4991  14.5083  14.5254  14.6426  14.7443  14.7724
    14.7943  14.8631  14.9122  14.9496  14.9544  14.9557  14.9939  15.1247
    15.1816  15.3439  15.3578  15.3587  15.4647  15.5106  15.5913  15.5945
    15.7838  15.8074  15.8187  15.8639  15.8675  15.9662  15.9771  15.9842
    15.9948  16.1129  16.1130  16.1133  16.1483  16.1543  16.7375  16.7380
    16.7553  17.0504  17.0837  17.1021  17.1025  17.2231  17.5269  17.8554
    17.8566  18.1562  18.3063  18.3068  18.9463  18.9491  19.2872  19.2915
    19.3325  19.6811  20.0526  20.2659  20.2666  20.4760  20.6843  20.6850
    21.8829  21.8835  21.9838  22.0479  23.1520  23.1568  23.2215  23.2327
    23.2335  23.5489  23.5598  23.8005  23.8023  24.4556  24.5760  24.5797
    24.8519

          k = 0.2500 0.0589 0.0000 ( 17783 PWs)   bands (ev):

     0.0285   0.0838   0.0920   0.6830   0.9870   1.1184   1.1850   1.3997
     1.5763   2.0818   2.2873   2.4273   4.0302   4.5864   4.7597   5.0296
     6.2399   6.7129   7.2535   7.6088   8.3969   9.0391   9.1578   9.9286
    10.1840  10.3100  10.4327  10.5363  10.6831  10.9107  10.9227  10.9872
    11.1207  11.2090  11.2554  11.2784  11.2932  11.3850  11.3943  11.4218
    11.4221  11.4485  11.4942  11.5000  11.5363  11.5538  11.5696  11.6001
    11.6171  11.7294  11.7366  11.7781  11.9061  12.0469  12.0487  12.0678
    12.1031  12.5457  12.5517  12.6794  12.6983  12.7242  12.7364  12.8265
    12.9132  12.9412  13.0017  13.0506  13.1219  13.1478  13.1489  13.2006
    13.2267  13.3102  13.3259  13.3521  13.4172  13.4328  13.4523  13.4666
    13.5250  13.5464  13.5480  13.5653  13.5702  13.5882  13.6000  13.6161
    13.6708  13.7066  13.7922  13.8508  13.8582  13.9183  13.9310  13.9665
    14.0060  14.0122  14.1106  14.1214  14.1368  14.2544  14.3520  14.3606
    14.3787  14.4531  14.4607  14.4764  14.5297  14.6555  14.7308  14.7410
    14.8270  14.8637  14.9141  14.9252  14.9691  14.9700  15.0497  15.1673
    15.2234  15.3281  15.3481  15.3762  15.4402  15.5125  15.5134  15.6435
    15.7012  15.7517  15.8163  15.8515  15.9137  15.9314  15.9555  15.9765
    16.0681  16.0824  16.0970  16.1056  16.1322  16.1704  16.5005  16.7823
    16.9079  16.9718  17.0419  17.0739  17.1357  17.1959  17.2786  17.5871
    17.6226  18.2162  18.3213  18.5384  18.6671  19.0105  19.3725  19.5459
    19.7241  19.7932  19.8904  20.0980  20.4740  20.5071  20.6404  21.0460
    21.9666  21.9928  22.0527  22.2035  22.3514  22.5284  22.8209  23.1549
    23.2615  23.7493  24.0800  24.1755  24.3223  24.5001  24.5136  24.6712
    25.2401

          k = 0.2500 0.1179 0.0000 ( 17763 PWs)   bands (ev):

     0.0256   0.0956   0.1381   0.6953   0.9833   1.0826   1.2077   1.3118
     1.6411   2.1456   2.2104   2.4830   4.0925   4.5365   4.8775   4.9696
     6.3401   6.8093   7.0018   7.6913   8.1332   9.1401   9.2655  10.0503
    10.0977  10.2920  10.4089  10.5440  10.6146  10.7976  10.9846  11.0133
    11.0633  11.0689  11.3359  11.3563  11.3749  11.4048  11.4478  11.4707
    11.4954  11.5073  11.5270  11.5301  11.5859  11.6079  11.6470  11.6627
    11.7014  11.7519  11.8007  11.8557  11.9188  12.0306  12.0880  12.1090
    12.1607  12.5564  12.5575  12.6416  12.6514  12.6755  12.7053  12.7902
    12.8630  12.9243  12.9705  12.9885  13.0371  13.1215  13.1576  13.1836
    13.1962  13.2280  13.3279  13.3580  13.4093  13.4340  13.4781  13.5023
    13.5117  13.5300  13.5520  13.5816  13.6052  13.6245  13.6371  13.6482
    13.6660  13.7007  13.7303  13.7744  13.8010  13.8376  13.9012  13.9055
    13.9207  13.9602  13.9683  14.0753  14.2120  14.2298  14.3051  14.3058
    14.3280  14.3827  14.4310  14.4324  14.4761  14.6232  14.6345  14.7650
    14.8555  14.8624  14.8851  14.9191  14.9963  15.0030  15.0908  15.1645
    15.2885  15.2901  15.3722  15.4234  15.4288  15.5061  15.6096  15.6130
    15.6865  15.7068  15.7346  15.8149  15.8279  15.8483  15.8733  15.9425
    15.9530  15.9705  16.0067  16.0311  16.1753  16.2537  16.4401  16.5312
    16.6879  16.8358  16.9797  17.0498  17.0849  17.1696  17.3154  17.4229
    17.7447  17.7567  18.1297  18.3810  18.8385  19.4823  19.4860  19.5927
    19.8318  19.8942  20.1400  20.2369  20.6103  20.7054  21.1197  21.6040
    21.6632  21.9038  22.0215  22.0685  22.0899  22.2667  22.8769  23.0255
    23.2547  23.3680  24.0947  24.6305  25.0648  25.0862  25.2497  25.3448
    25.4179

          k = 0.2500 0.1768 0.0000 ( 17751 PWs)   bands (ev):

     0.0351   0.0996   0.2088   0.6891   0.9973   1.0517   1.2188   1.2265
     1.6997   2.1313   2.2366   2.5222   4.1972   4.5098   4.8921   4.9957
     6.5077   6.7442   6.9452   7.7112   7.7942   9.3008   9.4150   9.4377
    10.2350  10.4606  10.5270  10.5559  10.5713  10.8445  10.9627  11.0045
    11.1208  11.1817  11.3637  11.3653  11.4392  11.4842  11.5005  11.5177
    11.5179  11.5661  11.5875  11.6829  11.6848  11.7550  11.7656  11.7990
    11.8090  11.8454  11.8921  11.9325  11.9805  12.0336  12.1296  12.2002
    12.2333  12.4581  12.4853  12.5787  12.6052  12.6462  12.6747  12.7513
    12.7985  12.8309  12.8779  12.9290  12.9558  13.0765  13.1028  13.1461
    13.1462  13.1985  13.2838  13.3077  13.3633  13.3677  13.3946  13.4065
    13.4383  13.4630  13.5282  13.5615  13.5755  13.5911  13.6055  13.6308
    13.6421  13.7040  13.7468  13.7693  13.7779  13.7989  13.8124  13.8390
    13.8517  13.9294  13.9736  14.0344  14.1024  14.1810  14.2667  14.2922
    14.3295  14.3418  14.3842  14.3964  14.4499  14.5164  14.5308  14.7332
    14.8273  14.8597  14.8983  14.9408  15.0650  15.1087  15.1137  15.1928
    15.2164  15.2721  15.3100  15.3217  15.4511  15.4641  15.5048  15.6131
    15.6242  15.6781  15.7251  15.7539  15.7630  15.7851  15.8056  15.8385
    15.8713  15.8810  15.9110  15.9151  15.9600  16.2544  16.2962  16.3987
    16.6118  16.6211  16.8637  17.0371  17.0800  17.2333  17.3220  17.6366
    17.7083  17.8491  18.0225  18.5722  18.6203  19.2493  19.3225  19.6401
    19.9596  20.4651  20.4863  20.5774  20.8091  21.0176  21.1533  21.3428
    21.3953  22.0095  22.0710  22.1039  22.2610  22.7587  22.9643  23.1173
    23.3308  23.4465  24.1565  24.6383  24.8527  25.4037  25.4709  25.7171
    25.7996

          k = 0.2500 0.2357 0.0000 ( 17768 PWs)   bands (ev):

     0.0523   0.1013   0.2932   0.6462   1.0312   1.0364   1.1542   1.2158
     1.7578   2.0506   2.3356   2.5394   4.3377   4.5042   4.8222   5.0684
     6.5521   6.7299   7.0868   7.4724   7.6737   8.7359   9.5096   9.6625
    10.4264  10.4688  10.5728  10.6631  10.6846  10.7324  11.0294  11.0660
    11.2101  11.3150  11.3218  11.4249  11.4593  11.5017  11.5563  11.5833
    11.5987  11.6134  11.6659  11.7756  11.8567  11.8775  11.8995  11.9181
    11.9669  11.9817  12.0146  12.0444  12.0470  12.1035  12.2140  12.2822
    12.3050  12.3868  12.4213  12.4812  12.5567  12.5920  12.6731  12.7049
    12.7099  12.7350  12.7745  12.8319  12.8587  12.9625  13.0380  13.0752
    13.0788  13.1672  13.2140  13.2420  13.2670  13.2841  13.3208  13.3414
    13.3509  13.3853  13.4409  13.4445  13.4699  13.5055  13.5566  13.5704
    13.5949  13.6196  13.6319  13.7099  13.7475  13.8194  13.8357  13.8889
    13.9130  13.9356  13.9611  14.0149  14.0314  14.1084  14.1468  14.2261
    14.2453  14.3596  14.3965  14.4762  14.4843  14.5257  14.5428  14.7097
    14.7779  14.8626  14.8698  14.9434  14.9788  15.0302  15.0635  15.1173
    15.1325  15.1494  15.2130  15.2431  15.2904  15.3754  15.3959  15.4300
    15.4589  15.5462  15.6130  15.6995  15.7346  15.7412  15.8255  15.8339
    15.8552  15.8606  15.9069  15.9394  16.0429  16.1547  16.2202  16.4363
    16.4413  16.6486  16.8378  16.9321  17.0808  17.1411  17.4982  17.4999
    17.8873  18.0851  18.3731  18.5703  18.8713  18.9086  19.1690  19.8287
    20.0824  20.2766  20.3433  20.7568  20.8035  21.0110  21.1117  21.7150
    21.8871  22.1222  22.1699  22.1914  22.4642  22.9371  23.0305  23.1064
    23.6962  23.8216  24.3577  24.5984  25.1080  25.5347  25.7827  25.7952
    25.9100

          k = 0.2500 0.2946 0.0000 ( 17790 PWs)   bands (ev):

     0.0716   0.0980   0.3865   0.5728   1.0263   1.0636   1.1242   1.1966
     1.8212   1.9699   2.4248   2.5301   4.4750   4.5149   4.8040   5.0332
     6.5160   6.8373   7.2182   7.3870   7.5866   8.1313   9.7498   9.9218
    10.2342  10.4395  10.6675  10.7254  10.7967  10.9385  11.0591  11.0885
    11.2058  11.3402  11.3467  11.4452  11.4851  11.5557  11.5695  11.6446
    11.6590  11.6873  11.7077  11.8340  11.9301  11.9322  11.9817  12.0036
    12.0599  12.1017  12.1386  12.1822  12.2018  12.2688  12.2905  12.3359
    12.3649  12.3996  12.4663  12.4933  12.5088  12.5487  12.5739  12.6207
    12.6381  12.6434  12.7360  12.7379  12.7804  12.8335  12.8972  13.0029
    13.0038  13.0919  13.1373  13.1412  13.2095  13.2384  13.2498  13.2939
    13.3000  13.3260  13.3380  13.3995  13.4093  13.4511  13.4743  13.4913
    13.4955  13.5647  13.5951  13.6470  13.6785  13.7342  13.7449  13.7743
    13.8094  13.8673  14.0522  14.0816  14.1180  14.1748  14.2378  14.2998
    14.3511  14.4373  14.4767  14.5131  14.5677  14.6023  14.6617  14.6636
    14.7077  14.7167  14.7576  14.7831  14.7935  14.8737  14.8822  14.9539
    14.9665  14.9850  15.0866  15.1511  15.1821  15.1908  15.2437  15.3564
    15.5096  15.5924  15.6352  15.6674  15.6869  15.7953  15.8284  15.8595
    15.8708  15.9067  15.9134  15.9915  16.0406  16.1613  16.2182  16.3308
    16.5164  16.6371  16.7076  16.9394  17.0493  17.2616  17.3201  17.7989
    17.8167  18.1424  18.5093  18.5937  18.7847  19.2310  19.5562  19.9572
    19.9893  20.0400  20.2104  20.5680  20.6584  21.0770  21.4838  21.6894
    21.9382  22.1024  22.3330  22.3511  22.6814  22.7937  22.8968  23.2490
    24.6098  24.6100  24.8170  24.8996  25.1396  25.4551  25.6111  25.6432
    25.7070

          k = 0.2500-0.3536 0.0000 ( 17788 PWs)   bands (ev):

     0.0879   0.0880   0.4825   0.4825   1.0402   1.0402   1.1614   1.1615
     1.8923   1.8923   2.4916   2.4917   4.5250   4.5250   4.9021   4.9021
     6.6522   6.6522   7.4535   7.4536   7.6354   7.6355   9.9996   9.9997
    10.1908  10.1909  10.7433  10.7434  10.9995  10.9996  11.1084  11.1084
    11.1567  11.1568  11.4170  11.4171  11.5290  11.5291  11.6671  11.6671
    11.6923  11.6923  11.7970  11.7971  11.9270  11.9270  12.0295  12.0295
    12.0897  12.0897  12.2122  12.2123  12.3586  12.3587  12.4089  12.4090
    12.4288  12.4289  12.4432  12.4432  12.5076  12.5076  12.5494  12.5494
    12.6088  12.6088  12.7142  12.7143  12.7689  12.7689  12.8739  12.8739
    13.0002  13.0003  13.1360  13.1360  13.1745  13.1745  13.1904  13.1904
    13.2995  13.2996  13.3678  13.3678  13.4198  13.4198  13.4750  13.4750
    13.5127  13.5127  13.5665  13.5665  13.6296  13.6296  13.7432  13.7433
    13.7946  13.7946  14.0426  14.0426  14.3599  14.3599  14.4251  14.4251
    14.4438  14.4438  14.4826  14.4826  14.5493  14.5493  14.6130  14.6130
    14.6715  14.6715  14.6932  14.6932  14.7337  14.7337  14.8273  14.8273
    14.8743  14.8743  15.0310  15.0310  15.2128  15.2128  15.2742  15.2742
    15.5675  15.5675  15.6291  15.6291  15.7960  15.7960  15.8419  15.8420
    15.8865  15.8865  15.9225  15.9225  16.1581  16.1582  16.2637  16.2638
    16.5225  16.5225  16.8263  16.8263  17.1796  17.1797  17.4888  17.4888
    18.1581  18.1581  18.3849  18.3849  19.2262  19.2263  19.5814  19.5814
    20.2428  20.2429  20.3823  20.3823  20.9602  20.9602  21.3965  21.3966
    21.8486  21.8487  22.4378  22.4378  22.5821  22.5821  23.8468  23.8468
    24.2385  24.2385  25.0063  25.0064  25.7007  25.7008  25.7777  25.7789
    25.9049

          k = 0.2500-0.2946 0.0000 ( 17790 PWs)   bands (ev):

     0.0716   0.0980   0.3865   0.5728   1.0263   1.0636   1.1242   1.1966
     1.8212   1.9699   2.4248   2.5301   4.4750   4.5149   4.8040   5.0332
     6.5160   6.8373   7.2182   7.3870   7.5866   8.1313   9.7498   9.9218
    10.2341  10.4395  10.6675  10.7254  10.7967  10.9385  11.0591  11.0885
    11.2058  11.3402  11.3467  11.4452  11.4851  11.5557  11.5695  11.6446
    11.6590  11.6873  11.7077  11.8340  11.9301  11.9322  11.9817  12.0036
    12.0599  12.1017  12.1386  12.1822  12.2018  12.2688  12.2905  12.3359
    12.3649  12.3996  12.4663  12.4933  12.5088  12.5487  12.5739  12.6207
    12.6381  12.6434  12.7360  12.7379  12.7804  12.8335  12.8972  13.0029
    13.0038  13.0919  13.1373  13.1412  13.2095  13.2384  13.2498  13.2939
    13.3000  13.3260  13.3380  13.3995  13.4093  13.4511  13.4743  13.4913
    13.4955  13.5647  13.5951  13.6470  13.6785  13.7342  13.7449  13.7743
    13.8094  13.8673  14.0522  14.0816  14.1180  14.1748  14.2378  14.2998
    14.3511  14.4373  14.4767  14.5131  14.5677  14.6023  14.6617  14.6636
    14.7077  14.7167  14.7576  14.7831  14.7935  14.8737  14.8822  14.9539
    14.9665  14.9850  15.0866  15.1511  15.1821  15.1908  15.2437  15.3564
    15.5096  15.5924  15.6352  15.6674  15.6869  15.7953  15.8284  15.8595
    15.8708  15.9067  15.9134  15.9915  16.0406  16.1613  16.2182  16.3308
    16.5164  16.6371  16.7076  16.9394  17.0493  17.2616  17.3201  17.7989
    17.8167  18.1424  18.5093  18.5937  18.7847  19.2310  19.5562  19.9572
    19.9893  20.0400  20.2104  20.5680  20.6584  21.0770  21.4838  21.6894
    21.9382  22.1024  22.3330  22.3511  22.6814  22.7937  22.8968  23.2490
    24.6098  24.6100  24.8170  24.8996  25.1396  25.4551  25.6111  25.6432
    25.7070

          k = 0.2500-0.2357 0.0000 ( 17768 PWs)   bands (ev):

     0.0523   0.1013   0.2932   0.6462   1.0312   1.0364   1.1542   1.2158
     1.7578   2.0506   2.3356   2.5394   4.3377   4.5042   4.8222   5.0684
     6.5521   6.7299   7.0868   7.4724   7.6737   8.7359   9.5096   9.6625
    10.4264  10.4688  10.5728  10.6631  10.6846  10.7324  11.0294  11.0660
    11.2101  11.3150  11.3218  11.4249  11.4593  11.5017  11.5563  11.5833
    11.5987  11.6134  11.6659  11.7756  11.8567  11.8775  11.8995  11.9181
    11.9669  11.9817  12.0146  12.0444  12.0470  12.1035  12.2140  12.2822
    12.3050  12.3868  12.4213  12.4812  12.5567  12.5920  12.6731  12.7049
    12.7099  12.7350  12.7745  12.8319  12.8587  12.9625  13.0380  13.0752
    13.0788  13.1672  13.2140  13.2420  13.2670  13.2841  13.3208  13.3414
    13.3509  13.3853  13.4409  13.4445  13.4699  13.5055  13.5566  13.5704
    13.5949  13.6196  13.6319  13.7099  13.7475  13.8194  13.8357  13.8889
    13.9130  13.9356  13.9611  14.0149  14.0314  14.1084  14.1468  14.2261
    14.2453  14.3596  14.3965  14.4762  14.4843  14.5257  14.5428  14.7097
    14.7779  14.8626  14.8698  14.9434  14.9788  15.0302  15.0635  15.1173
    15.1325  15.1494  15.2130  15.2431  15.2904  15.3754  15.3959  15.4300
    15.4589  15.5462  15.6130  15.6995  15.7346  15.7412  15.8255  15.8339
    15.8552  15.8606  15.9069  15.9394  16.0429  16.1547  16.2202  16.4363
    16.4413  16.6486  16.8378  16.9321  17.0808  17.1411  17.4982  17.4999
    17.8873  18.0851  18.3731  18.5703  18.8713  18.9086  19.1690  19.8287
    20.0824  20.2766  20.3433  20.7568  20.8035  21.0110  21.1117  21.7150
    21.8871  22.1222  22.1699  22.1914  22.4642  22.9371  23.0305  23.1064
    23.6962  23.8216  24.3577  24.5984  25.1080  25.5347  25.7827  25.7952
    25.9100

          k = 0.2500-0.1768 0.0000 ( 17751 PWs)   bands (ev):

     0.0351   0.0996   0.2088   0.6891   0.9973   1.0517   1.2188   1.2265
     1.6997   2.1313   2.2366   2.5222   4.1972   4.5098   4.8921   4.9957
     6.5077   6.7442   6.9452   7.7112   7.7942   9.3008   9.4149   9.4377
    10.2350  10.4606  10.5270  10.5559  10.5713  10.8445  10.9627  11.0045
    11.1208  11.1817  11.3637  11.3653  11.4392  11.4842  11.5005  11.5177
    11.5179  11.5661  11.5875  11.6829  11.6848  11.7550  11.7656  11.7990
    11.8090  11.8454  11.8921  11.9325  11.9805  12.0336  12.1296  12.2002
    12.2333  12.4581  12.4853  12.5787  12.6052  12.6462  12.6747  12.7513
    12.7985  12.8309  12.8779  12.9290  12.9558  13.0765  13.1028  13.1461
    13.1462  13.1985  13.2838  13.3077  13.3633  13.3677  13.3946  13.4065
[...]
    12.6816  12.6818  12.6861  12.6881  12.7644  12.7664  12.8106  12.8119
    12.9128  12.9153  12.9821  12.9842  13.0306  13.0306  13.1673  13.1675
    13.3498  13.3502  13.4042  13.4051  13.5360  13.5372  13.5879  13.5892
    13.7314  13.7316  13.8303  13.8306  13.8635  13.8637  14.0612  14.0617
    14.0685  14.0691  14.2113  14.2116  14.8008  14.8012  14.8567  14.8574
    14.9267  14.9268  15.0296  15.0303  15.0739  15.0743  15.1577  15.1583
    15.2405  15.2415  15.2526  15.2527  15.2632  15.2633  15.2873  15.2883
    15.2990  15.2991  15.3309  15.3309  15.3624  15.3632  15.3689  15.3690
    15.4138  15.4152  15.4613  15.4616  15.6283  15.6283  15.6917  15.6926
    15.7461  15.7473  15.8577  15.8585  15.8880  15.8888  16.1546  16.1546
    16.4566  16.4592  16.5387  16.5410  18.3409  18.3412  18.3822  18.3825
    20.5078  20.5081  20.5950  20.5951  20.6357  20.6359  20.7286  20.7289
    20.7358  20.7359  21.1570  21.1577  21.1858  21.1864  22.1615  22.1619
    22.1798  22.1802  22.3564  22.3580  22.6981  22.7000  23.8397  23.8450
    23.8617

          k =-0.5000 0.0589 0.0000 ( 17814 PWs)   bands (ev):

     9.3893   9.3894   9.4721   9.4722   9.6986   9.6987   9.7743   9.7751
     9.8551   9.8565   9.9060   9.9065   9.9687   9.9700   9.9924   9.9936
    10.0214  10.0227  10.1142  10.1155  10.9723  10.9730  11.0133  11.0142
    11.0604  11.0612  11.0662  11.0666  11.1076  11.1077  11.2794  11.2808
    11.3664  11.3669  11.6320  11.6344  11.6755  11.6779  11.7465  11.7470
    11.7735  11.7741  11.9285  11.9286  12.0390  12.0396  12.0671  12.0682
    12.1701  12.1709  12.2628  12.2639  12.2833  12.2842  12.2971  12.2985
    12.3198  12.3207  12.4547  12.4549  12.4832  12.4850  12.5042  12.5060
    12.5339  12.5345  12.6115  12.6119  12.6332  12.6335  12.6354  12.6358
    12.6561  12.6564  12.6822  12.6838  12.7434  12.7441  12.8203  12.8207
    12.9142  12.9164  12.9783  12.9805  13.0462  13.0464  13.0642  13.0647
    13.4144  13.4147  13.4662  13.4670  13.5472  13.5485  13.6016  13.6029
    13.7820  13.7824  13.8133  13.8137  13.8609  13.8610  14.0601  14.0606
    14.0835  14.0841  14.1778  14.1780  14.6260  14.6262  14.6687  14.6691
    14.9148  14.9152  14.9825  14.9830  15.0310  15.0318  15.0434  15.0439
    15.1235  15.1242  15.1307  15.1310  15.2034  15.2035  15.2230  15.2234
    15.2295  15.2300  15.2591  15.2594  15.2689  15.2696  15.2835  15.2835
    15.5241  15.5243  15.5479  15.5488  15.6171  15.6171  15.8240  15.8247
    15.8442  15.8449  15.8789  15.8794  15.9064  15.9069  16.1409  16.1410
    16.6523  16.6546  16.7603  16.7623  18.1352  18.1358  18.1781  18.1786
    20.0325  20.0335  20.1192  20.1201  20.8401  20.8402  20.9286  20.9290
    20.9509  20.9511  21.7513  21.7520  21.8247  21.8252  21.9473  21.9478
    22.0272  22.0281  22.3701  22.3717  22.7073  22.7093  24.1980  24.2001
    24.2810

          k =-0.5000 0.1179 0.0000 ( 17794 PWs)   bands (ev):

     9.4524   9.4526   9.5016   9.5016   9.7891   9.7893   9.8660   9.8667
     9.9468   9.9481   9.9966   9.9971  10.0057  10.0069  10.0305  10.0318
    10.1265  10.1278  10.2219  10.2232  11.0199  11.0204  11.0658  11.0663
    11.1033  11.1039  11.1284  11.1293  11.1460  11.1462  11.3090  11.3103
    11.3946  11.3951  11.6148  11.6153  11.6347  11.6360  11.7017  11.7035
    11.7472  11.7485  11.9280  11.9282  12.0898  12.0904  12.0917  12.0923
    12.1353  12.1361  12.1846  12.1858  12.2455  12.2470  12.2503  12.2512
    12.2798  12.2807  12.3748  12.3757  12.3901  12.3918  12.4182  12.4198
    12.4861  12.4870  12.5374  12.5380  12.6280  12.6287  12.6842  12.6852
    12.7331  12.7333  12.7335  12.7335  12.7545  12.7549  12.7821  12.7832
    12.9051  12.9056  12.9528  12.9539  13.0265  13.0276  13.0920  13.0924
    13.5470  13.5482  13.5569  13.5572  13.6037  13.6048  13.6050  13.6058
    13.6583  13.6592  13.6847  13.6857  14.0549  14.0554  14.0647  14.0652
    14.1057  14.1063  14.1414  14.1418  14.3757  14.3760  14.4195  14.4197
    14.4942  14.4945  14.6452  14.6460  14.6718  14.6718  14.7929  14.7938
    14.8381  14.8391  15.0189  15.0193  15.0659  15.0662  15.0671  15.0671
    15.1154  15.1159  15.1500  15.1502  15.4619  15.4622  15.4945  15.4947
    15.5651  15.5661  15.5857  15.5858  15.5903  15.5906  15.7155  15.7164
    15.7284  15.7292  16.0821  16.0822  16.1946  16.1949  16.2188  16.2192
    17.1016  17.1035  17.2317  17.2332  17.7427  17.7432  17.7842  17.7846
    19.3543  19.3553  19.4353  19.4363  21.2685  21.2692  21.3746  21.3755
    21.4805  21.4807  21.7021  21.7022  21.7326  21.7329  22.4141  22.4157
    22.7376  22.7395  22.8687  22.8692  22.9451  22.9462  24.8792  24.9225
    24.9246

          k =-0.5000 0.1768 0.0000 ( 17756 PWs)   bands (ev):

     9.5364   9.5365   9.5455   9.5456   9.9280   9.9286  10.0105  10.0111
    10.0620  10.0633  10.0811  10.0825  10.0891  10.0905  10.1254  10.1261
    10.2923  10.2937  10.3899  10.3913  11.0787  11.0788  11.1279  11.1282
    11.1727  11.1739  11.2061  11.2068  11.2531  11.2540  11.3774  11.3783
    11.4439  11.4444  11.4606  11.4613  11.4747  11.4756  11.7708  11.7731
    11.8282  11.8298  11.9396  11.9399  11.9798  11.9804  12.0702  12.0714
    12.1120  12.1127  12.1396  12.1408  12.1747  12.1757  12.2032  12.2039
    12.2673  12.2687  12.2762  12.2770  12.3238  12.3244  12.3611  12.3619
    12.3780  12.3786  12.4142  12.4149  12.5896  12.5905  12.6261  12.6274
    12.7457  12.7467  12.7750  12.7761  12.8635  12.8639  12.8857  12.8860
    12.9173  12.9175  13.0259  13.0266  13.1349  13.1356  13.1622  13.1628
    13.3345  13.3348  13.3537  13.3540  13.6499  13.6505  13.6874  13.6881
    13.7200  13.7204  13.7690  13.7697  13.9564  13.9566  13.9975  13.9978
    14.0514  14.0518  14.0723  14.0725  14.1177  14.1182  14.1253  14.1256
    14.1666  14.1670  14.2104  14.2107  14.4408  14.4409  14.5825  14.5835
    14.6127  14.6137  14.7936  14.7941  14.8373  14.8377  14.9134  14.9139
    14.9568  14.9571  15.1439  15.1439  15.5221  15.5230  15.5231  15.5234
    15.5652  15.5661  15.5722  15.5728  15.6033  15.6035  15.7401  15.7405
    15.7679  15.7682  15.9647  15.9648  16.5374  16.5376  16.5614  16.5617
    17.3692  17.3696  17.4060  17.4063  17.6447  17.6462  17.7756  17.7769
    18.7868  18.7877  18.8579  18.8589  20.7710  20.7719  20.8699  20.8706
    22.3204  22.3204  22.4968  22.4983  22.6637  22.6640  22.6977  22.6979
    22.7966  22.7985  23.9276  23.9279  24.0053  24.0064  24.5335  24.5477
    24.5494

          k =-0.5000 0.2357 0.0000 ( 17778 PWs)   bands (ev):

     9.5959   9.5960   9.6136   9.6137  10.0865  10.0876  10.1287  10.1301
    10.1603  10.1616  10.1884  10.1888  10.2266  10.2275  10.2740  10.2746
    10.5040  10.5055  10.6010  10.6025  11.0765  11.0770  11.1373  11.1382
    11.2136  11.2152  11.2744  11.2761  11.3186  11.3188  11.3324  11.3335
    11.4388  11.4394  11.5161  11.5164  11.6057  11.6068  11.8520  11.8526
    11.8548  11.8563  11.9211  11.9227  11.9298  11.9311  11.9680  11.9682
    12.0083  12.0089  12.0566  12.0581  12.0733  12.0744  12.1516  12.1532
    12.1591  12.1599  12.2352  12.2362  12.2578  12.2583  12.3039  12.3043
    12.4398  12.4401  12.4408  12.4409  12.5266  12.5275  12.5293  12.5305
    12.6583  12.6597  12.9151  12.9158  12.9517  12.9523  12.9725  12.9730
    13.0292  13.0298  13.0581  13.0585  13.0764  13.0766  13.1584  13.1587
    13.2727  13.2732  13.2865  13.2869  13.4422  13.4425  13.6418  13.6424
    13.6543  13.6550  13.7079  13.7091  13.7641  13.7647  13.7852  13.7858
    13.8759  13.8763  13.9003  13.9007  13.9078  13.9082  13.9602  13.9608
    13.9842  13.9844  14.0251  14.0257  14.4138  14.4149  14.4524  14.4530
    14.5613  14.5622  14.5822  14.5826  14.7015  14.7019  14.7417  14.7418
    14.7439  14.7443  15.2232  15.2233  15.4172  15.4176  15.4672  15.4678
    15.4837  15.4847  15.5345  15.5348  15.5361  15.5369  15.7925  15.7926
    15.9960  15.9963  16.0240  16.0244  16.8853  16.8854  16.9061  16.9062
    17.0512  17.0516  17.0827  17.0830  18.2154  18.2167  18.3212  18.3220
    18.3315  18.3327  18.3782  18.3790  20.3041  20.3050  20.3632  20.3640
    22.6320  22.6335  22.8973  22.8990  23.3279  23.3280  23.7317  23.7321
    23.7669  23.7671  23.9973  23.9983  24.0434  24.0444  25.0335  25.0342
    25.1122

          k =-0.5000 0.2946 0.0000 ( 17762 PWs)   bands (ev):

     9.6412   9.6412   9.6602   9.6603  10.1908  10.1922  10.1983  10.1998
    10.2307  10.2321  10.2805  10.2817  10.4248  10.4259  10.4700  10.4705
    10.7394  10.7410  10.8328  10.8344  10.9099  10.9109  10.9470  10.9478
    11.1242  11.1256  11.2037  11.2043  11.4200  11.4211  11.4545  11.4560
    11.6743  11.6748  11.7029  11.7031  11.7482  11.7485  11.7735  11.7747
    11.8718  11.8727  11.8831  11.8843  11.9273  11.9285  11.9376  11.9385
    11.9732  11.9743  12.0301  12.0320  12.0442  12.0459  12.1082  12.1095
    12.1343  12.1355  12.1413  12.1421  12.2388  12.2390  12.2673  12.2676
    12.3265  12.3270  12.4044  12.4052  12.5203  12.5217  12.5635  12.5640
    12.5830  12.5839  12.6552  12.6560  12.7585  12.7592  12.8592  12.8593
    13.0800  13.0806  13.1946  13.1951  13.2231  13.2235  13.2495  13.2500
    13.2986  13.2988  13.3440  13.3448  13.3896  13.3904  13.4167  13.4176
    13.4861  13.4868  13.5899  13.5904  13.6089  13.6092  13.6655  13.6660
    13.6773  13.6782  13.7283  13.7289  13.7331  13.7335  13.8732  13.8738
    14.0976  14.0980  14.1332  14.1337  14.3152  14.3165  14.3564  14.3571
    14.3631  14.3638  14.3767  14.3779  14.5062  14.5066  14.5443  14.5451
    15.0380  15.0381  15.2945  15.2946  15.3578  15.3583  15.4225  15.4230
    15.4399  15.4409  15.4860  15.4863  15.4968  15.4975  15.5752  15.5753
    16.2529  16.2532  16.2802  16.2805  16.7717  16.7720  16.7995  16.7998
    17.2299  17.2301  17.2495  17.2497  17.9272  17.9279  17.9683  17.9690
    18.7840  18.7852  18.8709  18.8720  19.8472  19.8478  19.8603  19.8609
    22.8377  22.8391  23.0567  23.0583  23.5208  23.5219  23.6213  23.6225
    24.4316  24.4317  24.8642  24.8645  24.8979  24.8981  26.0686  26.0693
    26.1537

          k =-0.5000-0.3536 0.0000 ( 17712 PWs)   bands (ev):

     9.6672   9.6672   9.6673   9.6673  10.2248  10.2248  10.2263  10.2263
    10.2802  10.2802  10.2815  10.2815  10.6670  10.6670  10.6682  10.6682
    10.7047  10.7047  10.7054  10.7054  10.9631  10.9631  10.9647  10.9647
    11.0516  11.0516  11.0530  11.0530  11.5623  11.5623  11.5634  11.5634
    11.6099  11.6099  11.6112  11.6112  11.8601  11.8601  11.8611  11.8611
    11.9279  11.9279  11.9282  11.9282  11.9477  11.9477  11.9479  11.9479
    12.0036  12.0036  12.0040  12.0040  12.1000  12.1000  12.1005  12.1005
    12.2065  12.2065  12.2073  12.2073  12.2747  12.2747  12.2758  12.2758
    12.3002  12.3002  12.3013  12.3013  12.3423  12.3423  12.3432  12.3432
    12.4138  12.4138  12.4144  12.4144  12.9130  12.9130  12.9141  12.9141
    13.0402  13.0402  13.0411  13.0411  13.3223  13.3223  13.3233  13.3233
    13.4048  13.4048  13.4049  13.4049  13.4598  13.4598  13.4613  13.4613
    13.5250  13.5250  13.5253  13.5253  13.5420  13.5420  13.5423  13.5423
    13.5671  13.5671  13.5673  13.5673  13.7039  13.7039  13.7043  13.7043
    14.2213  14.2213  14.2223  14.2223  14.2739  14.2739  14.2749  14.2749
    14.3419  14.3419  14.3424  14.3424  14.3858  14.3858  14.3873  14.3873
    15.3158  15.3158  15.3160  15.3160  15.3419  15.3419  15.3420  15.3421
    15.4157  15.4157  15.4162  15.4162  15.4701  15.4701  15.4704  15.4704
    16.5098  16.5098  16.5101  16.5101  16.5365  16.5365  16.5368  16.5368
    17.5722  17.5722  17.5727  17.5727  17.5992  17.5992  17.5996  17.5996
    19.3331  19.3331  19.3341  19.3341  19.3780  19.3780  19.3789  19.3789
    23.1313  23.1313  23.1326  23.1326  23.2935  23.2935  23.2949  23.2949
    25.5970  25.5970  25.5971  25.5971  26.0281  26.0284  26.0287  26.0357
    26.0620

     the Fermi energy is    18.2831 ev

!    total energy              =  -21704.78661441 Ry

     total all-electron energy =  -1064672.477164 Ry
     estimated scf accuracy    <          2.4E-09 Ry
     smearing contrib. (-TS)   =      -3.18130770 Ry
     internal energy E=F+TS    =  -21701.60530671 Ry

     The total energy is F=E-TS. E is the sum of the following terms:
     one-electron contribution =     457.88035198 Ry
     hartree contribution      =     195.09311476 Ry
     xc contribution           =    -900.56194703 Ry
     ewald contribution        =   -2062.81790392 Ry
     one-center paw contrib.   =  -19391.19892250 Ry

     convergence has been achieved in  21 iterations

     Forces acting on atoms (cartesian axes, Ry/au):

     atom    1 type  1   force =     0.03926557    0.00000024    0.00046629
     atom    2 type  1   force =     0.03926534   -0.00000021    0.00046300
     atom    3 type  1   force =    -0.00766356    0.00000043    0.00085801
     atom    4 type  1   force =    -0.00766351   -0.00000046    0.00085704
     atom    5 type  1   force =     0.00019594   -0.00000011   -0.00057422
     atom    6 type  1   force =     0.00019594    0.00000012   -0.00057130
     atom    7 type  1   force =     0.00009391   -0.00000036   -0.00058831
     atom    8 type  1   force =     0.00009390    0.00000034   -0.00058736
     atom    9 type  1   force =     0.00009250    0.00000015   -0.00018222
     atom   10 type  1   force =     0.00009255   -0.00000016   -0.00018379
     atom   11 type  1   force =     0.00019520    0.00000010    0.00015555
     atom   12 type  1   force =     0.00019520   -0.00000010    0.00015469
     atom   13 type  1   force =    -0.00762392   -0.00000013    0.00053812
     atom   14 type  1   force =    -0.00762401    0.00000017    0.00053719
     atom   15 type  1   force =     0.03928889    0.00000038   -0.00017541
     atom   16 type  1   force =     0.03928881   -0.00000039   -0.00017496
     atom   17 type  1   force =    -0.03934680    0.00000002   -0.00020272
     atom   18 type  1   force =    -0.03934702    0.00000003   -0.00020024
     atom   19 type  1   force =     0.00766635   -0.00000032   -0.00002587
     atom   20 type  1   force =     0.00766636    0.00000033   -0.00002506
     atom   21 type  1   force =    -0.00027271    0.00000014    0.00045858
     atom   22 type  1   force =    -0.00027263   -0.00000013    0.00045628
     atom   23 type  1   force =    -0.00027234    0.00000037    0.00028144
     atom   24 type  1   force =    -0.00027235   -0.00000038    0.00028022
     atom   25 type  1   force =     0.00767424   -0.00000019   -0.00059207
     atom   26 type  1   force =     0.00767409    0.00000016   -0.00058946
     atom   27 type  1   force =    -0.03929306   -0.00000049   -0.00041740
     atom   28 type  1   force =    -0.03929289    0.00000045   -0.00041603

     Total force =     0.002389     Total SCF correction =     0.000148
     Energy error            =      2.0E-05 Ry
     Gradient error          =      8.6E-04 Ry/Bohr

     bfgs converged in  16 scf cycles and  15 bfgs steps
     (criteria: energy <  1.0E-04 Ry, force <  1.0E-03 Ry/Bohr)

     End of BFGS Geometry Optimization

     Final energy             =  -21704.7866144118 Ry

     File ./pwscf.bfgs deleted, as requested
Begin final coordinates

ATOMIC_POSITIONS (angstrom)
Au            2.0400000000        1.4424978336        0.6901748407    0   0   1
Au            2.0400000000        4.3274935009        0.6901781016    0   0   1
Au            0.0000000000        0.0000000000        1.9979150018    0   0   1
Au            0.0000000000        2.8849956672        1.9979155351    0   0   1
Au            2.0400000000        1.4424978336        3.3588175953    0   0   1
Au            2.0400000000        4.3274935009        3.3588151308    0   0   1
Au            0.0000000000        0.0000000000        4.6829473073    0   0   1
Au            0.0000000000        2.8849956672        4.6829461942    0   0   1
Au            2.0400000000        1.4424978336        6.0339719216    0   0   1
Au            2.0400000000        4.3274935009        6.0339740704    0   0   1
Au            0.0000000000        0.0000000000        7.3580846190    0   0   1
Au            0.0000000000        2.8849956672        7.3580849914    0   0   1
Au            2.0400000000        1.4424978336        8.7161381794    0   0   1
Au            2.0400000000        4.3274935009        8.7161398165    0   0   1
Au            0.0000000000        0.0000000000       10.0256155042    0   0   1
Au            0.0000000000        2.8849956672       10.0256144802    0   0   1
Au            2.2440000000        1.4424978336       11.4054566022    0   0   1
Au            2.2440000000        4.3274935009       11.4054540627    0   0   1
Au            0.2040000000        0.0000000000       12.7124453350    0   0   1
Au            0.2040000000        2.8849956672       12.7124437515    0   0   1
Au            2.2440000000        1.4424978336       14.0744815664    0   0   1
Au            2.2440000000        4.3274935009       14.0744831889    0   0   1
Au            0.2040000000        0.0000000000       15.3925788717    0   0   1
Au            0.2040000000        2.8849956672       15.3925794809    0   0   1
Au            2.2440000000        1.4424978336       16.7561084244    0   0   1
Au            2.2440000000        4.3274935009       16.7561059279    0   0   1
Au            0.2040000000        0.0000000000       18.0625684660    0   0   1
Au            0.2040000000        2.8849956672       18.0625667518    0   0   1
End final coordinates



     Writing all to output data dir ./pwscf.save/
 
     init_run     :     19.79s CPU     20.88s WALL (       1 calls)
     electrons    :  32419.35s CPU  32638.87s WALL (      16 calls)
     update_pot   :      6.76s CPU      6.80s WALL (      15 calls)
     forces       :    143.44s CPU    144.15s WALL (      16 calls)

     Called by init_run:
     wfcinit      :     19.16s CPU     19.56s WALL (       1 calls)
     potinit      :      0.40s CPU      0.67s WALL (       1 calls)
     hinit0       :      0.13s CPU      0.40s WALL (       1 calls)

     Called by electrons:
     c_bands      :  29222.08s CPU  29406.56s WALL (     610 calls)
     sum_band     :   2983.76s CPU   3010.62s WALL (     610 calls)
     v_of_rho     :     11.50s CPU     12.83s WALL (     622 calls)
     newd         :     29.89s CPU     34.91s WALL (     622 calls)
     PAW_pot      :    176.93s CPU    177.55s WALL (     637 calls)
     mix_rho      :      3.31s CPU      3.32s WALL (     610 calls)

     Called by c_bands:
     init_us_2    :    123.31s CPU    123.87s WALL (   62600 calls)
     init_us_2:cp :    123.11s CPU    123.75s WALL (   62600 calls)
     cegterg      :  27809.35s CPU  27986.66s WALL (   30578 calls)

     Called by *egterg:
     cdiaghg      :   2482.38s CPU   2502.68s WALL (  105255 calls)
     h_psi        :  13271.57s CPU  13381.66s WALL (  106333 calls)
     s_psi        :   2420.39s CPU   2429.43s WALL (  106333 calls)
     g_psi        :     46.20s CPU     46.52s WALL (   75705 calls)

     Called by h_psi:
     h_psi:calbec :   2722.94s CPU   2732.74s WALL (  106333 calls)
     vloc_psi     :   8005.74s CPU   8093.13s WALL (  106333 calls)
     add_vuspsi   :   2501.62s CPU   2511.95s WALL (  106333 calls)

     General routines
     calbec       :   3918.14s CPU   3932.07s WALL (  140783 calls)
     fft          :     18.04s CPU     20.06s WALL (    8249 calls)
     ffts         :      0.85s CPU      0.91s WALL (    1232 calls)
     fftw         :   9038.94s CPU   9130.60s WALL (33998602 calls)
     interpolate  :      1.31s CPU      1.44s WALL (     622 calls)
 
     Parallel routines
 
     PWSCF        :      9h 3m CPU      9h 7m WALL

 
   This run was terminated on:  17:15:40  11Mar2024            

=------------------------------------------------------------------------------=
   JOB DONE.
=------------------------------------------------------------------------------=
