MPI startup(): Warning: I_MPI_PMI_LIBRARY will be ignored since the hydra process manager was found
MPI startup(): Warning: I_MPI_PMI_LIBRARY will be ignored since the hydra process manager was found
MPI startup(): Warning: I_MPI_PMI_LIBRARY will be ignored since the hydra process manager was found
MPI startup(): Warning: I_MPI_PMI_LIBRARY will be ignored since the hydra process manager was found
MPI startup(): Warning: I_MPI_PMI_LIBRARY will be ignored since the hydra process manager was found
MPI startup(): Warning: I_MPI_PMI_LIBRARY will be ignored since the hydra process manager was found
MPI startup(): Warning: I_MPI_PMI_LIBRARY will be ignored since the hydra process manager was found
MPI startup(): Warning: I_MPI_PMI_LIBRARY will be ignored since the hydra process manager was found
MPI startup(): Warning: I_MPI_PMI_LIBRARY will be ignored since the hydra process manager was found
MPI startup(): Warning: I_MPI_PMI_LIBRARY will be ignored since the hydra process manager was found
MPI startup(): Warning: I_MPI_PMI_LIBRARY will be ignored since the hydra process manager was found
MPI startup(): Warning: I_MPI_PMI_LIBRARY will be ignored since the hydra process manager was found

     Program PWSCF v.7.0 starts on 15Nov2023 at 19: 6:10 

     This program is part of the open-source Quantum ESPRESSO suite
     for quantum simulation of materials; please cite
         "P. Giannozzi et al., J. Phys.:Condens. Matter 21 395502 (2009);
         "P. Giannozzi et al., J. Phys.:Condens. Matter 29 465901 (2017);
         "P. Giannozzi et al., J. Chem. Phys. 152 154105 (2020);
          URL http://www.quantum-espresso.org", 
     in publications or presentations arising from this work. More details at
     http://www.quantum-espresso.org/quote

     Parallel version (MPI), running on    12 processors

     MPI processes distributed on     1 nodes
     K-points division:     npool     =       4
     R & G space division:  proc/nbgrp/npool/nimage =       3
     106230 MiB available memory on the printing compute node when the environment starts
 
     Waiting for input...
     Reading input from standard input

     Current dimensions of program PWSCF are:
     Max number of different atomic species (ntypx) = 10
     Max number of k-points (npk) =  40000
     Max angular momentum in pseudopotentials (lmaxx) =  4
     file Au.UPF: wavefunction(s)  6S 5D renormalized
     Found identity + ( -0.5000 -0.5000  0.0000) symmetry
     This is a supercell, fractional translations are disabled

     Subspace diagonalization in iterative solution of the eigenvalue problem:
     a serial algorithm will be used

 
     Parallelization info
     --------------------
     sticks:   dense  smooth     PW     G-vecs:    dense   smooth      PW
     Min         226     226     73                 4505     4505     791
     Max         229     229     75                 4506     4506     791
     Sum         681     681    221                13517    13517    2373
 
     Using Slab Decomposition
 


     bravais-lattice index     =            0
     lattice parameter (alat)  =       6.0000  a.u.
     unit-cell volume          =     216.0000 (a.u.)^3
     number of atoms/cell      =            4
     number of atomic types    =            1
     number of electrons       =        44.00
     number of Kohn-Sham states=           26
     kinetic-energy cutoff     =      60.0000  Ry
     charge density cutoff     =     240.0000  Ry
     scf convergence threshold =      1.0E-09
     mixing beta               =       0.7000
     number of iterations used =            8  plain     mixing
     Exchange-correlation= SLA  PW   PBX  PBC
                           (   1   4   3   4   0   0   0)

     celldm(1)=   6.000000  celldm(2)=   0.000000  celldm(3)=   0.000000
     celldm(4)=   0.000000  celldm(5)=   0.000000  celldm(6)=   0.000000

     crystal axes: (cart. coord. in units of alat)
               a(1) = (   1.000000   0.000000   0.000000 )  
               a(2) = (   0.000000   1.000000   0.000000 )  
               a(3) = (   0.000000   0.000000   1.000000 )  

     reciprocal axes: (cart. coord. in units 2 pi/alat)
               b(1) = (  1.000000  0.000000  0.000000 )  
               b(2) = (  0.000000  1.000000  0.000000 )  
               b(3) = (  0.000000  0.000000  1.000000 )  


     PseudoPot. # 1 for Au read from file:
     ./Au.UPF
     MD5 check sum: 4db85c736373c707a97ce4c36c2a9d23
     Pseudo is Projector augmented-wave + core cor, Zval = 11.0
     Generated using &quot;atomic&quot; code by A. Dal Corso  v.6.3
     Shape of augmentation charge: PSQ
     Using radial grid of 1279 points,  6 beta functions with: 
                l(1) =   0
                l(2) =   0
                l(3) =   1
                l(4) =   1
                l(5) =   2
                l(6) =   2
     Q(r) pseudized with 0 coefficients 


     atomic species   valence    mass     pseudopotential
        Au            11.00   196.96657     Au( 1.00)

     No symmetry found



   Cartesian axes

     site n.     atom                  positions (alat units)
         1           Au  tau(   1) = (   0.0000000   0.0000000   0.0000000  )
         2           Au  tau(   2) = (   0.5000000   0.5000000   0.0000000  )
         3           Au  tau(   3) = (   0.5000000   0.0000000   0.5000000  )
         4           Au  tau(   4) = (   0.0000000   0.5000000   0.5000000  )

     number of k points=   868  Gaussian smearing, width (Ry)=  0.0200

     Number of k-points >= 100: set verbosity='high' to print them.

     Dense  grid:    13517 G-vectors     FFT dimensions: (  30,  30,  30)

     Estimated max dynamical RAM per process >      56.70 MB

     Estimated total dynamical RAM >     670.51 MB

     Initial potential from superposition of free atoms

     starting charge      43.9996, renormalised to      44.0000
     Starting wfcs are   36 randomized atomic wfcs
     Checking if some PAW data can be deallocated... 

     total cpu time spent up to now is        6.6 secs

     Self-consistent Calculation

     iteration #  1     ecut=    60.00 Ry     beta= 0.70
     Davidson diagonalization with overlap
     ethr =  1.00E-02,  avg # of iterations =  5.4

     Threshold (ethr) on eigenvalues was too large:
     Diagonalizing with lowered threshold

     Davidson diagonalization with overlap
     ethr =  4.00E-04,  avg # of iterations =  6.0

     total cpu time spent up to now is       21.4 secs

     total energy              =   -3096.16425596 Ry
     estimated scf accuracy    <       0.11870810 Ry

     iteration #  2     ecut=    60.00 Ry     beta= 0.70
     Davidson diagonalization with overlap
     ethr =  2.70E-04,  avg # of iterations =  2.5

     total cpu time spent up to now is       26.4 secs

     total energy              =   -3096.18863652 Ry
     estimated scf accuracy    <       0.01117674 Ry

     iteration #  3     ecut=    60.00 Ry     beta= 0.70
     Davidson diagonalization with overlap
     c_bands:  1 eigenvalues not converged
     c_bands:  1 eigenvalues not converged
     c_bands:  1 eigenvalues not converged
     c_bands:  1 eigenvalues not converged
     c_bands:  1 eigenvalues not converged
     ethr =  2.54E-05,  avg # of iterations =  6.0

     total cpu time spent up to now is       34.0 secs

     total energy              =   -3096.19424787 Ry
     estimated scf accuracy    <       0.00050600 Ry

     iteration #  4     ecut=    60.00 Ry     beta= 0.70
     Davidson diagonalization with overlap
     c_bands:  1 eigenvalues not converged
     c_bands:  1 eigenvalues not converged
     c_bands:  1 eigenvalues not converged
     c_bands:  1 eigenvalues not converged
     c_bands:  2 eigenvalues not converged
     c_bands:  1 eigenvalues not converged
     c_bands:  1 eigenvalues not converged
     c_bands:  1 eigenvalues not converged
     c_bands:  1 eigenvalues not converged
     c_bands:  1 eigenvalues not converged
     c_bands:  1 eigenvalues not converged
     c_bands:  2 eigenvalues not converged
     c_bands:  2 eigenvalues not converged
     c_bands:  1 eigenvalues not converged
     c_bands:  1 eigenvalues not converged
     c_bands:  2 eigenvalues not converged
     c_bands:  1 eigenvalues not converged
     ethr =  1.15E-06,  avg # of iterations =  7.5

     total cpu time spent up to now is       43.3 secs

     total energy              =   -3096.19475825 Ry
     estimated scf accuracy    <       0.00016259 Ry

     iteration #  5     ecut=    60.00 Ry     beta= 0.70
     Davidson diagonalization with overlap
     c_bands:  1 eigenvalues not converged
     c_bands:  1 eigenvalues not converged
     ethr =  3.70E-07,  avg # of iterations =  3.3

     total cpu time spent up to now is       49.0 secs

     total energy              =   -3096.19480452 Ry
     estimated scf accuracy    <       0.00000959 Ry

     iteration #  6     ecut=    60.00 Ry     beta= 0.70
     Davidson diagonalization with overlap
     ethr =  2.18E-08,  avg # of iterations =  6.9

     total cpu time spent up to now is       58.6 secs

     total energy              =   -3096.19481559 Ry
     estimated scf accuracy    <       0.00000861 Ry

     iteration #  7     ecut=    60.00 Ry     beta= 0.70
     Davidson diagonalization with overlap
     c_bands:  1 eigenvalues not converged
     ethr =  1.96E-08,  avg # of iterations =  2.2

     total cpu time spent up to now is       63.1 secs

     total energy              =   -3096.19481624 Ry
     estimated scf accuracy    <       0.00000101 Ry

     iteration #  8     ecut=    60.00 Ry     beta= 0.70
     Davidson diagonalization with overlap
     ethr =  2.29E-09,  avg # of iterations =  5.0

     total cpu time spent up to now is       70.2 secs

     total energy              =   -3096.19481677 Ry
     estimated scf accuracy    <       0.00000006 Ry

     iteration #  9     ecut=    60.00 Ry     beta= 0.70
     Davidson diagonalization with overlap
     ethr =  1.44E-10,  avg # of iterations =  7.2

     total cpu time spent up to now is       81.1 secs

     total energy              =   -3096.19481691 Ry
     estimated scf accuracy    <       0.00000001 Ry

     iteration # 10     ecut=    60.00 Ry     beta= 0.70
     Davidson diagonalization with overlap
     ethr =  2.70E-11,  avg # of iterations =  3.2

     total cpu time spent up to now is       86.6 secs

     total energy              =   -3096.19481691 Ry
     estimated scf accuracy    <          8.2E-09 Ry

     iteration # 11     ecut=    60.00 Ry     beta= 0.70
     Davidson diagonalization with overlap
     ethr =  1.86E-11,  avg # of iterations =  2.0

     total cpu time spent up to now is       90.8 secs

     End of self-consistent calculation

     Number of k-points >= 100: set verbosity='high' to print the bands.

     the Fermi energy is    43.6399 ev

!    total energy              =   -3096.19481691 Ry

     total all-electron energy =   -152091.579181 Ry
     estimated scf accuracy    <          7.3E-10 Ry
     smearing contrib. (-TS)   =      -0.00148525 Ry
     internal energy E=F+TS    =   -3096.19333166 Ry

     The total energy is F=E-TS. E is the sum of the following terms:
     one-electron contribution =     168.82180636 Ry
     hartree contribution      =      11.29058297 Ry
     xc contribution           =    -134.45213220 Ry
     ewald contribution        =    -369.84554067 Ry
     one-center paw contrib.   =   -2772.00804813 Ry

     convergence has been achieved in  11 iterations

     Forces acting on atoms (cartesian axes, Ry/au):

     atom    1 type  1   force =    -0.00000169   -0.00000000    0.00000137
     atom    2 type  1   force =     0.00000118    0.00000003    0.00000102
     atom    3 type  1   force =     0.00000187   -0.00000017   -0.00000144
     atom    4 type  1   force =    -0.00000136    0.00000014   -0.00000095

     Total force =     0.000004     Total SCF correction =     0.000004
     SCF correction compared to forces is large: reduce conv_thr to get better values


     Computing stress (Cartesian axis) and pressure

          total   stress  (Ry/bohr**3)                   (kbar)     P=    10958.24
   0.07449262   0.00000000  -0.00000000        10958.24        0.00       -0.00
   0.00000000   0.07449261   0.00000000            0.00    10958.24        0.00
  -0.00000000   0.00000000   0.07449263           -0.00        0.00    10958.24


     Writing all to output data dir ./gold.save/
 
     init_run     :      1.95s CPU      3.16s WALL (       1 calls)
     electrons    :     82.78s CPU     84.39s WALL (       1 calls)
     forces       :      0.39s CPU      0.43s WALL (       1 calls)
     stress       :      1.22s CPU      1.24s WALL (       1 calls)

     Called by init_run:
     wfcinit      :      1.73s CPU      2.23s WALL (       1 calls)
     potinit      :      0.06s CPU      0.22s WALL (       1 calls)
     hinit0       :      0.08s CPU      0.35s WALL (       1 calls)

     Called by electrons:
     c_bands      :     75.36s CPU     76.63s WALL (      12 calls)
     sum_band     :      6.78s CPU      6.93s WALL (      12 calls)
     v_of_rho     :      0.05s CPU      0.13s WALL (      12 calls)
     newd         :      0.03s CPU      0.08s WALL (      12 calls)
     PAW_pot      :      0.60s CPU      0.74s WALL (      12 calls)
     mix_rho      :      0.01s CPU      0.02s WALL (      12 calls)

     Called by c_bands:
     init_us_2    :      0.73s CPU      0.74s WALL (    5859 calls)
     init_us_2:cp :      0.72s CPU      0.73s WALL (    5859 calls)
     cegterg      :     61.48s CPU     62.53s WALL (    2604 calls)

     Called by *egterg:
     cdiaghg      :      9.21s CPU      9.38s WALL (   15350 calls)
     h_psi        :     40.74s CPU     41.96s WALL (   15784 calls)
     s_psi        :      2.79s CPU      2.84s WALL (   15784 calls)
     g_psi        :      0.30s CPU      0.31s WALL (   12963 calls)

     Called by h_psi:
     h_psi:calbec :      3.04s CPU      3.12s WALL (   15784 calls)
     vloc_psi     :     34.74s CPU     35.82s WALL (   15784 calls)
     add_vuspsi   :      2.79s CPU      2.85s WALL (   15784 calls)

     General routines
     calbec       :      4.05s CPU      4.15s WALL (   19473 calls)
     fft          :      0.05s CPU      0.26s WALL (     158 calls)
     ffts         :      0.00s CPU      0.01s WALL (      12 calls)
     fftw         :     36.78s CPU     37.91s WALL (  565342 calls)
 
     Parallel routines
 
     PWSCF        :   1m27.03s CPU   1m38.03s WALL

 
   This run was terminated on:  19: 7:49  15Nov2023            

=------------------------------------------------------------------------------=
   JOB DONE.
=------------------------------------------------------------------------------=
