MPI startup(): Warning: I_MPI_PMI_LIBRARY will be ignored since the hydra process manager was found
MPI startup(): Warning: I_MPI_PMI_LIBRARY will be ignored since the hydra process manager was found
MPI startup(): Warning: I_MPI_PMI_LIBRARY will be ignored since the hydra process manager was found
MPI startup(): Warning: I_MPI_PMI_LIBRARY will be ignored since the hydra process manager was found
MPI startup(): Warning: I_MPI_PMI_LIBRARY will be ignored since the hydra process manager was found
MPI startup(): Warning: I_MPI_PMI_LIBRARY will be ignored since the hydra process manager was found
MPI startup(): Warning: I_MPI_PMI_LIBRARY will be ignored since the hydra process manager was found
MPI startup(): Warning: I_MPI_PMI_LIBRARY will be ignored since the hydra process manager was found
MPI startup(): Warning: I_MPI_PMI_LIBRARY will be ignored since the hydra process manager was found
MPI startup(): Warning: I_MPI_PMI_LIBRARY will be ignored since the hydra process manager was found
MPI startup(): Warning: I_MPI_PMI_LIBRARY will be ignored since the hydra process manager was found
MPI startup(): Warning: I_MPI_PMI_LIBRARY will be ignored since the hydra process manager was found

     Program PWSCF v.7.0 starts on 16Nov2023 at 19:40:52 

     This program is part of the open-source Quantum ESPRESSO suite
     for quantum simulation of materials; please cite
         "P. Giannozzi et al., J. Phys.:Condens. Matter 21 395502 (2009);
         "P. Giannozzi et al., J. Phys.:Condens. Matter 29 465901 (2017);
         "P. Giannozzi et al., J. Chem. Phys. 152 154105 (2020);
          URL http://www.quantum-espresso.org", 
     in publications or presentations arising from this work. More details at
     http://www.quantum-espresso.org/quote

     Parallel version (MPI), running on    12 processors

     MPI processes distributed on     1 nodes
     K-points division:     npool     =       4
     R & G space division:  proc/nbgrp/npool/nimage =       3
     12180 MiB available memory on the printing compute node when the environment starts
 
     Waiting for input...
     Reading input from standard input

     Current dimensions of program PWSCF are:
     Max number of different atomic species (ntypx) = 10
     Max number of k-points (npk) =  40000
     Max angular momentum in pseudopotentials (lmaxx) =  4
     file Au.UPF: wavefunction(s)  6S 5D renormalized
     Found identity + ( -0.5000 -0.5000  0.0000) symmetry
     This is a supercell, fractional translations are disabled

     Subspace diagonalization in iterative solution of the eigenvalue problem:
     a serial algorithm will be used

 
     Parallelization info
     --------------------
     sticks:   dense  smooth     PW     G-vecs:    dense   smooth      PW
     Min         501     501    145                14686    14686    2325
     Max         502     502    146                14687    14687    2328
     Sum        1505    1505    437                44059    44059    6979
 
     Using Slab Decomposition
 


     bravais-lattice index     =            0
     lattice parameter (alat)  =       8.9000  a.u.
     unit-cell volume          =     704.9690 (a.u.)^3
     number of atoms/cell      =            4
     number of atomic types    =            1
     number of electrons       =        44.00
     number of Kohn-Sham states=           26
     kinetic-energy cutoff     =      60.0000  Ry
     charge density cutoff     =     240.0000  Ry
     scf convergence threshold =      1.0E-09
     mixing beta               =       0.7000
     number of iterations used =            8  plain     mixing
     Exchange-correlation= SLA  PW   PBX  PBC
                           (   1   4   3   4   0   0   0)

     celldm(1)=   8.900000  celldm(2)=   0.000000  celldm(3)=   0.000000
     celldm(4)=   0.000000  celldm(5)=   0.000000  celldm(6)=   0.000000

     crystal axes: (cart. coord. in units of alat)
               a(1) = (   1.000000   0.000000   0.000000 )  
               a(2) = (   0.000000   1.000000   0.000000 )  
               a(3) = (   0.000000   0.000000   1.000000 )  

     reciprocal axes: (cart. coord. in units 2 pi/alat)
               b(1) = (  1.000000  0.000000  0.000000 )  
               b(2) = (  0.000000  1.000000  0.000000 )  
               b(3) = (  0.000000  0.000000  1.000000 )  


     PseudoPot. # 1 for Au read from file:
     ./Au.UPF
     MD5 check sum: 4db85c736373c707a97ce4c36c2a9d23
     Pseudo is Projector augmented-wave + core cor, Zval = 11.0
     Generated using &quot;atomic&quot; code by A. Dal Corso  v.6.3
     Shape of augmentation charge: PSQ
     Using radial grid of 1279 points,  6 beta functions with: 
                l(1) =   0
                l(2) =   0
                l(3) =   1
                l(4) =   1
                l(5) =   2
                l(6) =   2
     Q(r) pseudized with 0 coefficients 


     atomic species   valence    mass     pseudopotential
        Au            11.00   196.96657     Au( 1.00)

     No symmetry found



   Cartesian axes

     site n.     atom                  positions (alat units)
         1           Au  tau(   1) = (   0.0000000   0.0000000   0.0000000  )
         2           Au  tau(   2) = (   0.5000000   0.5000000   0.0000000  )
         3           Au  tau(   3) = (   0.5000000   0.0000000   0.5000000  )
         4           Au  tau(   4) = (   0.0000000   0.5000000   0.5000000  )

     number of k points=   868  Gaussian smearing, width (Ry)=  0.0200

     Number of k-points >= 100: set verbosity='high' to print them.

     Dense  grid:    44059 G-vectors     FFT dimensions: (  45,  45,  45)

     Estimated max dynamical RAM per process >     182.29 MB

     Estimated total dynamical RAM >       2.10 GB

     Initial potential from superposition of free atoms

     starting charge      43.9996, renormalised to      44.0000
     Starting wfcs are   36 randomized atomic wfcs
     Checking if some PAW data can be deallocated... 

     total cpu time spent up to now is        8.3 secs

     Self-consistent Calculation

     iteration #  1     ecut=    60.00 Ry     beta= 0.70
     Davidson diagonalization with overlap
     ethr =  1.00E-02,  avg # of iterations =  2.5

     Threshold (ethr) on eigenvalues was too large:
     Diagonalizing with lowered threshold

     Davidson diagonalization with overlap
     ethr =  2.63E-04,  avg # of iterations =  3.3

     total cpu time spent up to now is       38.8 secs

     total energy              =   -3100.30708828 Ry
     estimated scf accuracy    <       0.14635616 Ry

     iteration #  2     ecut=    60.00 Ry     beta= 0.70
     Davidson diagonalization with overlap
     ethr =  3.33E-04,  avg # of iterations =  2.3

     total cpu time spent up to now is       55.1 secs

     total energy              =   -3100.35976191 Ry
     estimated scf accuracy    <       0.03229220 Ry

     iteration #  3     ecut=    60.00 Ry     beta= 0.70
     Davidson diagonalization with overlap
     ethr =  7.34E-05,  avg # of iterations =  2.1

     total cpu time spent up to now is       69.0 secs

     total energy              =   -3100.36398371 Ry
     estimated scf accuracy    <       0.00188489 Ry

     iteration #  4     ecut=    60.00 Ry     beta= 0.70
     Davidson diagonalization with overlap
     ethr =  4.28E-06,  avg # of iterations =  6.5

     total cpu time spent up to now is       95.8 secs

     total energy              =   -3100.36650828 Ry
     estimated scf accuracy    <       0.00193960 Ry

     iteration #  5     ecut=    60.00 Ry     beta= 0.70
     Davidson diagonalization with overlap
     ethr =  4.28E-06,  avg # of iterations =  1.9

     total cpu time spent up to now is      108.7 secs

     total energy              =   -3100.36561034 Ry
     estimated scf accuracy    <       0.00170735 Ry

     iteration #  6     ecut=    60.00 Ry     beta= 0.70
     Davidson diagonalization with overlap
     ethr =  3.88E-06,  avg # of iterations =  2.8

     total cpu time spent up to now is      125.5 secs

     total energy              =   -3100.36622527 Ry
     estimated scf accuracy    <       0.00004604 Ry

     iteration #  7     ecut=    60.00 Ry     beta= 0.70
     Davidson diagonalization with overlap
     ethr =  1.05E-07,  avg # of iterations =  7.6

     total cpu time spent up to now is      158.5 secs

     total energy              =   -3100.36632329 Ry
     estimated scf accuracy    <       0.00018581 Ry

     iteration #  8     ecut=    60.00 Ry     beta= 0.70
     Davidson diagonalization with overlap
     ethr =  1.05E-07,  avg # of iterations =  1.7

     total cpu time spent up to now is      171.2 secs

     total energy              =   -3100.36628854 Ry
     estimated scf accuracy    <       0.00020351 Ry

     iteration #  9     ecut=    60.00 Ry     beta= 0.70
     Davidson diagonalization with overlap
     ethr =  1.05E-07,  avg # of iterations =  1.0

     total cpu time spent up to now is      182.9 secs

     total energy              =   -3100.36621875 Ry
     estimated scf accuracy    <       0.00012992 Ry

     iteration # 10     ecut=    60.00 Ry     beta= 0.70
     Davidson diagonalization with overlap
     ethr =  1.05E-07,  avg # of iterations =  8.9

     total cpu time spent up to now is      219.3 secs

     total energy              =   -3100.36641603 Ry
     estimated scf accuracy    <       0.00110435 Ry

     iteration # 11     ecut=    60.00 Ry     beta= 0.70
     Davidson diagonalization with overlap
     ethr =  1.05E-07,  avg # of iterations =  2.5

     total cpu time spent up to now is      235.6 secs

     total energy              =   -3100.36620283 Ry
     estimated scf accuracy    <       0.00057863 Ry

     iteration # 12     ecut=    60.00 Ry     beta= 0.70
     Davidson diagonalization with overlap
     ethr =  1.05E-07,  avg # of iterations =  5.2

     total cpu time spent up to now is      258.1 secs

     total energy              =   -3100.36620187 Ry
     estimated scf accuracy    <       0.00007936 Ry

     iteration # 13     ecut=    60.00 Ry     beta= 0.70
     Davidson diagonalization with overlap
     ethr =  1.05E-07,  avg # of iterations =  5.1

     total cpu time spent up to now is      281.2 secs

     total energy              =   -3100.36624665 Ry
     estimated scf accuracy    <       0.00002792 Ry

     iteration # 14     ecut=    60.00 Ry     beta= 0.70
     Davidson diagonalization with overlap
     ethr =  6.34E-08,  avg # of iterations =  1.8

     total cpu time spent up to now is      293.9 secs

     total energy              =   -3100.36624892 Ry
     estimated scf accuracy    <       0.00000487 Ry

     iteration # 15     ecut=    60.00 Ry     beta= 0.70
     Davidson diagonalization with overlap
     ethr =  1.11E-08,  avg # of iterations =  3.2

     total cpu time spent up to now is      309.6 secs

     total energy              =   -3100.36625025 Ry
     estimated scf accuracy    <       0.00000284 Ry

     iteration # 16     ecut=    60.00 Ry     beta= 0.70
     Davidson diagonalization with overlap
     ethr =  6.45E-09,  avg # of iterations =  1.7

     total cpu time spent up to now is      322.3 secs

     total energy              =   -3100.36624906 Ry
     estimated scf accuracy    <       0.00000391 Ry

     iteration # 17     ecut=    60.00 Ry     beta= 0.70
     Davidson diagonalization with overlap
     ethr =  6.45E-09,  avg # of iterations =  1.7

     total cpu time spent up to now is      335.1 secs

     total energy              =   -3100.36624972 Ry
     estimated scf accuracy    <       0.00000135 Ry

     iteration # 18     ecut=    60.00 Ry     beta= 0.70
     Davidson diagonalization with overlap
     ethr =  3.06E-09,  avg # of iterations =  1.0

     total cpu time spent up to now is      347.0 secs

     total energy              =   -3100.36624935 Ry
     estimated scf accuracy    <       0.00000219 Ry

     iteration # 19     ecut=    60.00 Ry     beta= 0.70
     Davidson diagonalization with overlap
     ethr =  3.06E-09,  avg # of iterations =  1.0

     total cpu time spent up to now is      358.8 secs

     total energy              =   -3100.36624870 Ry
     estimated scf accuracy    <       0.00000133 Ry

     iteration # 20     ecut=    60.00 Ry     beta= 0.70
     Davidson diagonalization with overlap
     ethr =  3.03E-09,  avg # of iterations =  3.0

     total cpu time spent up to now is      374.3 secs

     total energy              =   -3100.36624897 Ry
     estimated scf accuracy    <       0.00000005 Ry

     iteration # 21     ecut=    60.00 Ry     beta= 0.70
     Davidson diagonalization with overlap
     ethr =  1.06E-10,  avg # of iterations =  5.5

     total cpu time spent up to now is      398.6 secs

     total energy              =   -3100.36624900 Ry
     estimated scf accuracy    <       0.00000003 Ry

     iteration # 22     ecut=    60.00 Ry     beta= 0.70
     Davidson diagonalization with overlap
     ethr =  5.90E-11,  avg # of iterations =  4.0

     total cpu time spent up to now is      417.8 secs

     End of self-consistent calculation

     Number of k-points >= 100: set verbosity='high' to print the bands.

     the Fermi energy is     8.0621 ev

!    total energy              =   -3100.36624901 Ry

     total all-electron energy =   -152095.750613 Ry
     estimated scf accuracy    <          6.0E-10 Ry
     smearing contrib. (-TS)   =      -0.00388597 Ry
     internal energy E=F+TS    =   -3100.36236304 Ry

     The total energy is F=E-TS. E is the sum of the following terms:
     one-electron contribution =      -1.09785459 Ry
     hartree contribution      =      47.63013124 Ry
     xc contribution           =    -127.61435006 Ry
     ewald contribution        =    -249.33407237 Ry
     one-center paw contrib.   =   -2769.94621725 Ry

     convergence has been achieved in  22 iterations

     Forces acting on atoms (cartesian axes, Ry/au):

     atom    1 type  1   force =    -0.00000035   -0.00000008    0.00000080
     atom    2 type  1   force =     0.00000032    0.00000021    0.00000141
     atom    3 type  1   force =     0.00000042   -0.00000041   -0.00000121
     atom    4 type  1   force =    -0.00000039    0.00000028   -0.00000101

     Total force =     0.000002     Total SCF correction =     0.000006
     SCF correction compared to forces is large: reduce conv_thr to get better values


     Computing stress (Cartesian axis) and pressure

          total   stress  (Ry/bohr**3)                   (kbar)     P=     -165.01
  -0.00112170   0.00000000   0.00000000         -165.01        0.00        0.00
   0.00000000  -0.00112170  -0.00000000            0.00     -165.01       -0.00
   0.00000000  -0.00000000  -0.00112170            0.00       -0.00     -165.01


     Writing all to output data dir ./gold.save/
 
     init_run     :      6.28s CPU      6.74s WALL (       1 calls)
     electrons    :    406.05s CPU    409.70s WALL (       1 calls)
     forces       :      1.03s CPU      1.07s WALL (       1 calls)
     stress       :      3.75s CPU      3.79s WALL (       1 calls)

     Called by init_run:
     wfcinit      :      5.77s CPU      5.97s WALL (       1 calls)
     potinit      :      0.07s CPU      0.13s WALL (       1 calls)
     hinit0       :      0.09s CPU      0.23s WALL (       1 calls)

     Called by electrons:
     c_bands      :    361.10s CPU    364.18s WALL (      23 calls)
     sum_band     :     43.61s CPU     44.00s WALL (      23 calls)
     v_of_rho     :      0.23s CPU      0.28s WALL (      23 calls)
     newd         :      0.14s CPU      0.18s WALL (      23 calls)
     PAW_pot      :      0.97s CPU      1.00s WALL (      23 calls)
     mix_rho      :      0.05s CPU      0.05s WALL (      23 calls)

     Called by c_bands:
     init_us_2    :      4.11s CPU      4.16s WALL (   10633 calls)
     init_us_2:cp :      4.09s CPU      4.15s WALL (   10633 calls)
     cegterg      :    315.50s CPU    318.23s WALL (    4991 calls)

     Called by *egterg:
     cdiaghg      :     12.93s CPU     13.09s WALL (   21407 calls)
     h_psi        :    246.17s CPU    248.60s WALL (   21841 calls)
     s_psi        :     11.77s CPU     11.85s WALL (   21841 calls)
     g_psi        :      1.48s CPU      1.49s WALL (   16633 calls)

     Called by h_psi:
     h_psi:calbec :     14.43s CPU     14.56s WALL (   21841 calls)
     vloc_psi     :    219.12s CPU    221.32s WALL (   21841 calls)
     add_vuspsi   :     11.88s CPU     11.97s WALL (   21841 calls)

     General routines
     calbec       :     18.80s CPU     18.98s WALL (   27917 calls)
     fft          :      0.17s CPU      0.30s WALL (     279 calls)
     ffts         :      0.01s CPU      0.02s WALL (      23 calls)
     fftw         :    239.34s CPU    241.67s WALL (  938320 calls)
 
     Parallel routines
 
     PWSCF        :   6m58.22s CPU   7m 5.13s WALL

 
   This run was terminated on:  19:47:57  16Nov2023            

=------------------------------------------------------------------------------=
   JOB DONE.
=------------------------------------------------------------------------------=
