MPI startup(): Warning: I_MPI_PMI_LIBRARY will be ignored since the hydra process manager was found
MPI startup(): Warning: I_MPI_PMI_LIBRARY will be ignored since the hydra process manager was found
MPI startup(): Warning: I_MPI_PMI_LIBRARY will be ignored since the hydra process manager was found
MPI startup(): Warning: I_MPI_PMI_LIBRARY will be ignored since the hydra process manager was found
MPI startup(): Warning: I_MPI_PMI_LIBRARY will be ignored since the hydra process manager was found
MPI startup(): Warning: I_MPI_PMI_LIBRARY will be ignored since the hydra process manager was found
MPI startup(): Warning: I_MPI_PMI_LIBRARY will be ignored since the hydra process manager was found
MPI startup(): Warning: I_MPI_PMI_LIBRARY will be ignored since the hydra process manager was found
MPI startup(): Warning: I_MPI_PMI_LIBRARY will be ignored since the hydra process manager was found
MPI startup(): Warning: I_MPI_PMI_LIBRARY will be ignored since the hydra process manager was found
MPI startup(): Warning: I_MPI_PMI_LIBRARY will be ignored since the hydra process manager was found
MPI startup(): Warning: I_MPI_PMI_LIBRARY will be ignored since the hydra process manager was found

     Program PWSCF v.7.0 starts on 16Nov2023 at 14:28:40 

     This program is part of the open-source Quantum ESPRESSO suite
     for quantum simulation of materials; please cite
         "P. Giannozzi et al., J. Phys.:Condens. Matter 21 395502 (2009);
         "P. Giannozzi et al., J. Phys.:Condens. Matter 29 465901 (2017);
         "P. Giannozzi et al., J. Chem. Phys. 152 154105 (2020);
          URL http://www.quantum-espresso.org", 
     in publications or presentations arising from this work. More details at
     http://www.quantum-espresso.org/quote

     Parallel version (MPI), running on    12 processors

     MPI processes distributed on     1 nodes
     K-points division:     npool     =       4
     R & G space division:  proc/nbgrp/npool/nimage =       3
     194422 MiB available memory on the printing compute node when the environment starts
 
     Waiting for input...
     Reading input from standard input

     Current dimensions of program PWSCF are:
     Max number of different atomic species (ntypx) = 10
     Max number of k-points (npk) =  40000
     Max angular momentum in pseudopotentials (lmaxx) =  4
     file Au.UPF: wavefunction(s)  6S 5D renormalized
     Found identity + ( -0.5000 -0.5000  0.0000) symmetry
     This is a supercell, fractional translations are disabled

     Subspace diagonalization in iterative solution of the eigenvalue problem:
     a serial algorithm will be used

 
     Parallelization info
     --------------------
     sticks:   dense  smooth     PW     G-vecs:    dense   smooth      PW
     Min         493     493    145                14309    14309    2254
     Max         494     494    146                14312    14312    2255
     Sum        1481    1481    437                42931    42931    6763
 
     Using Slab Decomposition
 


     bravais-lattice index     =            0
     lattice parameter (alat)  =       8.8000  a.u.
     unit-cell volume          =     681.4720 (a.u.)^3
     number of atoms/cell      =            4
     number of atomic types    =            1
     number of electrons       =        44.00
     number of Kohn-Sham states=           26
     kinetic-energy cutoff     =      60.0000  Ry
     charge density cutoff     =     240.0000  Ry
     scf convergence threshold =      1.0E-09
     mixing beta               =       0.7000
     number of iterations used =            8  plain     mixing
     Exchange-correlation= SLA  PW   PBX  PBC
                           (   1   4   3   4   0   0   0)

     celldm(1)=   8.800000  celldm(2)=   0.000000  celldm(3)=   0.000000
     celldm(4)=   0.000000  celldm(5)=   0.000000  celldm(6)=   0.000000

     crystal axes: (cart. coord. in units of alat)
               a(1) = (   1.000000   0.000000   0.000000 )  
               a(2) = (   0.000000   1.000000   0.000000 )  
               a(3) = (   0.000000   0.000000   1.000000 )  

     reciprocal axes: (cart. coord. in units 2 pi/alat)
               b(1) = (  1.000000  0.000000  0.000000 )  
               b(2) = (  0.000000  1.000000  0.000000 )  
               b(3) = (  0.000000  0.000000  1.000000 )  


     PseudoPot. # 1 for Au read from file:
     ./Au.UPF
     MD5 check sum: 4db85c736373c707a97ce4c36c2a9d23
     Pseudo is Projector augmented-wave + core cor, Zval = 11.0
     Generated using &quot;atomic&quot; code by A. Dal Corso  v.6.3
     Shape of augmentation charge: PSQ
     Using radial grid of 1279 points,  6 beta functions with: 
                l(1) =   0
                l(2) =   0
                l(3) =   1
                l(4) =   1
                l(5) =   2
                l(6) =   2
     Q(r) pseudized with 0 coefficients 


     atomic species   valence    mass     pseudopotential
        Au            11.00   196.96657     Au( 1.00)

     No symmetry found



   Cartesian axes

     site n.     atom                  positions (alat units)
         1           Au  tau(   1) = (   0.0000000   0.0000000   0.0000000  )
         2           Au  tau(   2) = (   0.5000000   0.5000000   0.0000000  )
         3           Au  tau(   3) = (   0.5000000   0.0000000   0.5000000  )
         4           Au  tau(   4) = (   0.0000000   0.5000000   0.5000000  )

     number of k points=   868  Gaussian smearing, width (Ry)=  0.0200

     Number of k-points >= 100: set verbosity='high' to print them.

     Dense  grid:    42931 G-vectors     FFT dimensions: (  45,  45,  45)

     Estimated max dynamical RAM per process >     176.41 MB

     Estimated total dynamical RAM >       2.04 GB

     Initial potential from superposition of free atoms

     starting charge      43.9996, renormalised to      44.0000
     Starting wfcs are   36 randomized atomic wfcs
     Checking if some PAW data can be deallocated... 

     total cpu time spent up to now is        5.8 secs

     Self-consistent Calculation

     iteration #  1     ecut=    60.00 Ry     beta= 0.70
     Davidson diagonalization with overlap
     ethr =  1.00E-02,  avg # of iterations =  2.5

     Threshold (ethr) on eigenvalues was too large:
     Diagonalizing with lowered threshold

     Davidson diagonalization with overlap
     ethr =  2.75E-04,  avg # of iterations =  3.5

     total cpu time spent up to now is       30.8 secs

     total energy              =   -3100.33087409 Ry
     estimated scf accuracy    <       0.15389685 Ry

     iteration #  2     ecut=    60.00 Ry     beta= 0.70
     Davidson diagonalization with overlap
     ethr =  3.50E-04,  avg # of iterations =  2.3

     total cpu time spent up to now is       44.1 secs

     total energy              =   -3100.38605966 Ry
     estimated scf accuracy    <       0.03285682 Ry

     iteration #  3     ecut=    60.00 Ry     beta= 0.70
     Davidson diagonalization with overlap
     ethr =  7.47E-05,  avg # of iterations =  2.0

     total cpu time spent up to now is       55.5 secs

     total energy              =   -3100.39041743 Ry
     estimated scf accuracy    <       0.00191877 Ry

     iteration #  4     ecut=    60.00 Ry     beta= 0.70
     Davidson diagonalization with overlap
     c_bands:  1 eigenvalues not converged
     c_bands:  1 eigenvalues not converged
     ethr =  4.36E-06,  avg # of iterations =  6.6

     total cpu time spent up to now is       77.5 secs

     total energy              =   -3100.39301569 Ry
     estimated scf accuracy    <       0.00196384 Ry

     iteration #  5     ecut=    60.00 Ry     beta= 0.70
     Davidson diagonalization with overlap
     ethr =  4.36E-06,  avg # of iterations =  1.8

     total cpu time spent up to now is       87.9 secs

     total energy              =   -3100.39209331 Ry
     estimated scf accuracy    <       0.00171462 Ry

     iteration #  6     ecut=    60.00 Ry     beta= 0.70
     Davidson diagonalization with overlap
     ethr =  3.90E-06,  avg # of iterations =  2.8

     total cpu time spent up to now is      101.6 secs

     total energy              =   -3100.39273162 Ry
     estimated scf accuracy    <       0.00006112 Ry

     iteration #  7     ecut=    60.00 Ry     beta= 0.70
     Davidson diagonalization with overlap
     c_bands:  1 eigenvalues not converged
     ethr =  1.39E-07,  avg # of iterations =  7.0

     total cpu time spent up to now is      126.1 secs

     total energy              =   -3100.39282841 Ry
     estimated scf accuracy    <       0.00020719 Ry

     iteration #  8     ecut=    60.00 Ry     beta= 0.70
     Davidson diagonalization with overlap
     ethr =  1.39E-07,  avg # of iterations =  1.8

     total cpu time spent up to now is      136.5 secs

     total energy              =   -3100.39272949 Ry
     estimated scf accuracy    <       0.00023021 Ry

     iteration #  9     ecut=    60.00 Ry     beta= 0.70
     Davidson diagonalization with overlap
     c_bands:  1 eigenvalues not converged
     ethr =  1.39E-07,  avg # of iterations =  2.0

     total cpu time spent up to now is      149.3 secs

     total energy              =   -3100.39272061 Ry
     estimated scf accuracy    <       0.00003950 Ry

     iteration # 10     ecut=    60.00 Ry     beta= 0.70
     Davidson diagonalization with overlap
     ethr =  8.98E-08,  avg # of iterations =  6.6

     total cpu time spent up to now is      171.9 secs

     total energy              =   -3100.39274179 Ry
     estimated scf accuracy    <       0.00022130 Ry

     iteration # 11     ecut=    60.00 Ry     beta= 0.70
     Davidson diagonalization with overlap
     ethr =  8.98E-08,  avg # of iterations =  2.3

     total cpu time spent up to now is      184.8 secs

     total energy              =   -3100.39272321 Ry
     estimated scf accuracy    <       0.00004993 Ry

     iteration # 12     ecut=    60.00 Ry     beta= 0.70
     Davidson diagonalization with overlap
     ethr =  8.98E-08,  avg # of iterations =  3.9

     total cpu time spent up to now is      199.3 secs

     total energy              =   -3100.39274244 Ry
     estimated scf accuracy    <       0.00000131 Ry

     iteration # 13     ecut=    60.00 Ry     beta= 0.70
     Davidson diagonalization with overlap
     ethr =  2.97E-09,  avg # of iterations =  6.3

     total cpu time spent up to now is      222.7 secs

     total energy              =   -3100.39274456 Ry
     estimated scf accuracy    <       0.00000090 Ry

     iteration # 14     ecut=    60.00 Ry     beta= 0.70
     Davidson diagonalization with overlap
     ethr =  2.05E-09,  avg # of iterations =  2.1

     total cpu time spent up to now is      233.9 secs

     total energy              =   -3100.39274422 Ry
     estimated scf accuracy    <       0.00000141 Ry

     iteration # 15     ecut=    60.00 Ry     beta= 0.70
     Davidson diagonalization with overlap
     ethr =  2.05E-09,  avg # of iterations =  1.0

     total cpu time spent up to now is      243.6 secs

     total energy              =   -3100.39274386 Ry
     estimated scf accuracy    <       0.00000062 Ry

     iteration # 16     ecut=    60.00 Ry     beta= 0.70
     Davidson diagonalization with overlap
     ethr =  1.42E-09,  avg # of iterations =  2.4

     total cpu time spent up to now is      256.7 secs

     total energy              =   -3100.39274408 Ry
     estimated scf accuracy    <          8.5E-09 Ry

     iteration # 17     ecut=    60.00 Ry     beta= 0.70
     Davidson diagonalization with overlap
     ethr =  1.94E-11,  avg # of iterations = 10.6

     total cpu time spent up to now is      292.2 secs

     total energy              =   -3100.39274410 Ry
     estimated scf accuracy    <       0.00000006 Ry

     iteration # 18     ecut=    60.00 Ry     beta= 0.70
     Davidson diagonalization with overlap
     ethr =  1.94E-11,  avg # of iterations =  2.0

     total cpu time spent up to now is      304.6 secs

     total energy              =   -3100.39274409 Ry
     estimated scf accuracy    <       0.00000002 Ry

     iteration # 19     ecut=    60.00 Ry     beta= 0.70
     Davidson diagonalization with overlap
     ethr =  1.94E-11,  avg # of iterations =  3.8

     total cpu time spent up to now is      319.0 secs

     total energy              =   -3100.39274409 Ry
     estimated scf accuracy    <          1.5E-09 Ry

     iteration # 20     ecut=    60.00 Ry     beta= 0.70
     Davidson diagonalization with overlap
     ethr =  3.42E-12,  avg # of iterations =  6.0

     total cpu time spent up to now is      339.9 secs

     End of self-consistent calculation

     Number of k-points >= 100: set verbosity='high' to print the bands.

     the Fermi energy is     8.5612 ev

!    total energy              =   -3100.39274409 Ry

     total all-electron energy =   -152095.777108 Ry
     estimated scf accuracy    <          3.8E-10 Ry
     smearing contrib. (-TS)   =      -0.00380451 Ry
     internal energy E=F+TS    =   -3100.38893958 Ry

     The total energy is F=E-TS. E is the sum of the following terms:
     one-electron contribution =       3.20326504 Ry
     hartree contribution      =      46.17332358 Ry
     xc contribution           =    -127.64794648 Ry
     ewald contribution        =    -252.16741410 Ry
     one-center paw contrib.   =   -2769.95016762 Ry

     convergence has been achieved in  20 iterations

     Forces acting on atoms (cartesian axes, Ry/au):

     atom    1 type  1   force =    -0.00000000    0.00000006   -0.00000011
     atom    2 type  1   force =    -0.00000001   -0.00000004    0.00000002
     atom    3 type  1   force =     0.00000005    0.00000002    0.00000007
     atom    4 type  1   force =    -0.00000003   -0.00000003    0.00000002

     Total force =     0.000000     Total SCF correction =     0.000001
     SCF correction compared to forces is large: reduce conv_thr to get better values


     Computing stress (Cartesian axis) and pressure

          total   stress  (Ry/bohr**3)                   (kbar)     P=     -166.55
  -0.00113218  -0.00000000  -0.00000000         -166.55       -0.00       -0.00
  -0.00000000  -0.00113218   0.00000000           -0.00     -166.55        0.00
  -0.00000000   0.00000000  -0.00113218           -0.00        0.00     -166.55


     Writing all to output data dir ./gold.save/
 
     init_run     :      5.22s CPU      5.37s WALL (       1 calls)
     electrons    :    330.77s CPU    334.12s WALL (       1 calls)
     forces       :      0.83s CPU      0.85s WALL (       1 calls)
     stress       :      2.96s CPU      2.98s WALL (       1 calls)

     Called by init_run:
     wfcinit      :      5.04s CPU      5.16s WALL (       1 calls)
     potinit      :      0.06s CPU      0.08s WALL (       1 calls)
     hinit0       :      0.07s CPU      0.08s WALL (       1 calls)

     Called by electrons:
     c_bands      :    295.95s CPU    298.81s WALL (      21 calls)
     sum_band     :     33.81s CPU     34.23s WALL (      21 calls)
     v_of_rho     :      0.18s CPU      0.23s WALL (      21 calls)
     newd         :      0.08s CPU      0.09s WALL (      21 calls)
     PAW_pot      :      0.74s CPU      0.74s WALL (      21 calls)
     mix_rho      :      0.04s CPU      0.04s WALL (      21 calls)

     Called by c_bands:
     init_us_2    :      3.02s CPU      3.09s WALL (    9765 calls)
     init_us_2:cp :      3.00s CPU      3.08s WALL (    9765 calls)
     cegterg      :    260.40s CPU    262.90s WALL (    4557 calls)

     Called by *egterg:
     cdiaghg      :     11.12s CPU     11.19s WALL (   21673 calls)
     h_psi        :    208.13s CPU    210.38s WALL (   22107 calls)
     s_psi        :      9.49s CPU      9.56s WALL (   22107 calls)
     g_psi        :      1.28s CPU      1.29s WALL (   17333 calls)

     Called by h_psi:
     h_psi:calbec :     10.22s CPU     10.33s WALL (   22107 calls)
     vloc_psi     :    187.80s CPU    189.85s WALL (   22107 calls)
     add_vuspsi   :      9.52s CPU      9.60s WALL (   22107 calls)

     General routines
     calbec       :     13.51s CPU     13.65s WALL (   27749 calls)
     fft          :      0.13s CPU      0.22s WALL (     257 calls)
     ffts         :      0.02s CPU      0.02s WALL (      21 calls)
     fftw         :    202.53s CPU    204.72s WALL (  943110 calls)
 
     Parallel routines
 
     PWSCF        :   5m40.80s CPU   5m45.15s WALL

 
   This run was terminated on:  14:34:25  16Nov2023            

=------------------------------------------------------------------------------=
   JOB DONE.
=------------------------------------------------------------------------------=
