MPI startup(): Warning: I_MPI_PMI_LIBRARY will be ignored since the hydra process manager was found
MPI startup(): Warning: I_MPI_PMI_LIBRARY will be ignored since the hydra process manager was found
MPI startup(): Warning: I_MPI_PMI_LIBRARY will be ignored since the hydra process manager was found
MPI startup(): Warning: I_MPI_PMI_LIBRARY will be ignored since the hydra process manager was found
MPI startup(): Warning: I_MPI_PMI_LIBRARY will be ignored since the hydra process manager was found
MPI startup(): Warning: I_MPI_PMI_LIBRARY will be ignored since the hydra process manager was found
MPI startup(): Warning: I_MPI_PMI_LIBRARY will be ignored since the hydra process manager was found
MPI startup(): Warning: I_MPI_PMI_LIBRARY will be ignored since the hydra process manager was found
MPI startup(): Warning: I_MPI_PMI_LIBRARY will be ignored since the hydra process manager was found
MPI startup(): Warning: I_MPI_PMI_LIBRARY will be ignored since the hydra process manager was found
MPI startup(): Warning: I_MPI_PMI_LIBRARY will be ignored since the hydra process manager was found
MPI startup(): Warning: I_MPI_PMI_LIBRARY will be ignored since the hydra process manager was found

     Program PWSCF v.7.0 starts on 15Nov2023 at 19:38: 1 

     This program is part of the open-source Quantum ESPRESSO suite
     for quantum simulation of materials; please cite
         "P. Giannozzi et al., J. Phys.:Condens. Matter 21 395502 (2009);
         "P. Giannozzi et al., J. Phys.:Condens. Matter 29 465901 (2017);
         "P. Giannozzi et al., J. Chem. Phys. 152 154105 (2020);
          URL http://www.quantum-espresso.org", 
     in publications or presentations arising from this work. More details at
     http://www.quantum-espresso.org/quote

     Parallel version (MPI), running on    12 processors

     MPI processes distributed on     1 nodes
     K-points division:     npool     =       4
     R & G space division:  proc/nbgrp/npool/nimage =       3
     111196 MiB available memory on the printing compute node when the environment starts
 
     Waiting for input...
     Reading input from standard input

     Current dimensions of program PWSCF are:
     Max number of different atomic species (ntypx) = 10
     Max number of k-points (npk) =  40000
     Max angular momentum in pseudopotentials (lmaxx) =  4
     file Au.UPF: wavefunction(s)  6S 5D renormalized
     Found identity + ( -0.5000 -0.5000  0.0000) symmetry
     This is a supercell, fractional translations are disabled

     Subspace diagonalization in iterative solution of the eigenvalue problem:
     a serial algorithm will be used

 
     Parallelization info
     --------------------
     sticks:   dense  smooth     PW     G-vecs:    dense   smooth      PW
     Min         347     347    101                 8471     8471    1379
     Max         347     347    103                 8471     8471    1381
     Sum        1041    1041    305                25413    25413    4139
 
     Using Slab Decomposition
 


     bravais-lattice index     =            0
     lattice parameter (alat)  =       7.4000  a.u.
     unit-cell volume          =     405.2240 (a.u.)^3
     number of atoms/cell      =            4
     number of atomic types    =            1
     number of electrons       =        44.00
     number of Kohn-Sham states=           26
     kinetic-energy cutoff     =      60.0000  Ry
     charge density cutoff     =     240.0000  Ry
     scf convergence threshold =      1.0E-09
     mixing beta               =       0.7000
     number of iterations used =            8  plain     mixing
     Exchange-correlation= SLA  PW   PBX  PBC
                           (   1   4   3   4   0   0   0)

     celldm(1)=   7.400000  celldm(2)=   0.000000  celldm(3)=   0.000000
     celldm(4)=   0.000000  celldm(5)=   0.000000  celldm(6)=   0.000000

     crystal axes: (cart. coord. in units of alat)
               a(1) = (   1.000000   0.000000   0.000000 )  
               a(2) = (   0.000000   1.000000   0.000000 )  
               a(3) = (   0.000000   0.000000   1.000000 )  

     reciprocal axes: (cart. coord. in units 2 pi/alat)
               b(1) = (  1.000000  0.000000  0.000000 )  
               b(2) = (  0.000000  1.000000  0.000000 )  
               b(3) = (  0.000000  0.000000  1.000000 )  


     PseudoPot. # 1 for Au read from file:
     ./Au.UPF
     MD5 check sum: 4db85c736373c707a97ce4c36c2a9d23
     Pseudo is Projector augmented-wave + core cor, Zval = 11.0
     Generated using &quot;atomic&quot; code by A. Dal Corso  v.6.3
     Shape of augmentation charge: PSQ
     Using radial grid of 1279 points,  6 beta functions with: 
                l(1) =   0
                l(2) =   0
                l(3) =   1
                l(4) =   1
                l(5) =   2
                l(6) =   2
     Q(r) pseudized with 0 coefficients 


     atomic species   valence    mass     pseudopotential
        Au            11.00   196.96657     Au( 1.00)

     No symmetry found



   Cartesian axes

     site n.     atom                  positions (alat units)
         1           Au  tau(   1) = (   0.0000000   0.0000000   0.0000000  )
         2           Au  tau(   2) = (   0.5000000   0.5000000   0.0000000  )
         3           Au  tau(   3) = (   0.5000000   0.0000000   0.5000000  )
         4           Au  tau(   4) = (   0.0000000   0.5000000   0.5000000  )

     number of k points=   868  Gaussian smearing, width (Ry)=  0.0200

     Number of k-points >= 100: set verbosity='high' to print them.

     Dense  grid:    25413 G-vectors     FFT dimensions: (  40,  40,  40)

     Estimated max dynamical RAM per process >     105.69 MB

     Estimated total dynamical RAM >       1.22 GB

     Initial potential from superposition of free atoms

     starting charge      43.9996, renormalised to      44.0000
     Starting wfcs are   36 randomized atomic wfcs
     Checking if some PAW data can be deallocated... 

     total cpu time spent up to now is        4.8 secs

     Self-consistent Calculation

     iteration #  1     ecut=    60.00 Ry     beta= 0.70
     Davidson diagonalization with overlap
     ethr =  1.00E-02,  avg # of iterations =  2.7

     Threshold (ethr) on eigenvalues was too large:
     Diagonalizing with lowered threshold

     Davidson diagonalization with overlap
     ethr =  2.14E-04,  avg # of iterations =  6.1

     total cpu time spent up to now is       28.9 secs

     total energy              =   -3100.40528201 Ry
     estimated scf accuracy    <       0.16695436 Ry

     iteration #  2     ecut=    60.00 Ry     beta= 0.70
     Davidson diagonalization with overlap
     ethr =  3.79E-04,  avg # of iterations =  2.3

     total cpu time spent up to now is       38.6 secs

     total energy              =   -3100.45449180 Ry
     estimated scf accuracy    <       0.01008129 Ry

     iteration #  3     ecut=    60.00 Ry     beta= 0.70
     Davidson diagonalization with overlap
     ethr =  2.29E-05,  avg # of iterations =  5.2

     total cpu time spent up to now is       51.5 secs

     total energy              =   -3100.45797116 Ry
     estimated scf accuracy    <       0.00167910 Ry

     iteration #  4     ecut=    60.00 Ry     beta= 0.70
     Davidson diagonalization with overlap
     c_bands:  1 eigenvalues not converged
     c_bands:  1 eigenvalues not converged
     c_bands:  1 eigenvalues not converged
     ethr =  3.82E-06,  avg # of iterations =  4.7

     total cpu time spent up to now is       64.1 secs

     total energy              =   -3100.45876701 Ry
     estimated scf accuracy    <       0.00132116 Ry

     iteration #  5     ecut=    60.00 Ry     beta= 0.70
     Davidson diagonalization with overlap
     ethr =  3.00E-06,  avg # of iterations =  2.1

     total cpu time spent up to now is       72.4 secs

     total energy              =   -3100.45861529 Ry
     estimated scf accuracy    <       0.00057866 Ry

     iteration #  6     ecut=    60.00 Ry     beta= 0.70
     Davidson diagonalization with overlap
     ethr =  1.32E-06,  avg # of iterations =  3.8

     total cpu time spent up to now is       83.4 secs

     total energy              =   -3100.45883308 Ry
     estimated scf accuracy    <       0.00000881 Ry

     iteration #  7     ecut=    60.00 Ry     beta= 0.70
     Davidson diagonalization with overlap
     c_bands:  1 eigenvalues not converged
     ethr =  2.00E-08,  avg # of iterations =  8.3

     total cpu time spent up to now is      107.2 secs

     total energy              =   -3100.45885680 Ry
     estimated scf accuracy    <       0.00002106 Ry

     iteration #  8     ecut=    60.00 Ry     beta= 0.70
     Davidson diagonalization with overlap
     ethr =  2.00E-08,  avg # of iterations =  1.1

     total cpu time spent up to now is      114.5 secs

     total energy              =   -3100.45885107 Ry
     estimated scf accuracy    <       0.00001094 Ry

     iteration #  9     ecut=    60.00 Ry     beta= 0.70
     Davidson diagonalization with overlap
     ethr =  2.00E-08,  avg # of iterations =  2.0

     total cpu time spent up to now is      123.8 secs

     total energy              =   -3100.45885253 Ry
     estimated scf accuracy    <       0.00000060 Ry

     iteration # 10     ecut=    60.00 Ry     beta= 0.70
     Davidson diagonalization with overlap
     ethr =  1.36E-09,  avg # of iterations =  7.9

     total cpu time spent up to now is      143.8 secs

     total energy              =   -3100.45885338 Ry
     estimated scf accuracy    <       0.00000137 Ry

     iteration # 11     ecut=    60.00 Ry     beta= 0.70
     Davidson diagonalization with overlap
     ethr =  1.36E-09,  avg # of iterations =  2.0

     total cpu time spent up to now is      152.1 secs

     total energy              =   -3100.45885336 Ry
     estimated scf accuracy    <       0.00000026 Ry

     iteration # 12     ecut=    60.00 Ry     beta= 0.70
     Davidson diagonalization with overlap
     ethr =  5.89E-10,  avg # of iterations =  2.1

     total cpu time spent up to now is      161.1 secs

     total energy              =   -3100.45885335 Ry
     estimated scf accuracy    <       0.00000004 Ry

     iteration # 13     ecut=    60.00 Ry     beta= 0.70
     Davidson diagonalization with overlap
     ethr =  1.01E-10,  avg # of iterations =  6.8

     total cpu time spent up to now is      178.8 secs

     total energy              =   -3100.45885339 Ry
     estimated scf accuracy    <       0.00000012 Ry

     iteration # 14     ecut=    60.00 Ry     beta= 0.70
     Davidson diagonalization with overlap
     ethr =  1.01E-10,  avg # of iterations =  3.1

     total cpu time spent up to now is      189.2 secs

     total energy              =   -3100.45885341 Ry
     estimated scf accuracy    <          1.8E-09 Ry

     iteration # 15     ecut=    60.00 Ry     beta= 0.70
     Davidson diagonalization with overlap
     ethr =  4.18E-12,  avg # of iterations =  7.9

     total cpu time spent up to now is      209.9 secs

     total energy              =   -3100.45885341 Ry
     estimated scf accuracy    <          2.1E-09 Ry

     iteration # 16     ecut=    60.00 Ry     beta= 0.70
     Davidson diagonalization with overlap
     ethr =  4.18E-12,  avg # of iterations =  1.2

     total cpu time spent up to now is      217.3 secs

     End of self-consistent calculation

     Number of k-points >= 100: set verbosity='high' to print the bands.

     the Fermi energy is    19.0766 ev

!    total energy              =   -3100.45885341 Ry

     total all-electron energy =   -152095.843218 Ry
     estimated scf accuracy    <          4.7E-10 Ry
     smearing contrib. (-TS)   =      -0.00263488 Ry
     internal energy E=F+TS    =   -3100.45621853 Ry

     The total energy is F=E-TS. E is the sum of the following terms:
     one-electron contribution =      72.26398402 Ry
     hartree contribution      =      26.33797682 Ry
     xc contribution           =    -128.97636814 Ry
     ewald contribution        =    -299.87476271 Ry
     one-center paw contrib.   =   -2770.20704852 Ry

     convergence has been achieved in  16 iterations

     Forces acting on atoms (cartesian axes, Ry/au):

     atom    1 type  1   force =    -0.00000012    0.00000007    0.00000006
     atom    2 type  1   force =     0.00000015   -0.00000009   -0.00000006
     atom    3 type  1   force =     0.00000012    0.00000009   -0.00000002
     atom    4 type  1   force =    -0.00000015   -0.00000007    0.00000002

     Total force =     0.000000     Total SCF correction =     0.000001
     SCF correction compared to forces is large: reduce conv_thr to get better values


     Computing stress (Cartesian axis) and pressure

          total   stress  (Ry/bohr**3)                   (kbar)     P=      441.90
   0.00300397  -0.00000000   0.00000000          441.90       -0.00        0.00
  -0.00000000   0.00300397   0.00000000           -0.00      441.90        0.00
   0.00000000   0.00000000   0.00300397            0.00        0.00      441.90


     Writing all to output data dir ./gold.save/
 
     init_run     :      3.81s CPU      4.44s WALL (       1 calls)
     electrons    :    210.04s CPU    212.47s WALL (       1 calls)
     forces       :      0.62s CPU      0.64s WALL (       1 calls)
     stress       :      2.17s CPU      2.17s WALL (       1 calls)

     Called by init_run:
     wfcinit      :      3.52s CPU      4.09s WALL (       1 calls)
     potinit      :      0.07s CPU      0.08s WALL (       1 calls)
     hinit0       :      0.08s CPU      0.11s WALL (       1 calls)

     Called by electrons:
     c_bands      :    189.34s CPU    191.42s WALL (      17 calls)
     sum_band     :     19.81s CPU     20.08s WALL (      17 calls)
     v_of_rho     :      0.11s CPU      0.19s WALL (      17 calls)
     newd         :      0.05s CPU      0.07s WALL (      17 calls)
     PAW_pot      :      0.76s CPU      0.77s WALL (      17 calls)
     mix_rho      :      0.02s CPU      0.02s WALL (      17 calls)

     Called by c_bands:
     init_us_2    :      1.83s CPU      1.85s WALL (    8029 calls)
     init_us_2:cp :      1.81s CPU      1.84s WALL (    8029 calls)
     cegterg      :    161.16s CPU    163.02s WALL (    3689 calls)

     Called by *egterg:
     cdiaghg      :     11.55s CPU     11.62s WALL (   18752 calls)
     h_psi        :    121.72s CPU    123.90s WALL (   19186 calls)
     s_psi        :      6.55s CPU      6.60s WALL (   19186 calls)
     g_psi        :      0.78s CPU      0.79s WALL (   15280 calls)

     Called by h_psi:
     h_psi:calbec :      7.17s CPU      7.26s WALL (   19186 calls)
     vloc_psi     :    107.40s CPU    109.42s WALL (   19186 calls)
     add_vuspsi   :      6.72s CPU      6.79s WALL (   19186 calls)

     General routines
     calbec       :      9.37s CPU      9.49s WALL (   23960 calls)
     fft          :      0.07s CPU      0.20s WALL (     213 calls)
     ffts         :      0.01s CPU      0.01s WALL (      17 calls)
     fftw         :    113.27s CPU    115.33s WALL (  793932 calls)
 
     Parallel routines
 
     PWSCF        :   3m37.78s CPU   3m41.57s WALL

 
   This run was terminated on:  19:41:43  15Nov2023            

=------------------------------------------------------------------------------=
   JOB DONE.
=------------------------------------------------------------------------------=
