MPI startup(): Warning: I_MPI_PMI_LIBRARY will be ignored since the hydra process manager was found
MPI startup(): Warning: I_MPI_PMI_LIBRARY will be ignored since the hydra process manager was found
MPI startup(): Warning: I_MPI_PMI_LIBRARY will be ignored since the hydra process manager was found
MPI startup(): Warning: I_MPI_PMI_LIBRARY will be ignored since the hydra process manager was found
MPI startup(): Warning: I_MPI_PMI_LIBRARY will be ignored since the hydra process manager was found
MPI startup(): Warning: I_MPI_PMI_LIBRARY will be ignored since the hydra process manager was found
MPI startup(): Warning: I_MPI_PMI_LIBRARY will be ignored since the hydra process manager was found
MPI startup(): Warning: I_MPI_PMI_LIBRARY will be ignored since the hydra process manager was found
MPI startup(): Warning: I_MPI_PMI_LIBRARY will be ignored since the hydra process manager was found
MPI startup(): Warning: I_MPI_PMI_LIBRARY will be ignored since the hydra process manager was found
MPI startup(): Warning: I_MPI_PMI_LIBRARY will be ignored since the hydra process manager was found
MPI startup(): Warning: I_MPI_PMI_LIBRARY will be ignored since the hydra process manager was found

     Program PWSCF v.7.0 starts on 16Nov2023 at 13:55:43 

     This program is part of the open-source Quantum ESPRESSO suite
     for quantum simulation of materials; please cite
         "P. Giannozzi et al., J. Phys.:Condens. Matter 21 395502 (2009);
         "P. Giannozzi et al., J. Phys.:Condens. Matter 29 465901 (2017);
         "P. Giannozzi et al., J. Chem. Phys. 152 154105 (2020);
          URL http://www.quantum-espresso.org", 
     in publications or presentations arising from this work. More details at
     http://www.quantum-espresso.org/quote

     Parallel version (MPI), running on    12 processors

     MPI processes distributed on     1 nodes
     K-points division:     npool     =       4
     R & G space division:  proc/nbgrp/npool/nimage =       3
     194456 MiB available memory on the printing compute node when the environment starts
 
     Waiting for input...
     Reading input from standard input

     Current dimensions of program PWSCF are:
     Max number of different atomic species (ntypx) = 10
     Max number of k-points (npk) =  40000
     Max angular momentum in pseudopotentials (lmaxx) =  4
     file Au.UPF: wavefunction(s)  6S 5D renormalized
     Found identity + ( -0.5000 -0.5000  0.0000) symmetry
     This is a supercell, fractional translations are disabled

     Subspace diagonalization in iterative solution of the eigenvalue problem:
     a serial algorithm will be used

 
     Parallelization info
     --------------------
     sticks:   dense  smooth     PW     G-vecs:    dense   smooth      PW
     Min         427     427    124                11501    11501    1832
     Max         427     427    125                11503    11503    1833
     Sum        1281    1281    373                34505    34505    5497
 
     Using Slab Decomposition
 


     bravais-lattice index     =            0
     lattice parameter (alat)  =       8.2000  a.u.
     unit-cell volume          =     551.3680 (a.u.)^3
     number of atoms/cell      =            4
     number of atomic types    =            1
     number of electrons       =        44.00
     number of Kohn-Sham states=           26
     kinetic-energy cutoff     =      60.0000  Ry
     charge density cutoff     =     240.0000  Ry
     scf convergence threshold =      1.0E-09
     mixing beta               =       0.7000
     number of iterations used =            8  plain     mixing
     Exchange-correlation= SLA  PW   PBX  PBC
                           (   1   4   3   4   0   0   0)

     celldm(1)=   8.200000  celldm(2)=   0.000000  celldm(3)=   0.000000
     celldm(4)=   0.000000  celldm(5)=   0.000000  celldm(6)=   0.000000

     crystal axes: (cart. coord. in units of alat)
               a(1) = (   1.000000   0.000000   0.000000 )  
               a(2) = (   0.000000   1.000000   0.000000 )  
               a(3) = (   0.000000   0.000000   1.000000 )  

     reciprocal axes: (cart. coord. in units 2 pi/alat)
               b(1) = (  1.000000  0.000000  0.000000 )  
               b(2) = (  0.000000  1.000000  0.000000 )  
               b(3) = (  0.000000  0.000000  1.000000 )  


     PseudoPot. # 1 for Au read from file:
     ./Au.UPF
     MD5 check sum: 4db85c736373c707a97ce4c36c2a9d23
     Pseudo is Projector augmented-wave + core cor, Zval = 11.0
     Generated using &quot;atomic&quot; code by A. Dal Corso  v.6.3
     Shape of augmentation charge: PSQ
     Using radial grid of 1279 points,  6 beta functions with: 
                l(1) =   0
                l(2) =   0
                l(3) =   1
                l(4) =   1
                l(5) =   2
                l(6) =   2
     Q(r) pseudized with 0 coefficients 


     atomic species   valence    mass     pseudopotential
        Au            11.00   196.96657     Au( 1.00)

     No symmetry found



   Cartesian axes

     site n.     atom                  positions (alat units)
         1           Au  tau(   1) = (   0.0000000   0.0000000   0.0000000  )
         2           Au  tau(   2) = (   0.5000000   0.5000000   0.0000000  )
         3           Au  tau(   3) = (   0.5000000   0.0000000   0.5000000  )
         4           Au  tau(   4) = (   0.0000000   0.5000000   0.5000000  )

     number of k points=   868  Gaussian smearing, width (Ry)=  0.0200

     Number of k-points >= 100: set verbosity='high' to print them.

     Dense  grid:    34505 G-vectors     FFT dimensions: (  45,  45,  45)

     Estimated max dynamical RAM per process >     143.29 MB

     Estimated total dynamical RAM >       1.65 GB

     Initial potential from superposition of free atoms

     starting charge      43.9996, renormalised to      44.0000
     Starting wfcs are   36 randomized atomic wfcs
     Checking if some PAW data can be deallocated... 

     total cpu time spent up to now is        6.7 secs

     Self-consistent Calculation

     iteration #  1     ecut=    60.00 Ry     beta= 0.70
     Davidson diagonalization with overlap
     ethr =  1.00E-02,  avg # of iterations =  2.8

     Threshold (ethr) on eigenvalues was too large:
     Diagonalizing with lowered threshold

     Davidson diagonalization with overlap
     ethr =  3.06E-04,  avg # of iterations =  3.9

     total cpu time spent up to now is       31.1 secs

     total energy              =   -3100.45999245 Ry
     estimated scf accuracy    <       0.18266607 Ry

     iteration #  2     ecut=    60.00 Ry     beta= 0.70
     Davidson diagonalization with overlap
     ethr =  4.15E-04,  avg # of iterations =  3.1

     total cpu time spent up to now is       44.1 secs

     total energy              =   -3100.52233725 Ry
     estimated scf accuracy    <       0.02719735 Ry

     iteration #  3     ecut=    60.00 Ry     beta= 0.70
     Davidson diagonalization with overlap
     ethr =  6.18E-05,  avg # of iterations =  3.6

     total cpu time spent up to now is       56.3 secs

     total energy              =   -3100.52698325 Ry
     estimated scf accuracy    <       0.00174107 Ry

     iteration #  4     ecut=    60.00 Ry     beta= 0.70
     Davidson diagonalization with overlap
     c_bands:  1 eigenvalues not converged
     ethr =  3.96E-06,  avg # of iterations =  6.7

     total cpu time spent up to now is       76.5 secs

     total energy              =   -3100.52890777 Ry
     estimated scf accuracy    <       0.00185192 Ry

     iteration #  5     ecut=    60.00 Ry     beta= 0.70
     Davidson diagonalization with overlap
     ethr =  3.96E-06,  avg # of iterations =  1.9

     total cpu time spent up to now is       86.4 secs

     total energy              =   -3100.52830189 Ry
     estimated scf accuracy    <       0.00123200 Ry

     iteration #  6     ecut=    60.00 Ry     beta= 0.70
     Davidson diagonalization with overlap
     ethr =  2.80E-06,  avg # of iterations =  3.0

     total cpu time spent up to now is       99.3 secs

     total energy              =   -3100.52875437 Ry
     estimated scf accuracy    <       0.00004422 Ry

     iteration #  7     ecut=    60.00 Ry     beta= 0.70
     Davidson diagonalization with overlap
     c_bands:  1 eigenvalues not converged
     ethr =  1.01E-07,  avg # of iterations =  6.5

     total cpu time spent up to now is      120.6 secs

     total energy              =   -3100.52879635 Ry
     estimated scf accuracy    <       0.00010045 Ry

     iteration #  8     ecut=    60.00 Ry     beta= 0.70
     Davidson diagonalization with overlap
     ethr =  1.01E-07,  avg # of iterations =  1.0

     total cpu time spent up to now is      129.5 secs

     total energy              =   -3100.52876067 Ry
     estimated scf accuracy    <       0.00007797 Ry

     iteration #  9     ecut=    60.00 Ry     beta= 0.70
     Davidson diagonalization with overlap
     ethr =  1.01E-07,  avg # of iterations =  2.0

     total cpu time spent up to now is      140.5 secs

     total energy              =   -3100.52875975 Ry
     estimated scf accuracy    <       0.00001076 Ry

     iteration # 10     ecut=    60.00 Ry     beta= 0.70
     Davidson diagonalization with overlap
     ethr =  2.45E-08,  avg # of iterations =  6.2

     total cpu time spent up to now is      160.7 secs

     total energy              =   -3100.52877930 Ry
     estimated scf accuracy    <       0.00003068 Ry

     iteration # 11     ecut=    60.00 Ry     beta= 0.70
     Davidson diagonalization with overlap
     ethr =  2.45E-08,  avg # of iterations =  1.1

     total cpu time spent up to now is      169.8 secs

     total energy              =   -3100.52877892 Ry
     estimated scf accuracy    <       0.00002714 Ry

     iteration # 12     ecut=    60.00 Ry     beta= 0.70
     Davidson diagonalization with overlap
     ethr =  2.45E-08,  avg # of iterations =  1.0

     total cpu time spent up to now is      178.7 secs

     total energy              =   -3100.52876304 Ry
     estimated scf accuracy    <       0.00002650 Ry

     iteration # 13     ecut=    60.00 Ry     beta= 0.70
     Davidson diagonalization with overlap
     ethr =  2.45E-08,  avg # of iterations =  2.3

     total cpu time spent up to now is      190.9 secs

     total energy              =   -3100.52876712 Ry
     estimated scf accuracy    <       0.00000074 Ry

     iteration # 14     ecut=    60.00 Ry     beta= 0.70
     Davidson diagonalization with overlap
     ethr =  1.68E-09,  avg # of iterations =  7.3

     total cpu time spent up to now is      214.4 secs

     total energy              =   -3100.52876817 Ry
     estimated scf accuracy    <       0.00000056 Ry

     iteration # 15     ecut=    60.00 Ry     beta= 0.70
     Davidson diagonalization with overlap
     ethr =  1.28E-09,  avg # of iterations =  2.0

     total cpu time spent up to now is      224.7 secs

     total energy              =   -3100.52876822 Ry
     estimated scf accuracy    <       0.00000005 Ry

     iteration # 16     ecut=    60.00 Ry     beta= 0.70
     Davidson diagonalization with overlap
     ethr =  1.16E-10,  avg # of iterations =  5.0

     total cpu time spent up to now is      240.5 secs

     End of self-consistent calculation

     Number of k-points >= 100: set verbosity='high' to print the bands.

     the Fermi energy is    12.1195 ev

!    total energy              =   -3100.52876825 Ry

     total all-electron energy =   -152095.913132 Ry
     estimated scf accuracy    <          6.2E-10 Ry
     smearing contrib. (-TS)   =      -0.00331649 Ry
     internal energy E=F+TS    =   -3100.52545176 Ry

     The total energy is F=E-TS. E is the sum of the following terms:
     one-electron contribution =      30.62247388 Ry
     hartree contribution      =      37.44173911 Ry
     xc contribution           =    -127.97194499 Ry
     ewald contribution        =    -270.61868830 Ry
     one-center paw contrib.   =   -2769.99903146 Ry

     convergence has been achieved in  16 iterations

     Forces acting on atoms (cartesian axes, Ry/au):

     atom    1 type  1   force =     0.00000018   -0.00000029    0.00000050
     atom    2 type  1   force =     0.00000040    0.00000006    0.00000016
     atom    3 type  1   force =     0.00000030    0.00000013   -0.00000083
     atom    4 type  1   force =    -0.00000088    0.00000010    0.00000018

     Total force =     0.000001     Total SCF correction =     0.000002
     SCF correction compared to forces is large: reduce conv_thr to get better values


     Computing stress (Cartesian axis) and pressure

          total   stress  (Ry/bohr**3)                   (kbar)     P=     -118.40
  -0.00080489   0.00000000  -0.00000000         -118.40        0.00       -0.00
   0.00000000  -0.00080489  -0.00000000            0.00     -118.40       -0.00
  -0.00000000  -0.00000000  -0.00080489           -0.00       -0.00     -118.40


     Writing all to output data dir ./gold.save/
 
     init_run     :      4.81s CPU      5.45s WALL (       1 calls)
     electrons    :    230.94s CPU    233.96s WALL (       1 calls)
     forces       :      0.68s CPU      0.73s WALL (       1 calls)
     stress       :      2.43s CPU      2.45s WALL (       1 calls)

     Called by init_run:
     wfcinit      :      4.51s CPU      4.79s WALL (       1 calls)
     potinit      :      0.10s CPU      0.22s WALL (       1 calls)
     hinit0       :      0.07s CPU      0.15s WALL (       1 calls)

     Called by electrons:
     c_bands      :    204.10s CPU    206.44s WALL (      17 calls)
     sum_band     :     26.05s CPU     26.49s WALL (      17 calls)
     v_of_rho     :      0.15s CPU      0.23s WALL (      17 calls)
     newd         :      0.05s CPU      0.10s WALL (      17 calls)
     PAW_pot      :      0.59s CPU      0.67s WALL (      17 calls)
     mix_rho      :      0.02s CPU      0.03s WALL (      17 calls)

     Called by c_bands:
     init_us_2    :      2.01s CPU      2.06s WALL (    8029 calls)
     init_us_2:cp :      2.00s CPU      2.05s WALL (    8029 calls)
     cegterg      :    180.78s CPU    182.82s WALL (    3689 calls)

     Called by *egterg:
     cdiaghg      :      8.25s CPU      8.49s WALL (   16431 calls)
     h_psi        :    149.29s CPU    151.11s WALL (   16865 calls)
     s_psi        :      5.88s CPU      5.94s WALL (   16865 calls)
     g_psi        :      0.74s CPU      0.74s WALL (   12959 calls)

     Called by h_psi:
     h_psi:calbec :      6.27s CPU      6.34s WALL (   16865 calls)
     vloc_psi     :    136.74s CPU    138.43s WALL (   16865 calls)
     add_vuspsi   :      5.91s CPU      5.98s WALL (   16865 calls)

     General routines
     calbec       :      8.54s CPU      8.65s WALL (   21639 calls)
     fft          :      0.11s CPU      0.23s WALL (     213 calls)
     ffts         :      0.01s CPU      0.02s WALL (      17 calls)
     fftw         :    148.98s CPU    150.87s WALL (  708730 calls)
 
     Parallel routines
 
     PWSCF        :   4m 0.39s CPU   4m 5.99s WALL

 
   This run was terminated on:  13:59:49  16Nov2023            

=------------------------------------------------------------------------------=
   JOB DONE.
=------------------------------------------------------------------------------=
