MPI startup(): Warning: I_MPI_PMI_LIBRARY will be ignored since the hydra process manager was found
MPI startup(): Warning: I_MPI_PMI_LIBRARY will be ignored since the hydra process manager was found
MPI startup(): Warning: I_MPI_PMI_LIBRARY will be ignored since the hydra process manager was found
MPI startup(): Warning: I_MPI_PMI_LIBRARY will be ignored since the hydra process manager was found
MPI startup(): Warning: I_MPI_PMI_LIBRARY will be ignored since the hydra process manager was found
MPI startup(): Warning: I_MPI_PMI_LIBRARY will be ignored since the hydra process manager was found
MPI startup(): Warning: I_MPI_PMI_LIBRARY will be ignored since the hydra process manager was found
MPI startup(): Warning: I_MPI_PMI_LIBRARY will be ignored since the hydra process manager was found
MPI startup(): Warning: I_MPI_PMI_LIBRARY will be ignored since the hydra process manager was found
MPI startup(): Warning: I_MPI_PMI_LIBRARY will be ignored since the hydra process manager was found
MPI startup(): Warning: I_MPI_PMI_LIBRARY will be ignored since the hydra process manager was found
MPI startup(): Warning: I_MPI_PMI_LIBRARY will be ignored since the hydra process manager was found

     Program PWSCF v.7.0 starts on 15Nov2023 at 19:52:27 

     This program is part of the open-source Quantum ESPRESSO suite
     for quantum simulation of materials; please cite
         "P. Giannozzi et al., J. Phys.:Condens. Matter 21 395502 (2009);
         "P. Giannozzi et al., J. Phys.:Condens. Matter 29 465901 (2017);
         "P. Giannozzi et al., J. Chem. Phys. 152 154105 (2020);
          URL http://www.quantum-espresso.org", 
     in publications or presentations arising from this work. More details at
     http://www.quantum-espresso.org/quote

     Parallel version (MPI), running on    12 processors

     MPI processes distributed on     1 nodes
     K-points division:     npool     =       4
     R & G space division:  proc/nbgrp/npool/nimage =       3
     111128 MiB available memory on the printing compute node when the environment starts
 
     Waiting for input...
     Reading input from standard input

     Current dimensions of program PWSCF are:
     Max number of different atomic species (ntypx) = 10
     Max number of k-points (npk) =  40000
     Max angular momentum in pseudopotentials (lmaxx) =  4
     file Au.UPF: wavefunction(s)  6S 5D renormalized
     Found identity + ( -0.5000 -0.5000  0.0000) symmetry
     This is a supercell, fractional translations are disabled

     Subspace diagonalization in iterative solution of the eigenvalue problem:
     a serial algorithm will be used

 
     Parallelization info
     --------------------
     sticks:   dense  smooth     PW     G-vecs:    dense   smooth      PW
     Min         386     386    116                 9903     9903    1600
     Max         388     388    117                 9904     9904    1601
     Sum        1161    1161    349                29711    29711    4801
 
     Using Slab Decomposition
 


     bravais-lattice index     =            0
     lattice parameter (alat)  =       7.8000  a.u.
     unit-cell volume          =     474.5520 (a.u.)^3
     number of atoms/cell      =            4
     number of atomic types    =            1
     number of electrons       =        44.00
     number of Kohn-Sham states=           26
     kinetic-energy cutoff     =      60.0000  Ry
     charge density cutoff     =     240.0000  Ry
     scf convergence threshold =      1.0E-09
     mixing beta               =       0.7000
     number of iterations used =            8  plain     mixing
     Exchange-correlation= SLA  PW   PBX  PBC
                           (   1   4   3   4   0   0   0)

     celldm(1)=   7.800000  celldm(2)=   0.000000  celldm(3)=   0.000000
     celldm(4)=   0.000000  celldm(5)=   0.000000  celldm(6)=   0.000000

     crystal axes: (cart. coord. in units of alat)
               a(1) = (   1.000000   0.000000   0.000000 )  
               a(2) = (   0.000000   1.000000   0.000000 )  
               a(3) = (   0.000000   0.000000   1.000000 )  

     reciprocal axes: (cart. coord. in units 2 pi/alat)
               b(1) = (  1.000000  0.000000  0.000000 )  
               b(2) = (  0.000000  1.000000  0.000000 )  
               b(3) = (  0.000000  0.000000  1.000000 )  


     PseudoPot. # 1 for Au read from file:
     ./Au.UPF
     MD5 check sum: 4db85c736373c707a97ce4c36c2a9d23
     Pseudo is Projector augmented-wave + core cor, Zval = 11.0
     Generated using &quot;atomic&quot; code by A. Dal Corso  v.6.3
     Shape of augmentation charge: PSQ
     Using radial grid of 1279 points,  6 beta functions with: 
                l(1) =   0
                l(2) =   0
                l(3) =   1
                l(4) =   1
                l(5) =   2
                l(6) =   2
     Q(r) pseudized with 0 coefficients 


     atomic species   valence    mass     pseudopotential
        Au            11.00   196.96657     Au( 1.00)

     No symmetry found



   Cartesian axes

     site n.     atom                  positions (alat units)
         1           Au  tau(   1) = (   0.0000000   0.0000000   0.0000000  )
         2           Au  tau(   2) = (   0.5000000   0.5000000   0.0000000  )
         3           Au  tau(   3) = (   0.5000000   0.0000000   0.5000000  )
         4           Au  tau(   4) = (   0.0000000   0.5000000   0.5000000  )

     number of k points=   868  Gaussian smearing, width (Ry)=  0.0200

     Number of k-points >= 100: set verbosity='high' to print them.

     Dense  grid:    29711 G-vectors     FFT dimensions: (  40,  40,  40)

     Estimated max dynamical RAM per process >     123.24 MB

     Estimated total dynamical RAM >       1.42 GB

     Initial potential from superposition of free atoms

     starting charge      43.9996, renormalised to      44.0000
     Starting wfcs are   36 randomized atomic wfcs
     Checking if some PAW data can be deallocated... 

     total cpu time spent up to now is        4.5 secs

     Self-consistent Calculation

     iteration #  1     ecut=    60.00 Ry     beta= 0.70
     Davidson diagonalization with overlap
     ethr =  1.00E-02,  avg # of iterations =  3.0

     Threshold (ethr) on eigenvalues was too large:
     Diagonalizing with lowered threshold

     Davidson diagonalization with overlap
     ethr =  2.77E-04,  avg # of iterations =  4.8

     total cpu time spent up to now is       27.3 secs

     total energy              =   -3100.49152741 Ry
     estimated scf accuracy    <       0.18652646 Ry

     iteration #  2     ecut=    60.00 Ry     beta= 0.70
     Davidson diagonalization with overlap
     ethr =  4.24E-04,  avg # of iterations =  2.6

     total cpu time spent up to now is       38.0 secs

     total energy              =   -3100.55147154 Ry
     estimated scf accuracy    <       0.01878438 Ry

     iteration #  3     ecut=    60.00 Ry     beta= 0.70
     Davidson diagonalization with overlap
     ethr =  4.27E-05,  avg # of iterations =  4.3

     total cpu time spent up to now is       49.7 secs

     total energy              =   -3100.55587766 Ry
     estimated scf accuracy    <       0.00177303 Ry

     iteration #  4     ecut=    60.00 Ry     beta= 0.70
     Davidson diagonalization with overlap
     c_bands:  1 eigenvalues not converged
     ethr =  4.03E-06,  avg # of iterations =  5.5

     total cpu time spent up to now is       64.2 secs

     total energy              =   -3100.55714137 Ry
     estimated scf accuracy    <       0.00152762 Ry

     iteration #  5     ecut=    60.00 Ry     beta= 0.70
     Davidson diagonalization with overlap
     ethr =  3.47E-06,  avg # of iterations =  2.1

     total cpu time spent up to now is       73.0 secs

     total energy              =   -3100.55673688 Ry
     estimated scf accuracy    <       0.00099290 Ry

     iteration #  6     ecut=    60.00 Ry     beta= 0.70
     Davidson diagonalization with overlap
     ethr =  2.26E-06,  avg # of iterations =  2.9

     total cpu time spent up to now is       83.8 secs

     total energy              =   -3100.55704751 Ry
     estimated scf accuracy    <       0.00000777 Ry

     iteration #  7     ecut=    60.00 Ry     beta= 0.70
     Davidson diagonalization with overlap
     ethr =  1.77E-08,  avg # of iterations = 10.0

     total cpu time spent up to now is      112.2 secs

     total energy              =   -3100.55708297 Ry
     estimated scf accuracy    <       0.00004361 Ry

     iteration #  8     ecut=    60.00 Ry     beta= 0.70
     Davidson diagonalization with overlap
     ethr =  1.77E-08,  avg # of iterations =  2.0

     total cpu time spent up to now is      121.2 secs

     total energy              =   -3100.55707314 Ry
     estimated scf accuracy    <       0.00002010 Ry

     iteration #  9     ecut=    60.00 Ry     beta= 0.70
     Davidson diagonalization with overlap
     ethr =  1.77E-08,  avg # of iterations =  3.7

     total cpu time spent up to now is      132.8 secs

     total energy              =   -3100.55707678 Ry
     estimated scf accuracy    <       0.00000093 Ry

     iteration # 10     ecut=    60.00 Ry     beta= 0.70
     Davidson diagonalization with overlap
     ethr =  2.11E-09,  avg # of iterations =  8.9

     total cpu time spent up to now is      157.1 secs

     total energy              =   -3100.55707883 Ry
     estimated scf accuracy    <       0.00001005 Ry

     iteration # 11     ecut=    60.00 Ry     beta= 0.70
     Davidson diagonalization with overlap
     ethr =  2.11E-09,  avg # of iterations =  2.0

     total cpu time spent up to now is      166.9 secs

     total energy              =   -3100.55707699 Ry
     estimated scf accuracy    <       0.00000425 Ry

     iteration # 12     ecut=    60.00 Ry     beta= 0.70
     Davidson diagonalization with overlap
     ethr =  2.11E-09,  avg # of iterations =  4.8

     total cpu time spent up to now is      180.1 secs

     total energy              =   -3100.55707730 Ry
     estimated scf accuracy    <       0.00000036 Ry

     iteration # 13     ecut=    60.00 Ry     beta= 0.70
     Davidson diagonalization with overlap
     ethr =  8.18E-10,  avg # of iterations =  6.2

     total cpu time spent up to now is      197.9 secs

     total energy              =   -3100.55707755 Ry
     estimated scf accuracy    <       0.00000049 Ry

     iteration # 14     ecut=    60.00 Ry     beta= 0.70
     Davidson diagonalization with overlap
     ethr =  8.18E-10,  avg # of iterations =  2.1

     total cpu time spent up to now is      207.6 secs

     total energy              =   -3100.55707766 Ry
     estimated scf accuracy    <          1.9E-09 Ry

     iteration # 15     ecut=    60.00 Ry     beta= 0.70
     Davidson diagonalization with overlap
     c_bands:  1 eigenvalues not converged
     ethr =  4.27E-12,  avg # of iterations = 12.6

     total cpu time spent up to now is      242.1 secs

     total energy              =   -3100.55707764 Ry
     estimated scf accuracy    <       0.00000008 Ry

     iteration # 16     ecut=    60.00 Ry     beta= 0.70
     Davidson diagonalization with overlap
     ethr =  4.27E-12,  avg # of iterations =  9.6

     total cpu time spent up to now is      268.2 secs

     total energy              =   -3100.55707766 Ry
     estimated scf accuracy    <          2.6E-09 Ry

     iteration # 17     ecut=    60.00 Ry     beta= 0.70
     Davidson diagonalization with overlap
     ethr =  4.27E-12,  avg # of iterations =  1.5

     total cpu time spent up to now is      276.3 secs

     End of self-consistent calculation

     Number of k-points >= 100: set verbosity='high' to print the bands.

     the Fermi energy is    15.1932 ev

!    total energy              =   -3100.55707766 Ry

     total all-electron energy =   -152095.941442 Ry
     estimated scf accuracy    <          5.9E-10 Ry
     smearing contrib. (-TS)   =      -0.00298496 Ry
     internal energy E=F+TS    =   -3100.55409270 Ry

     The total energy is F=E-TS. E is the sum of the following terms:
     one-electron contribution =      50.61969543 Ry
     hartree contribution      =      31.75910196 Ry
     xc contribution           =    -128.36364959 Ry
     ewald contribution        =    -284.49656975 Ry
     one-center paw contrib.   =   -2770.07267075 Ry

     convergence has been achieved in  17 iterations

     Forces acting on atoms (cartesian axes, Ry/au):

     atom    1 type  1   force =     0.00000038    0.00000009   -0.00000016
     atom    2 type  1   force =    -0.00000038   -0.00000017   -0.00000014
     atom    3 type  1   force =    -0.00000042    0.00000014    0.00000012
     atom    4 type  1   force =     0.00000042   -0.00000005    0.00000018

     Total force =     0.000001     Total SCF correction =     0.000001
     SCF correction compared to forces is large: reduce conv_thr to get better values


     Computing stress (Cartesian axis) and pressure

          total   stress  (Ry/bohr**3)                   (kbar)     P=       39.26
   0.00026690   0.00000000  -0.00000000           39.26        0.00       -0.00
   0.00000000   0.00026690  -0.00000000            0.00       39.26       -0.00
  -0.00000000  -0.00000000   0.00026690           -0.00       -0.00       39.26


     Writing all to output data dir ./gold.save/
 
     init_run     :      3.98s CPU      4.12s WALL (       1 calls)
     electrons    :    268.91s CPU    271.83s WALL (       1 calls)
     forces       :      0.70s CPU      0.71s WALL (       1 calls)
     stress       :      2.52s CPU      2.53s WALL (       1 calls)

     Called by init_run:
     wfcinit      :      3.62s CPU      3.71s WALL (       1 calls)
     potinit      :      0.07s CPU      0.09s WALL (       1 calls)
     hinit0       :      0.08s CPU      0.09s WALL (       1 calls)

     Called by electrons:
     c_bands      :    246.11s CPU    248.68s WALL (      18 calls)
     sum_band     :     21.87s CPU     22.14s WALL (      18 calls)
     v_of_rho     :      0.12s CPU      0.18s WALL (      18 calls)
     newd         :      0.06s CPU      0.08s WALL (      18 calls)
     PAW_pot      :      0.79s CPU      0.79s WALL (      18 calls)
     mix_rho      :      0.02s CPU      0.02s WALL (      18 calls)

     Called by c_bands:
     init_us_2    :      2.32s CPU      2.34s WALL (    8463 calls)
     init_us_2:cp :      2.31s CPU      2.33s WALL (    8463 calls)
     cegterg      :    211.28s CPU    213.56s WALL (    3906 calls)

     Called by *egterg:
     cdiaghg      :     14.60s CPU     14.68s WALL (   23181 calls)
     h_psi        :    153.47s CPU    155.51s WALL (   23615 calls)
     s_psi        :      9.70s CPU      9.77s WALL (   23615 calls)
     g_psi        :      1.20s CPU      1.21s WALL (   19492 calls)

     Called by h_psi:
     h_psi:calbec :     10.09s CPU     10.21s WALL (   23615 calls)
     vloc_psi     :    132.78s CPU    134.62s WALL (   23615 calls)
     add_vuspsi   :      9.94s CPU     10.03s WALL (   23615 calls)

     General routines
     calbec       :     12.76s CPU     12.91s WALL (   28606 calls)
     fft          :      0.07s CPU      0.16s WALL (     224 calls)
     ffts         :      0.01s CPU      0.01s WALL (      18 calls)
     fftw         :    137.45s CPU    139.33s WALL (  952566 calls)
 
     Parallel routines
 
     PWSCF        :   4m37.11s CPU   4m40.83s WALL

 
   This run was terminated on:  19:57: 7  15Nov2023            

=------------------------------------------------------------------------------=
   JOB DONE.
=------------------------------------------------------------------------------=
