MPI startup(): Warning: I_MPI_PMI_LIBRARY will be ignored since the hydra process manager was found
MPI startup(): Warning: I_MPI_PMI_LIBRARY will be ignored since the hydra process manager was found
MPI startup(): Warning: I_MPI_PMI_LIBRARY will be ignored since the hydra process manager was found
MPI startup(): Warning: I_MPI_PMI_LIBRARY will be ignored since the hydra process manager was found
MPI startup(): Warning: I_MPI_PMI_LIBRARY will be ignored since the hydra process manager was found
MPI startup(): Warning: I_MPI_PMI_LIBRARY will be ignored since the hydra process manager was found
MPI startup(): Warning: I_MPI_PMI_LIBRARY will be ignored since the hydra process manager was found
MPI startup(): Warning: I_MPI_PMI_LIBRARY will be ignored since the hydra process manager was found
MPI startup(): Warning: I_MPI_PMI_LIBRARY will be ignored since the hydra process manager was found
MPI startup(): Warning: I_MPI_PMI_LIBRARY will be ignored since the hydra process manager was found
MPI startup(): Warning: I_MPI_PMI_LIBRARY will be ignored since the hydra process manager was found
MPI startup(): Warning: I_MPI_PMI_LIBRARY will be ignored since the hydra process manager was found

     Program PWSCF v.7.0 starts on 16Nov2023 at 14: 5:10 

     This program is part of the open-source Quantum ESPRESSO suite
     for quantum simulation of materials; please cite
         "P. Giannozzi et al., J. Phys.:Condens. Matter 21 395502 (2009);
         "P. Giannozzi et al., J. Phys.:Condens. Matter 29 465901 (2017);
         "P. Giannozzi et al., J. Chem. Phys. 152 154105 (2020);
          URL http://www.quantum-espresso.org", 
     in publications or presentations arising from this work. More details at
     http://www.quantum-espresso.org/quote

     Parallel version (MPI), running on    12 processors

     MPI processes distributed on     1 nodes
     K-points division:     npool     =       4
     R & G space division:  proc/nbgrp/npool/nimage =       3
     194442 MiB available memory on the printing compute node when the environment starts
 
     Waiting for input...
     Reading input from standard input

     Current dimensions of program PWSCF are:
     Max number of different atomic species (ntypx) = 10
     Max number of k-points (npk) =  40000
     Max angular momentum in pseudopotentials (lmaxx) =  4
     file Au.UPF: wavefunction(s)  6S 5D renormalized
     Found identity + ( -0.5000 -0.5000  0.0000) symmetry
     This is a supercell, fractional translations are disabled

     Subspace diagonalization in iterative solution of the eigenvalue problem:
     a serial algorithm will be used

 
     Parallelization info
     --------------------
     sticks:   dense  smooth     PW     G-vecs:    dense   smooth      PW
     Min         451     451    133                12397    12397    1962
     Max         451     451    134                12399    12399    1963
     Sum        1353    1353    401                37193    37193    5887
 
     Using Slab Decomposition
 


     bravais-lattice index     =            0
     lattice parameter (alat)  =       8.4000  a.u.
     unit-cell volume          =     592.7040 (a.u.)^3
     number of atoms/cell      =            4
     number of atomic types    =            1
     number of electrons       =        44.00
     number of Kohn-Sham states=           26
     kinetic-energy cutoff     =      60.0000  Ry
     charge density cutoff     =     240.0000  Ry
     scf convergence threshold =      1.0E-09
     mixing beta               =       0.7000
     number of iterations used =            8  plain     mixing
     Exchange-correlation= SLA  PW   PBX  PBC
                           (   1   4   3   4   0   0   0)

     celldm(1)=   8.400000  celldm(2)=   0.000000  celldm(3)=   0.000000
     celldm(4)=   0.000000  celldm(5)=   0.000000  celldm(6)=   0.000000

     crystal axes: (cart. coord. in units of alat)
               a(1) = (   1.000000   0.000000   0.000000 )  
               a(2) = (   0.000000   1.000000   0.000000 )  
               a(3) = (   0.000000   0.000000   1.000000 )  

     reciprocal axes: (cart. coord. in units 2 pi/alat)
               b(1) = (  1.000000  0.000000  0.000000 )  
               b(2) = (  0.000000  1.000000  0.000000 )  
               b(3) = (  0.000000  0.000000  1.000000 )  


     PseudoPot. # 1 for Au read from file:
     ./Au.UPF
     MD5 check sum: 4db85c736373c707a97ce4c36c2a9d23
     Pseudo is Projector augmented-wave + core cor, Zval = 11.0
     Generated using &quot;atomic&quot; code by A. Dal Corso  v.6.3
     Shape of augmentation charge: PSQ
     Using radial grid of 1279 points,  6 beta functions with: 
                l(1) =   0
                l(2) =   0
                l(3) =   1
                l(4) =   1
                l(5) =   2
                l(6) =   2
     Q(r) pseudized with 0 coefficients 


     atomic species   valence    mass     pseudopotential
        Au            11.00   196.96657     Au( 1.00)

     No symmetry found



   Cartesian axes

     site n.     atom                  positions (alat units)
         1           Au  tau(   1) = (   0.0000000   0.0000000   0.0000000  )
         2           Au  tau(   2) = (   0.5000000   0.5000000   0.0000000  )
         3           Au  tau(   3) = (   0.5000000   0.0000000   0.5000000  )
         4           Au  tau(   4) = (   0.0000000   0.5000000   0.5000000  )

     number of k points=   868  Gaussian smearing, width (Ry)=  0.0200

     Number of k-points >= 100: set verbosity='high' to print them.

     Dense  grid:    37193 G-vectors     FFT dimensions: (  45,  45,  45)

     Estimated max dynamical RAM per process >     153.82 MB

     Estimated total dynamical RAM >       1.78 GB

     Initial potential from superposition of free atoms

     starting charge      43.9996, renormalised to      44.0000
     Starting wfcs are   36 randomized atomic wfcs
     Checking if some PAW data can be deallocated... 

     total cpu time spent up to now is        5.6 secs

     Self-consistent Calculation

     iteration #  1     ecut=    60.00 Ry     beta= 0.70
     Davidson diagonalization with overlap
     ethr =  1.00E-02,  avg # of iterations =  2.7

     Threshold (ethr) on eigenvalues was too large:
     Diagonalizing with lowered threshold

     Davidson diagonalization with overlap
     ethr =  3.06E-04,  avg # of iterations =  3.7

     total cpu time spent up to now is       30.0 secs

     total energy              =   -3100.42126277 Ry
     estimated scf accuracy    <       0.17825601 Ry

     iteration #  2     ecut=    60.00 Ry     beta= 0.70
     Davidson diagonalization with overlap
     ethr =  4.05E-04,  avg # of iterations =  2.7

     total cpu time spent up to now is       43.1 secs

     total energy              =   -3100.48348089 Ry
     estimated scf accuracy    <       0.03148665 Ry

     iteration #  3     ecut=    60.00 Ry     beta= 0.70
     Davidson diagonalization with overlap
     ethr =  7.16E-05,  avg # of iterations =  2.7

     total cpu time spent up to now is       54.9 secs

     total energy              =   -3100.48833691 Ry
     estimated scf accuracy    <       0.00190006 Ry

     iteration #  4     ecut=    60.00 Ry     beta= 0.70
     Davidson diagonalization with overlap
     ethr =  4.32E-06,  avg # of iterations =  6.8

     total cpu time spent up to now is       76.5 secs

     total energy              =   -3100.49078312 Ry
     estimated scf accuracy    <       0.00186537 Ry

     iteration #  5     ecut=    60.00 Ry     beta= 0.70
     Davidson diagonalization with overlap
     ethr =  4.24E-06,  avg # of iterations =  2.0

     total cpu time spent up to now is       86.7 secs

     total energy              =   -3100.48995955 Ry
     estimated scf accuracy    <       0.00156661 Ry

     iteration #  6     ecut=    60.00 Ry     beta= 0.70
     Davidson diagonalization with overlap
     c_bands:  1 eigenvalues not converged
     ethr =  3.56E-06,  avg # of iterations =  2.6

     total cpu time spent up to now is       99.6 secs

     total energy              =   -3100.49053364 Ry
     estimated scf accuracy    <       0.00006148 Ry

     iteration #  7     ecut=    60.00 Ry     beta= 0.70
     Davidson diagonalization with overlap
     ethr =  1.40E-07,  avg # of iterations =  6.5

     total cpu time spent up to now is      121.4 secs

     total energy              =   -3100.49059072 Ry
     estimated scf accuracy    <       0.00015812 Ry

     iteration #  8     ecut=    60.00 Ry     beta= 0.70
     Davidson diagonalization with overlap
     ethr =  1.40E-07,  avg # of iterations =  1.0

     total cpu time spent up to now is      130.6 secs

     total energy              =   -3100.49053511 Ry
     estimated scf accuracy    <       0.00013292 Ry

     iteration #  9     ecut=    60.00 Ry     beta= 0.70
     Davidson diagonalization with overlap
     ethr =  1.40E-07,  avg # of iterations =  2.0

     total cpu time spent up to now is      141.7 secs

     total energy              =   -3100.49052450 Ry
     estimated scf accuracy    <       0.00002579 Ry

     iteration # 10     ecut=    60.00 Ry     beta= 0.70
     Davidson diagonalization with overlap
     ethr =  5.86E-08,  avg # of iterations =  5.9

     total cpu time spent up to now is      161.2 secs

     total energy              =   -3100.49057088 Ry
     estimated scf accuracy    <       0.00007132 Ry

     iteration # 11     ecut=    60.00 Ry     beta= 0.70
     Davidson diagonalization with overlap
     ethr =  5.86E-08,  avg # of iterations =  1.1

     total cpu time spent up to now is      170.5 secs

     total energy              =   -3100.49056256 Ry
     estimated scf accuracy    <       0.00006960 Ry

     iteration # 12     ecut=    60.00 Ry     beta= 0.70
     Davidson diagonalization with overlap
     ethr =  5.86E-08,  avg # of iterations =  1.0

     total cpu time spent up to now is      179.7 secs

     total energy              =   -3100.49052750 Ry
     estimated scf accuracy    <       0.00005359 Ry

     iteration # 13     ecut=    60.00 Ry     beta= 0.70
     Davidson diagonalization with overlap
     ethr =  5.86E-08,  avg # of iterations =  2.9

     total cpu time spent up to now is      192.9 secs

     total energy              =   -3100.49054115 Ry
     estimated scf accuracy    <          7.2E-09 Ry

     iteration # 14     ecut=    60.00 Ry     beta= 0.70
     Davidson diagonalization with overlap
     c_bands:  4 eigenvalues not converged
     c_bands:  4 eigenvalues not converged
     c_bands:  5 eigenvalues not converged
     c_bands:  4 eigenvalues not converged
     c_bands:  4 eigenvalues not converged
     c_bands:  2 eigenvalues not converged
     c_bands:  4 eigenvalues not converged
     c_bands:  3 eigenvalues not converged
     c_bands:  5 eigenvalues not converged
     c_bands:  5 eigenvalues not converged
     c_bands:  5 eigenvalues not converged
     c_bands:  5 eigenvalues not converged
     c_bands:  4 eigenvalues not converged
     c_bands:  5 eigenvalues not converged
     c_bands:  3 eigenvalues not converged
     c_bands:  4 eigenvalues not converged
     c_bands:  5 eigenvalues not converged
     c_bands:  2 eigenvalues not converged
     c_bands:  3 eigenvalues not converged
     c_bands:  5 eigenvalues not converged
     c_bands:  3 eigenvalues not converged
     c_bands:  5 eigenvalues not converged
     c_bands:  5 eigenvalues not converged
     c_bands:  5 eigenvalues not converged
     c_bands:  5 eigenvalues not converged
     c_bands:  4 eigenvalues not converged
     c_bands:  5 eigenvalues not converged
     c_bands:  4 eigenvalues not converged
     ethr =  1.63E-11,  avg # of iterations = 22.4

     total cpu time spent up to now is      268.3 secs

     total energy              =   -3100.49054207 Ry
     estimated scf accuracy    <       0.00000069 Ry

     iteration # 15     ecut=    60.00 Ry     beta= 0.70
     Davidson diagonalization with overlap
     ethr =  1.63E-11,  avg # of iterations = 10.4

     total cpu time spent up to now is      301.9 secs

     total energy              =   -3100.49054220 Ry
     estimated scf accuracy    <          3.8E-09 Ry

     iteration # 16     ecut=    60.00 Ry     beta= 0.70
     Davidson diagonalization with overlap
     ethr =  8.61E-12,  avg # of iterations =  4.3

     total cpu time spent up to now is      318.7 secs

     End of self-consistent calculation

     Number of k-points >= 100: set verbosity='high' to print the bands.

     the Fermi energy is    10.8143 ev

!    total energy              =   -3100.49054221 Ry

     total all-electron energy =   -152095.874906 Ry
     estimated scf accuracy    <          8.4E-10 Ry
     smearing contrib. (-TS)   =      -0.00355732 Ry
     internal energy E=F+TS    =   -3100.48698488 Ry

     The total energy is F=E-TS. E is the sum of the following terms:
     one-electron contribution =      21.16087274 Ry
     hartree contribution      =      40.34044883 Ry
     xc contribution           =    -127.83619298 Ry
     ewald contribution        =    -264.17538620 Ry
     one-center paw contrib.   =   -2769.97672729 Ry

     convergence has been achieved in  16 iterations

     Forces acting on atoms (cartesian axes, Ry/au):

     atom    1 type  1   force =    -0.00000227    0.00000002   -0.00000280
     atom    2 type  1   force =     0.00000328    0.00000009   -0.00000335
     atom    3 type  1   force =     0.00000288   -0.00000082    0.00000248
     atom    4 type  1   force =    -0.00000389    0.00000071    0.00000367

     Total force =     0.000009     Total SCF correction =     0.000011
     SCF correction compared to forces is large: reduce conv_thr to get better values


     Computing stress (Cartesian axis) and pressure

          total   stress  (Ry/bohr**3)                   (kbar)     P=     -149.94
  -0.00101926   0.00000000  -0.00000000         -149.94        0.00       -0.00
   0.00000000  -0.00101926  -0.00000000            0.00     -149.94       -0.00
  -0.00000000  -0.00000000  -0.00101926           -0.00       -0.00     -149.94


     Writing all to output data dir ./gold.save/
 
     init_run     :      4.92s CPU      5.07s WALL (       1 calls)
     electrons    :    309.79s CPU    313.16s WALL (       1 calls)
     forces       :      0.72s CPU      0.73s WALL (       1 calls)
     stress       :      2.60s CPU      2.61s WALL (       1 calls)

     Called by init_run:
     wfcinit      :      4.64s CPU      4.75s WALL (       1 calls)
     potinit      :      0.06s CPU      0.08s WALL (       1 calls)
     hinit0       :      0.07s CPU      0.08s WALL (       1 calls)

     Called by electrons:
     c_bands      :    282.51s CPU    285.39s WALL (      17 calls)
     sum_band     :     26.47s CPU     26.88s WALL (      17 calls)
     v_of_rho     :      0.15s CPU      0.21s WALL (      17 calls)
     newd         :      0.06s CPU      0.07s WALL (      17 calls)
     PAW_pot      :      0.60s CPU      0.61s WALL (      17 calls)
     mix_rho      :      0.03s CPU      0.03s WALL (      17 calls)

     Called by c_bands:
     init_us_2    :      2.15s CPU      2.20s WALL (    8029 calls)
     init_us_2:cp :      2.13s CPU      2.19s WALL (    8029 calls)
     cegterg      :    252.16s CPU    254.72s WALL (    3872 calls)

     Called by *egterg:
     cdiaghg      :     11.10s CPU     11.18s WALL (   21261 calls)
     h_psi        :    203.40s CPU    205.71s WALL (   21695 calls)
     s_psi        :      8.33s CPU      8.40s WALL (   21695 calls)
     g_psi        :      1.17s CPU      1.19s WALL (   17606 calls)

     Called by h_psi:
     h_psi:calbec :      8.97s CPU      9.06s WALL (   21695 calls)
     vloc_psi     :    185.52s CPU    187.66s WALL (   21695 calls)
     add_vuspsi   :      8.40s CPU      8.48s WALL (   21695 calls)

     General routines
     calbec       :     11.41s CPU     11.53s WALL (   26469 calls)
     fft          :      0.10s CPU      0.19s WALL (     213 calls)
     ffts         :      0.02s CPU      0.02s WALL (      17 calls)
     fftw         :    195.14s CPU    197.40s WALL (  920826 calls)
 
     Parallel routines
 
     PWSCF        :   5m18.97s CPU   5m23.35s WALL

 
   This run was terminated on:  14:10:33  16Nov2023            

=------------------------------------------------------------------------------=
   JOB DONE.
=------------------------------------------------------------------------------=
