MPI startup(): Warning: I_MPI_PMI_LIBRARY will be ignored since the hydra process manager was found
MPI startup(): Warning: I_MPI_PMI_LIBRARY will be ignored since the hydra process manager was found
MPI startup(): Warning: I_MPI_PMI_LIBRARY will be ignored since the hydra process manager was found
MPI startup(): Warning: I_MPI_PMI_LIBRARY will be ignored since the hydra process manager was found
MPI startup(): Warning: I_MPI_PMI_LIBRARY will be ignored since the hydra process manager was found
MPI startup(): Warning: I_MPI_PMI_LIBRARY will be ignored since the hydra process manager was found
MPI startup(): Warning: I_MPI_PMI_LIBRARY will be ignored since the hydra process manager was found
MPI startup(): Warning: I_MPI_PMI_LIBRARY will be ignored since the hydra process manager was found
MPI startup(): Warning: I_MPI_PMI_LIBRARY will be ignored since the hydra process manager was found
MPI startup(): Warning: I_MPI_PMI_LIBRARY will be ignored since the hydra process manager was found
MPI startup(): Warning: I_MPI_PMI_LIBRARY will be ignored since the hydra process manager was found
MPI startup(): Warning: I_MPI_PMI_LIBRARY will be ignored since the hydra process manager was found
MPI startup(): Warning: I_MPI_PMI_LIBRARY will be ignored since the hydra process manager was found
MPI startup(): Warning: I_MPI_PMI_LIBRARY will be ignored since the hydra process manager was found
MPI startup(): Warning: I_MPI_PMI_LIBRARY will be ignored since the hydra process manager was found
MPI startup(): Warning: I_MPI_PMI_LIBRARY will be ignored since the hydra process manager was found
MPI startup(): Warning: I_MPI_PMI_LIBRARY will be ignored since the hydra process manager was found
MPI startup(): Warning: I_MPI_PMI_LIBRARY will be ignored since the hydra process manager was found
MPI startup(): Warning: I_MPI_PMI_LIBRARY will be ignored since the hydra process manager was found
MPI startup(): Warning: I_MPI_PMI_LIBRARY will be ignored since the hydra process manager was found

     Program PWSCF v.7.0 starts on  3Feb2024 at 13:47:51 

     This program is part of the open-source Quantum ESPRESSO suite
     for quantum simulation of materials; please cite
         "P. Giannozzi et al., J. Phys.:Condens. Matter 21 395502 (2009);
         "P. Giannozzi et al., J. Phys.:Condens. Matter 29 465901 (2017);
         "P. Giannozzi et al., J. Chem. Phys. 152 154105 (2020);
          URL http://www.quantum-espresso.org", 
     in publications or presentations arising from this work. More details at
     http://www.quantum-espresso.org/quote

     Parallel version (MPI), running on    20 processors

     MPI processes distributed on     1 nodes
     R & G space division:  proc/nbgrp/npool/nimage =      20
     77080 MiB available memory on the printing compute node when the environment starts
 
     Reading input from gold-8.5.in
Warning: card &CELL ignored
Warning: card / ignored

     Current dimensions of program PWSCF are:
     Max number of different atomic species (ntypx) = 10
     Max number of k-points (npk) =  40000
     Max angular momentum in pseudopotentials (lmaxx) =  4
     file Au.pbe-n-kjpaw_psl.1.0.0.UPF: wavefunction(s)  6S 5D renormalized
     Found identity + ( -0.5000 -0.5000 -0.5000) symmetry
     This is a supercell, fractional translations are disabled

     Subspace diagonalization in iterative solution of the eigenvalue problem:
     one sub-group per band group will be used
     scalapack distributed-memory algorithm (size of sub-group:  4*  4 procs)

 
     Parallelization info
     --------------------
     sticks:   dense  smooth     PW     G-vecs:    dense   smooth      PW
     Min          40      40     12                  736      736     124
     Max          41      41     13                  740      740     126
     Sum         817     817    249                14771    14771    2491
 
     Using Slab Decomposition
 


     bravais-lattice index     =            3
     lattice parameter (alat)  =       8.5000  a.u.
     unit-cell volume          =     307.0625 (a.u.)^3
     number of atoms/cell      =            2
     number of atomic types    =            1
     number of electrons       =        22.00
     number of Kohn-Sham states=           15
     kinetic-energy cutoff     =      50.0000  Ry
     charge density cutoff     =     200.0000  Ry
     scf convergence threshold =      1.0E-09
     mixing beta               =       0.7000
     number of iterations used =            8  plain     mixing
     Exchange-correlation= SLA  PW   PBX  PBC
                           (   1   4   3   4   0   0   0)

     celldm(1)=   8.500000  celldm(2)=   0.000000  celldm(3)=   0.000000
     celldm(4)=   0.000000  celldm(5)=   0.000000  celldm(6)=   0.000000

     crystal axes: (cart. coord. in units of alat)
               a(1) = (   0.500000   0.500000   0.500000 )  
               a(2) = (  -0.500000   0.500000   0.500000 )  
               a(3) = (  -0.500000  -0.500000   0.500000 )  

     reciprocal axes: (cart. coord. in units 2 pi/alat)
               b(1) = (  1.000000  0.000000  1.000000 )  
               b(2) = ( -1.000000  1.000000  0.000000 )  
               b(3) = (  0.000000 -1.000000  1.000000 )  


     PseudoPot. # 1 for Au read from file:
     ./Au.pbe-n-kjpaw_psl.1.0.0.UPF
     MD5 check sum: 4db85c736373c707a97ce4c36c2a9d23
     Pseudo is Projector augmented-wave + core cor, Zval = 11.0
     Generated using &quot;atomic&quot; code by A. Dal Corso  v.6.3
     Shape of augmentation charge: PSQ
     Using radial grid of 1279 points,  6 beta functions with: 
                l(1) =   0
                l(2) =   0
                l(3) =   1
                l(4) =   1
                l(5) =   2
                l(6) =   2
     Q(r) pseudized with 0 coefficients 


     atomic species   valence    mass     pseudopotential
        Au            11.00   196.96657     Au( 1.00)

     12 Sym. Ops., with inversion, found



   Cartesian axes

     site n.     atom                  positions (alat units)
         1           Au  tau(   1) = (   0.0000000   0.0000000   0.0000000  )
         2           Au  tau(   2) = (  -0.2500000   0.2500000   0.7500000  )

     number of k points=   189  Gaussian smearing, width (Ry)=  0.0020

     Number of k-points >= 100: set verbosity='high' to print them.

     Dense  grid:    14771 G-vectors     FFT dimensions: (  36,  36,  36)

     Estimated max dynamical RAM per process >       7.79 MB

     Estimated total dynamical RAM >     155.76 MB

     Initial potential from superposition of free atoms

     starting charge      21.9998, renormalised to      22.0000
     Starting wfcs are   18 randomized atomic wfcs
     Checking if some PAW data can be deallocated... 

     total cpu time spent up to now is        1.6 secs

     Self-consistent Calculation

     iteration #  1     ecut=    50.00 Ry     beta= 0.70
     Davidson diagonalization with overlap
     ethr =  1.00E-02,  avg # of iterations =  4.3

     Threshold (ethr) on eigenvalues was too large:
     Diagonalizing with lowered threshold

     Davidson diagonalization with overlap
     ethr =  9.50E-04,  avg # of iterations =  3.2

     total cpu time spent up to now is        6.3 secs

     total energy              =   -1549.19304714 Ry
     estimated scf accuracy    <       0.20896008 Ry

     iteration #  2     ecut=    50.00 Ry     beta= 0.70
     Davidson diagonalization with overlap
     ethr =  9.50E-04,  avg # of iterations =  3.6

     total cpu time spent up to now is        9.0 secs

     total energy              =   -1549.26809974 Ry
     estimated scf accuracy    <       0.16566705 Ry

     iteration #  3     ecut=    50.00 Ry     beta= 0.70
     Davidson diagonalization with overlap
     ethr =  7.53E-04,  avg # of iterations =  1.5

     total cpu time spent up to now is       10.7 secs

     total energy              =   -1549.29312858 Ry
     estimated scf accuracy    <       0.00322212 Ry

     iteration #  4     ecut=    50.00 Ry     beta= 0.70
     Davidson diagonalization with overlap
     c_bands:  1 eigenvalues not converged
     c_bands:  1 eigenvalues not converged
     c_bands:  1 eigenvalues not converged
     c_bands:  1 eigenvalues not converged
     c_bands:  1 eigenvalues not converged
     ethr =  1.46E-05,  avg # of iterations =  8.1

     total cpu time spent up to now is       15.7 secs

     total energy              =   -1549.29697534 Ry
     estimated scf accuracy    <       0.00502554 Ry

     iteration #  5     ecut=    50.00 Ry     beta= 0.70
     Davidson diagonalization with overlap
     ethr =  1.46E-05,  avg # of iterations =  2.0

     total cpu time spent up to now is       17.5 secs

     total energy              =   -1549.29785341 Ry
     estimated scf accuracy    <       0.00010619 Ry

     iteration #  6     ecut=    50.00 Ry     beta= 0.70
     Davidson diagonalization with overlap
     c_bands:  1 eigenvalues not converged
     c_bands:  1 eigenvalues not converged
     ethr =  4.83E-07,  avg # of iterations =  5.6

     total cpu time spent up to now is       21.0 secs

     total energy              =   -1549.29785812 Ry
     estimated scf accuracy    <       0.00017519 Ry

     iteration #  7     ecut=    50.00 Ry     beta= 0.70
     Davidson diagonalization with overlap
     c_bands:  1 eigenvalues not converged
     c_bands:  1 eigenvalues not converged
     ethr =  4.83E-07,  avg # of iterations =  2.5

     total cpu time spent up to now is       23.2 secs

     total energy              =   -1549.29788790 Ry
     estimated scf accuracy    <       0.00000655 Ry

     iteration #  8     ecut=    50.00 Ry     beta= 0.70
     Davidson diagonalization with overlap
     ethr =  2.98E-08,  avg # of iterations =  6.1

     total cpu time spent up to now is       27.4 secs

     total energy              =   -1549.29789516 Ry
     estimated scf accuracy    <       0.00000788 Ry

     iteration #  9     ecut=    50.00 Ry     beta= 0.70
     Davidson diagonalization with overlap
     ethr =  2.98E-08,  avg # of iterations =  1.9

     total cpu time spent up to now is       29.2 secs

     total energy              =   -1549.29789550 Ry
     estimated scf accuracy    <       0.00000193 Ry

     iteration # 10     ecut=    50.00 Ry     beta= 0.70
     Davidson diagonalization with overlap
     ethr =  8.75E-09,  avg # of iterations =  2.2

     total cpu time spent up to now is       31.1 secs

     total energy              =   -1549.29789570 Ry
     estimated scf accuracy    <       0.00000006 Ry

     iteration # 11     ecut=    50.00 Ry     beta= 0.70
     Davidson diagonalization with overlap
     ethr =  2.93E-10,  avg # of iterations =  6.0

     total cpu time spent up to now is       35.2 secs

     total energy              =   -1549.29789579 Ry
     estimated scf accuracy    <       0.00000001 Ry

     iteration # 12     ecut=    50.00 Ry     beta= 0.70
     Davidson diagonalization with overlap
     ethr =  5.33E-11,  avg # of iterations =  4.1

     total cpu time spent up to now is       38.1 secs

     End of self-consistent calculation

     Number of k-points >= 100: set verbosity='high' to print the bands.

     the Fermi energy is    10.7916 ev

!    total energy              =   -1549.29789579 Ry

     total all-electron energy =    -76046.990078 Ry
     estimated scf accuracy    <          7.1E-10 Ry
     smearing contrib. (-TS)   =      -0.00014665 Ry
     internal energy E=F+TS    =   -1549.29774915 Ry

     The total energy is F=E-TS. E is the sum of the following terms:
     one-electron contribution =     -17.44583241 Ry
     hartree contribution      =      33.21566453 Ry
     xc contribution           =     -64.74414503 Ry
     ewald contribution        =    -115.02691147 Ry
     one-center paw contrib.   =   -1385.29652476 Ry

     convergence has been achieved in  12 iterations

     Forces acting on atoms (cartesian axes, Ry/au):

     atom    1 type  1   force =     0.00000000    0.00000000    0.00000000
     atom    2 type  1   force =     0.00000000    0.00000000    0.00000000

     Total force =     0.000000     Total SCF correction =     0.000000

     Writing all to output data dir ./pwscf.save/
 
     init_run     :      0.70s CPU      0.75s WALL (       1 calls)
     electrons    :     35.84s CPU     36.55s WALL (       1 calls)
     forces       :      0.10s CPU      0.10s WALL (       1 calls)

     Called by init_run:
     wfcinit      :      0.65s CPU      0.66s WALL (       1 calls)
     potinit      :      0.02s CPU      0.03s WALL (       1 calls)
     hinit0       :      0.02s CPU      0.04s WALL (       1 calls)

     Called by electrons:
     c_bands      :     33.12s CPU     33.67s WALL (      13 calls)
     sum_band     :      2.37s CPU      2.44s WALL (      13 calls)
     v_of_rho     :      0.02s CPU      0.02s WALL (      13 calls)
     newd         :      0.01s CPU      0.02s WALL (      13 calls)
     PAW_pot      :      0.31s CPU      0.39s WALL (      13 calls)
     mix_rho      :      0.00s CPU      0.00s WALL (      13 calls)

     Called by c_bands:
     init_us_2    :      0.08s CPU      0.09s WALL (    5292 calls)
     init_us_2:cp :      0.08s CPU      0.08s WALL (    5292 calls)
     cegterg      :     32.74s CPU     33.28s WALL (    2457 calls)

     Called by *egterg:
     cdiaghg      :     12.93s CPU     13.09s WALL (   11953 calls)
     h_psi        :     14.26s CPU     14.55s WALL (   12331 calls)
     s_psi        :      0.11s CPU      0.11s WALL (   12331 calls)
     g_psi        :      0.02s CPU      0.02s WALL (    9685 calls)

     Called by h_psi:
     h_psi:calbec :      0.95s CPU      0.97s WALL (   12331 calls)
     vloc_psi     :     13.12s CPU     13.39s WALL (   12331 calls)
     add_vuspsi   :      0.14s CPU      0.14s WALL (   12331 calls)

     General routines
     calbec       :      1.25s CPU      1.28s WALL (   15544 calls)
     fft          :      0.02s CPU      0.02s WALL (     155 calls)
     ffts         :      0.00s CPU      0.00s WALL (      13 calls)
     fftw         :     14.74s CPU     15.06s WALL (  270815 calls)
 
     Parallel routines
 
     PWSCF        :     37.70s CPU     40.43s WALL

 
   This run was terminated on:  13:48:31   3Feb2024            

=------------------------------------------------------------------------------=
   JOB DONE.
=------------------------------------------------------------------------------=
