MPI startup(): Warning: I_MPI_PMI_LIBRARY will be ignored since the hydra process manager was found
MPI startup(): Warning: I_MPI_PMI_LIBRARY will be ignored since the hydra process manager was found
MPI startup(): Warning: I_MPI_PMI_LIBRARY will be ignored since the hydra process manager was found
MPI startup(): Warning: I_MPI_PMI_LIBRARY will be ignored since the hydra process manager was found
MPI startup(): Warning: I_MPI_PMI_LIBRARY will be ignored since the hydra process manager was found
MPI startup(): Warning: I_MPI_PMI_LIBRARY will be ignored since the hydra process manager was found
MPI startup(): Warning: I_MPI_PMI_LIBRARY will be ignored since the hydra process manager was found
MPI startup(): Warning: I_MPI_PMI_LIBRARY will be ignored since the hydra process manager was found
MPI startup(): Warning: I_MPI_PMI_LIBRARY will be ignored since the hydra process manager was found
MPI startup(): Warning: I_MPI_PMI_LIBRARY will be ignored since the hydra process manager was found
MPI startup(): Warning: I_MPI_PMI_LIBRARY will be ignored since the hydra process manager was found
MPI startup(): Warning: I_MPI_PMI_LIBRARY will be ignored since the hydra process manager was found
MPI startup(): Warning: I_MPI_PMI_LIBRARY will be ignored since the hydra process manager was found
MPI startup(): Warning: I_MPI_PMI_LIBRARY will be ignored since the hydra process manager was found
MPI startup(): Warning: I_MPI_PMI_LIBRARY will be ignored since the hydra process manager was found
MPI startup(): Warning: I_MPI_PMI_LIBRARY will be ignored since the hydra process manager was found
MPI startup(): Warning: I_MPI_PMI_LIBRARY will be ignored since the hydra process manager was found
MPI startup(): Warning: I_MPI_PMI_LIBRARY will be ignored since the hydra process manager was found
MPI startup(): Warning: I_MPI_PMI_LIBRARY will be ignored since the hydra process manager was found
MPI startup(): Warning: I_MPI_PMI_LIBRARY will be ignored since the hydra process manager was found

     Program PWSCF v.7.0 starts on  3Feb2024 at 13:43:54 

     This program is part of the open-source Quantum ESPRESSO suite
     for quantum simulation of materials; please cite
         "P. Giannozzi et al., J. Phys.:Condens. Matter 21 395502 (2009);
         "P. Giannozzi et al., J. Phys.:Condens. Matter 29 465901 (2017);
         "P. Giannozzi et al., J. Chem. Phys. 152 154105 (2020);
          URL http://www.quantum-espresso.org", 
     in publications or presentations arising from this work. More details at
     http://www.quantum-espresso.org/quote

     Parallel version (MPI), running on    20 processors

     MPI processes distributed on     1 nodes
     R & G space division:  proc/nbgrp/npool/nimage =      20
     77078 MiB available memory on the printing compute node when the environment starts
 
     Reading input from gold-8.0.in
Warning: card &CELL ignored
Warning: card / ignored

     Current dimensions of program PWSCF are:
     Max number of different atomic species (ntypx) = 10
     Max number of k-points (npk) =  40000
     Max angular momentum in pseudopotentials (lmaxx) =  4
     file Au.pbe-n-kjpaw_psl.1.0.0.UPF: wavefunction(s)  6S 5D renormalized
     Found identity + ( -0.5000 -0.5000 -0.5000) symmetry
     This is a supercell, fractional translations are disabled

     Subspace diagonalization in iterative solution of the eigenvalue problem:
     one sub-group per band group will be used
     scalapack distributed-memory algorithm (size of sub-group:  4*  4 procs)

 
     Parallelization info
     --------------------
     sticks:   dense  smooth     PW     G-vecs:    dense   smooth      PW
     Min          36      36     11                  610      610     105
     Max          37      37     12                  612      612     107
     Sum         723     723    221                12215    12215    2123
 
     Using Slab Decomposition
 


     bravais-lattice index     =            3
     lattice parameter (alat)  =       8.0000  a.u.
     unit-cell volume          =     256.0000 (a.u.)^3
     number of atoms/cell      =            2
     number of atomic types    =            1
     number of electrons       =        22.00
     number of Kohn-Sham states=           15
     kinetic-energy cutoff     =      50.0000  Ry
     charge density cutoff     =     200.0000  Ry
     scf convergence threshold =      1.0E-09
     mixing beta               =       0.7000
     number of iterations used =            8  plain     mixing
     Exchange-correlation= SLA  PW   PBX  PBC
                           (   1   4   3   4   0   0   0)

     celldm(1)=   8.000000  celldm(2)=   0.000000  celldm(3)=   0.000000
     celldm(4)=   0.000000  celldm(5)=   0.000000  celldm(6)=   0.000000

     crystal axes: (cart. coord. in units of alat)
               a(1) = (   0.500000   0.500000   0.500000 )  
               a(2) = (  -0.500000   0.500000   0.500000 )  
               a(3) = (  -0.500000  -0.500000   0.500000 )  

     reciprocal axes: (cart. coord. in units 2 pi/alat)
               b(1) = (  1.000000  0.000000  1.000000 )  
               b(2) = ( -1.000000  1.000000  0.000000 )  
               b(3) = (  0.000000 -1.000000  1.000000 )  


     PseudoPot. # 1 for Au read from file:
     ./Au.pbe-n-kjpaw_psl.1.0.0.UPF
     MD5 check sum: 4db85c736373c707a97ce4c36c2a9d23
     Pseudo is Projector augmented-wave + core cor, Zval = 11.0
     Generated using &quot;atomic&quot; code by A. Dal Corso  v.6.3
     Shape of augmentation charge: PSQ
     Using radial grid of 1279 points,  6 beta functions with: 
                l(1) =   0
                l(2) =   0
                l(3) =   1
                l(4) =   1
                l(5) =   2
                l(6) =   2
     Q(r) pseudized with 0 coefficients 


     atomic species   valence    mass     pseudopotential
        Au            11.00   196.96657     Au( 1.00)

     12 Sym. Ops., with inversion, found



   Cartesian axes

     site n.     atom                  positions (alat units)
         1           Au  tau(   1) = (   0.0000000   0.0000000   0.0000000  )
         2           Au  tau(   2) = (  -0.2500000   0.2500000   0.7500000  )

     number of k points=   189  Gaussian smearing, width (Ry)=  0.0020

     Number of k-points >= 100: set verbosity='high' to print them.

     Dense  grid:    12215 G-vectors     FFT dimensions: (  32,  32,  32)

     Estimated max dynamical RAM per process >       6.66 MB

     Estimated total dynamical RAM >     133.23 MB

     Initial potential from superposition of free atoms

     starting charge      21.9998, renormalised to      22.0000
     Starting wfcs are   18 randomized atomic wfcs
     Checking if some PAW data can be deallocated... 

     total cpu time spent up to now is        1.6 secs

     Self-consistent Calculation

     iteration #  1     ecut=    50.00 Ry     beta= 0.70
     Davidson diagonalization with overlap
     ethr =  1.00E-02,  avg # of iterations =  4.3

     Threshold (ethr) on eigenvalues was too large:
     Diagonalizing with lowered threshold

     Davidson diagonalization with overlap
     ethr =  9.50E-04,  avg # of iterations =  3.2

     total cpu time spent up to now is        6.3 secs

     total energy              =   -1548.59580517 Ry
     estimated scf accuracy    <       0.20319218 Ry

     iteration #  2     ecut=    50.00 Ry     beta= 0.70
     Davidson diagonalization with overlap
     ethr =  9.24E-04,  avg # of iterations =  3.7

     total cpu time spent up to now is        8.9 secs

     total energy              =   -1548.66589197 Ry
     estimated scf accuracy    <       0.11121201 Ry

     iteration #  3     ecut=    50.00 Ry     beta= 0.70
     Davidson diagonalization with overlap
     ethr =  5.06E-04,  avg # of iterations =  1.7

     total cpu time spent up to now is       10.6 secs

     total energy              =   -1548.68743291 Ry
     estimated scf accuracy    <       0.00187748 Ry

     iteration #  4     ecut=    50.00 Ry     beta= 0.70
     Davidson diagonalization with overlap
     c_bands:  1 eigenvalues not converged
     c_bands:  1 eigenvalues not converged
     c_bands:  1 eigenvalues not converged
     c_bands:  1 eigenvalues not converged
     c_bands:  1 eigenvalues not converged
     c_bands:  1 eigenvalues not converged
     c_bands:  1 eigenvalues not converged
     c_bands:  1 eigenvalues not converged
     c_bands:  1 eigenvalues not converged
     c_bands:  1 eigenvalues not converged
     c_bands:  1 eigenvalues not converged
     c_bands:  1 eigenvalues not converged
     c_bands:  1 eigenvalues not converged
     c_bands:  1 eigenvalues not converged
     ethr =  8.53E-06,  avg # of iterations =  9.7

     total cpu time spent up to now is       16.1 secs

     total energy              =   -1548.69112342 Ry
     estimated scf accuracy    <       0.00146632 Ry

     iteration #  5     ecut=    50.00 Ry     beta= 0.70
     Davidson diagonalization with overlap
     c_bands:  1 eigenvalues not converged
     ethr =  6.67E-06,  avg # of iterations =  2.2

     total cpu time spent up to now is       18.0 secs

     total energy              =   -1548.69132209 Ry
     estimated scf accuracy    <       0.00007172 Ry

     iteration #  6     ecut=    50.00 Ry     beta= 0.70
     Davidson diagonalization with overlap
     ethr =  3.26E-07,  avg # of iterations =  5.3

     total cpu time spent up to now is       21.4 secs

     total energy              =   -1548.69139402 Ry
     estimated scf accuracy    <       0.00004271 Ry

     iteration #  7     ecut=    50.00 Ry     beta= 0.70
     Davidson diagonalization with overlap
     ethr =  1.94E-07,  avg # of iterations =  1.3

     total cpu time spent up to now is       23.0 secs

     total energy              =   -1548.69139194 Ry
     estimated scf accuracy    <       0.00001106 Ry

     iteration #  8     ecut=    50.00 Ry     beta= 0.70
     Davidson diagonalization with overlap
     ethr =  5.03E-08,  avg # of iterations =  2.5

     total cpu time spent up to now is       25.1 secs

     total energy              =   -1548.69139436 Ry
     estimated scf accuracy    <       0.00000029 Ry

     iteration #  9     ecut=    50.00 Ry     beta= 0.70
     Davidson diagonalization with overlap
     ethr =  1.33E-09,  avg # of iterations =  7.5

     total cpu time spent up to now is       30.0 secs

     total energy              =   -1548.69139506 Ry
     estimated scf accuracy    <       0.00000028 Ry

     iteration # 10     ecut=    50.00 Ry     beta= 0.70
     Davidson diagonalization with overlap
     c_bands:  1 eigenvalues not converged
     ethr =  1.26E-09,  avg # of iterations =  2.3

     total cpu time spent up to now is       32.0 secs

     total energy              =   -1548.69139514 Ry
     estimated scf accuracy    <          2.1E-09 Ry

     iteration # 11     ecut=    50.00 Ry     beta= 0.70
     Davidson diagonalization with overlap
     ethr =  9.32E-12,  avg # of iterations = 11.9

     total cpu time spent up to now is       39.8 secs

     total energy              =   -1548.69139511 Ry
     estimated scf accuracy    <       0.00000016 Ry

     iteration # 12     ecut=    50.00 Ry     beta= 0.70
     Davidson diagonalization with overlap
     ethr =  9.32E-12,  avg # of iterations =  8.2

     total cpu time spent up to now is       45.1 secs

     total energy              =   -1548.69139513 Ry
     estimated scf accuracy    <          2.6E-09 Ry

     iteration # 13     ecut=    50.00 Ry     beta= 0.70
     Davidson diagonalization with overlap
     ethr =  9.32E-12,  avg # of iterations =  3.8

     total cpu time spent up to now is       47.8 secs

     total energy              =   -1548.69139513 Ry
     estimated scf accuracy    <          1.0E-09 Ry

     iteration # 14     ecut=    50.00 Ry     beta= 0.70
     Davidson diagonalization with overlap
     ethr =  4.55E-12,  avg # of iterations =  2.1

     total cpu time spent up to now is       49.7 secs

     End of self-consistent calculation

     Number of k-points >= 100: set verbosity='high' to print the bands.

     the Fermi energy is    14.8400 ev

!    total energy              =   -1548.69139513 Ry

     total all-electron energy =    -76046.383577 Ry
     estimated scf accuracy    <          1.2E-11 Ry
     smearing contrib. (-TS)   =      -0.00007621 Ry
     internal energy E=F+TS    =   -1548.69131892 Ry

     The total energy is F=E-TS. E is the sum of the following terms:
     one-electron contribution =      -5.38063838 Ry
     hartree contribution      =      29.52431951 Ry
     xc contribution           =     -65.16603308 Ry
     ewald contribution        =    -122.21609344 Ry
     one-center paw contrib.   =   -1385.45287352 Ry

     convergence has been achieved in  14 iterations

     Forces acting on atoms (cartesian axes, Ry/au):

     atom    1 type  1   force =     0.00000000    0.00000000   -0.00000000
     atom    2 type  1   force =     0.00000000    0.00000000    0.00000000

     Total force =     0.000000     Total SCF correction =     0.000000

     Writing all to output data dir ./pwscf.save/
 
     init_run     :      0.67s CPU      0.76s WALL (       1 calls)
     electrons    :     47.17s CPU     48.12s WALL (       1 calls)
     forces       :      0.10s CPU      0.10s WALL (       1 calls)

     Called by init_run:
     wfcinit      :      0.62s CPU      0.64s WALL (       1 calls)
     potinit      :      0.02s CPU      0.03s WALL (       1 calls)
     hinit0       :      0.02s CPU      0.08s WALL (       1 calls)

     Called by electrons:
     c_bands      :     44.30s CPU     45.05s WALL (      15 calls)
     sum_band     :      2.49s CPU      2.57s WALL (      15 calls)
     v_of_rho     :      0.02s CPU      0.02s WALL (      15 calls)
     newd         :      0.01s CPU      0.02s WALL (      15 calls)
     PAW_pot      :      0.36s CPU      0.46s WALL (      15 calls)
     mix_rho      :      0.01s CPU      0.01s WALL (      15 calls)

     Called by c_bands:
     init_us_2    :      0.08s CPU      0.08s WALL (    6048 calls)
     init_us_2:cp :      0.08s CPU      0.08s WALL (    6048 calls)
     cegterg      :     43.93s CPU     44.68s WALL (    2835 calls)

     Called by *egterg:
     cdiaghg      :     17.34s CPU     17.59s WALL (   15842 calls)
     h_psi        :     18.34s CPU     18.72s WALL (   16220 calls)
     s_psi        :      0.13s CPU      0.13s WALL (   16220 calls)
     g_psi        :      0.03s CPU      0.03s WALL (   13196 calls)

     Called by h_psi:
     h_psi:calbec :      1.32s CPU      1.35s WALL (   16220 calls)
     vloc_psi     :     16.79s CPU     17.14s WALL (   16220 calls)
     add_vuspsi   :      0.16s CPU      0.16s WALL (   16220 calls)

     General routines
     calbec       :      1.67s CPU      1.71s WALL (   19811 calls)
     fft          :      0.02s CPU      0.02s WALL (     177 calls)
     ffts         :      0.00s CPU      0.00s WALL (      15 calls)
     fftw         :     18.43s CPU     18.83s WALL (  363663 calls)
 
     Parallel routines
 
     PWSCF        :     48.98s CPU     51.99s WALL

 
   This run was terminated on:  13:44:46   3Feb2024            

=------------------------------------------------------------------------------=
   JOB DONE.
=------------------------------------------------------------------------------=
