MPI startup(): Warning: I_MPI_PMI_LIBRARY will be ignored since the hydra process manager was found
MPI startup(): Warning: I_MPI_PMI_LIBRARY will be ignored since the hydra process manager was found
MPI startup(): Warning: I_MPI_PMI_LIBRARY will be ignored since the hydra process manager was found
MPI startup(): Warning: I_MPI_PMI_LIBRARY will be ignored since the hydra process manager was found
MPI startup(): Warning: I_MPI_PMI_LIBRARY will be ignored since the hydra process manager was found
MPI startup(): Warning: I_MPI_PMI_LIBRARY will be ignored since the hydra process manager was found
MPI startup(): Warning: I_MPI_PMI_LIBRARY will be ignored since the hydra process manager was found
MPI startup(): Warning: I_MPI_PMI_LIBRARY will be ignored since the hydra process manager was found
MPI startup(): Warning: I_MPI_PMI_LIBRARY will be ignored since the hydra process manager was found
MPI startup(): Warning: I_MPI_PMI_LIBRARY will be ignored since the hydra process manager was found
MPI startup(): Warning: I_MPI_PMI_LIBRARY will be ignored since the hydra process manager was found
MPI startup(): Warning: I_MPI_PMI_LIBRARY will be ignored since the hydra process manager was found
MPI startup(): Warning: I_MPI_PMI_LIBRARY will be ignored since the hydra process manager was found
MPI startup(): Warning: I_MPI_PMI_LIBRARY will be ignored since the hydra process manager was found
MPI startup(): Warning: I_MPI_PMI_LIBRARY will be ignored since the hydra process manager was found
MPI startup(): Warning: I_MPI_PMI_LIBRARY will be ignored since the hydra process manager was found
MPI startup(): Warning: I_MPI_PMI_LIBRARY will be ignored since the hydra process manager was found
MPI startup(): Warning: I_MPI_PMI_LIBRARY will be ignored since the hydra process manager was found
MPI startup(): Warning: I_MPI_PMI_LIBRARY will be ignored since the hydra process manager was found
MPI startup(): Warning: I_MPI_PMI_LIBRARY will be ignored since the hydra process manager was found

     Program PWSCF v.7.0 starts on 26Jan2024 at  4: 9:12 

     This program is part of the open-source Quantum ESPRESSO suite
     for quantum simulation of materials; please cite
         "P. Giannozzi et al., J. Phys.:Condens. Matter 21 395502 (2009);
         "P. Giannozzi et al., J. Phys.:Condens. Matter 29 465901 (2017);
         "P. Giannozzi et al., J. Chem. Phys. 152 154105 (2020);
          URL http://www.quantum-espresso.org", 
     in publications or presentations arising from this work. More details at
     http://www.quantum-espresso.org/quote

     Parallel version (MPI), running on    20 processors

     MPI processes distributed on     1 nodes
     K-points division:     npool     =       2
     R & G space division:  proc/nbgrp/npool/nimage =      10
     88578 MiB available memory on the printing compute node when the environment starts
 
     Reading input from gold-6.0.in
Warning: card &CELL ignored
Warning: card / ignored

     Current dimensions of program PWSCF are:
     Max number of different atomic species (ntypx) = 10
     Max number of k-points (npk) =  40000
     Max angular momentum in pseudopotentials (lmaxx) =  4
     file Au.pbe-n-kjpaw_psl.1.0.0.UPF: wavefunction(s)  6S 5D renormalized
     Found identity + ( -0.5000 -0.5000 -0.5000) symmetry
     This is a supercell, fractional translations are disabled

     Subspace diagonalization in iterative solution of the eigenvalue problem:
     one sub-group per band group will be used
     scalapack distributed-memory algorithm (size of sub-group:  3*  3 procs)

 
     Parallelization info
     --------------------
     sticks:   dense  smooth     PW     G-vecs:    dense   smooth      PW
     Min          41      41     12                  523      523      94
     Max          42      42     13                  525      525      97
     Sum         411     411    129                 5233     5233     959
 
     Using Slab Decomposition
 


     bravais-lattice index     =            3
     lattice parameter (alat)  =       6.0000  a.u.
     unit-cell volume          =     108.0000 (a.u.)^3
     number of atoms/cell      =            2
     number of atomic types    =            1
     number of electrons       =        22.00
     number of Kohn-Sham states=           15
     kinetic-energy cutoff     =      50.0000  Ry
     charge density cutoff     =     200.0000  Ry
     scf convergence threshold =      1.0E-09
     mixing beta               =       0.7000
     number of iterations used =            8  plain     mixing
     Exchange-correlation= SLA  PW   PBX  PBC
                           (   1   4   3   4   0   0   0)

     celldm(1)=   6.000000  celldm(2)=   0.000000  celldm(3)=   0.000000
     celldm(4)=   0.000000  celldm(5)=   0.000000  celldm(6)=   0.000000

     crystal axes: (cart. coord. in units of alat)
               a(1) = (   0.500000   0.500000   0.500000 )  
               a(2) = (  -0.500000   0.500000   0.500000 )  
               a(3) = (  -0.500000  -0.500000   0.500000 )  

     reciprocal axes: (cart. coord. in units 2 pi/alat)
               b(1) = (  1.000000  0.000000  1.000000 )  
               b(2) = ( -1.000000  1.000000  0.000000 )  
               b(3) = (  0.000000 -1.000000  1.000000 )  


     PseudoPot. # 1 for Au read from file:
     ./Au.pbe-n-kjpaw_psl.1.0.0.UPF
     MD5 check sum: 4db85c736373c707a97ce4c36c2a9d23
     Pseudo is Projector augmented-wave + core cor, Zval = 11.0
     Generated using &quot;atomic&quot; code by A. Dal Corso  v.6.3
     Shape of augmentation charge: PSQ
     Using radial grid of 1279 points,  6 beta functions with: 
                l(1) =   0
                l(2) =   0
                l(3) =   1
                l(4) =   1
                l(5) =   2
                l(6) =   2
     Q(r) pseudized with 0 coefficients 


     atomic species   valence    mass     pseudopotential
        Au            11.00   196.96657     Au( 1.00)

     12 Sym. Ops., with inversion, found



   Cartesian axes

     site n.     atom                  positions (alat units)
         1           Au  tau(   1) = (   0.0000000   0.0000000   0.0000000  )
         2           Au  tau(   2) = (  -0.2500000   0.2500000   0.7500000  )

     number of k points=   189  Gaussian smearing, width (Ry)=  0.0200

     Number of k-points >= 100: set verbosity='high' to print them.

     Dense  grid:     5233 G-vectors     FFT dimensions: (  24,  24,  24)

     Estimated max dynamical RAM per process >       3.69 MB

     Estimated total dynamical RAM >      72.43 MB

     Initial potential from superposition of free atoms

     starting charge      21.9998, renormalised to      22.0000
     Starting wfcs are   18 randomized atomic wfcs
     Checking if some PAW data can be deallocated... 

     total cpu time spent up to now is        1.1 secs

     Self-consistent Calculation

     iteration #  1     ecut=    50.00 Ry     beta= 0.70
     Davidson diagonalization with overlap
     ethr =  1.00E-02,  avg # of iterations =  9.9

     negative rho (up, down):  2.624E-01 0.000E+00

     total cpu time spent up to now is        2.5 secs

     total energy              =   -1539.30614927 Ry
     estimated scf accuracy    <       0.42807225 Ry

     iteration #  2     ecut=    50.00 Ry     beta= 0.70
     Davidson diagonalization with overlap
     ethr =  1.95E-03,  avg # of iterations =  3.5

     negative rho (up, down):  5.197E-01 0.000E+00

     total cpu time spent up to now is        3.2 secs

     total energy              =   -1539.44330694 Ry
     estimated scf accuracy    <       0.10052647 Ry

     iteration #  3     ecut=    50.00 Ry     beta= 0.70
     Davidson diagonalization with overlap
     ethr =  4.57E-04,  avg # of iterations =  5.0

     negative rho (up, down):  8.783E-01 0.000E+00

     total cpu time spent up to now is        4.0 secs

     total energy              =   -1539.39634604 Ry
     estimated scf accuracy    <       0.09406992 Ry

     iteration #  4     ecut=    50.00 Ry     beta= 0.70
     Davidson diagonalization with overlap
     ethr =  4.28E-04,  avg # of iterations =  7.5

     negative rho (up, down):  5.410E-01 0.000E+00

     total cpu time spent up to now is        5.2 secs

     total energy              =   -1538.34937613 Ry
     estimated scf accuracy    <       6.06760489 Ry

     iteration #  5     ecut=    50.00 Ry     beta= 0.70
     Davidson diagonalization with overlap
     ethr =  4.28E-04,  avg # of iterations =  7.3

     negative rho (up, down):  5.150E-01 0.000E+00

     total cpu time spent up to now is        6.3 secs

     total energy              =   -1539.48570600 Ry
     estimated scf accuracy    <       0.08568779 Ry

     iteration #  6     ecut=    50.00 Ry     beta= 0.70
     Davidson diagonalization with overlap
     ethr =  3.89E-04,  avg # of iterations =  1.1

     negative rho (up, down):  4.784E-01 0.000E+00

     total cpu time spent up to now is        6.6 secs

     total energy              =   -1539.52169613 Ry
     estimated scf accuracy    <       0.10751449 Ry

     iteration #  7     ecut=    50.00 Ry     beta= 0.70
     Davidson diagonalization with overlap
     ethr =  3.89E-04,  avg # of iterations =  1.7

     negative rho (up, down):  4.834E-01 0.000E+00

     total cpu time spent up to now is        7.1 secs

     total energy              =   -1539.51836732 Ry
     estimated scf accuracy    <       0.26694182 Ry

     iteration #  8     ecut=    50.00 Ry     beta= 0.70
     Davidson diagonalization with overlap
     ethr =  3.89E-04,  avg # of iterations =  1.0

     negative rho (up, down):  4.792E-01 0.000E+00

     total cpu time spent up to now is        7.5 secs

     total energy              =   -1539.52649206 Ry
     estimated scf accuracy    <       0.23398027 Ry

     iteration #  9     ecut=    50.00 Ry     beta= 0.70
     Davidson diagonalization with overlap
     ethr =  3.89E-04,  avg # of iterations =  1.0

     negative rho (up, down):  4.936E-01 0.000E+00

     total cpu time spent up to now is        7.8 secs

     total energy              =   -1539.50227509 Ry
     estimated scf accuracy    <       0.26103539 Ry

     iteration # 10     ecut=    50.00 Ry     beta= 0.70
     Davidson diagonalization with overlap
     ethr =  3.89E-04,  avg # of iterations =  1.2

     negative rho (up, down):  5.152E-01 0.000E+00

     total cpu time spent up to now is        8.2 secs

     total energy              =   -1539.48548282 Ry
     estimated scf accuracy    <       0.17593844 Ry

     iteration # 11     ecut=    50.00 Ry     beta= 0.70
     Davidson diagonalization with overlap
     ethr =  3.89E-04,  avg # of iterations =  1.3

     negative rho (up, down):  5.224E-01 0.000E+00

     total cpu time spent up to now is        8.6 secs

     total energy              =   -1539.48340397 Ry
     estimated scf accuracy    <       0.11401980 Ry

     iteration # 12     ecut=    50.00 Ry     beta= 0.70
     Davidson diagonalization with overlap
     ethr =  3.89E-04,  avg # of iterations =  1.0

     negative rho (up, down):  5.502E-01 0.000E+00

     total cpu time spent up to now is        9.0 secs

     total energy              =   -1539.47615663 Ry
     estimated scf accuracy    <       0.10301342 Ry

     iteration # 13     ecut=    50.00 Ry     beta= 0.70
     Davidson diagonalization with overlap
     ethr =  3.89E-04,  avg # of iterations =  1.0

     negative rho (up, down):  5.652E-01 0.000E+00

     total cpu time spent up to now is        9.4 secs

     total energy              =   -1539.47862908 Ry
     estimated scf accuracy    <       0.08565377 Ry

     iteration # 14     ecut=    50.00 Ry     beta= 0.70
     Davidson diagonalization with overlap
     ethr =  3.89E-04,  avg # of iterations =  1.0

     negative rho (up, down):  5.237E-01 0.000E+00

     total cpu time spent up to now is        9.7 secs

     total energy              =   -1539.48282566 Ry
     estimated scf accuracy    <       0.09846601 Ry

     iteration # 15     ecut=    50.00 Ry     beta= 0.70
     Davidson diagonalization with overlap
     ethr =  3.89E-04,  avg # of iterations =  1.1

     negative rho (up, down):  5.207E-01 0.000E+00

     total cpu time spent up to now is       10.1 secs

     total energy              =   -1539.48439039 Ry
     estimated scf accuracy    <       0.09883825 Ry

     iteration # 16     ecut=    50.00 Ry     beta= 0.70
     Davidson diagonalization with overlap
     ethr =  3.89E-04,  avg # of iterations =  1.0

     negative rho (up, down):  7.620E-01 0.000E+00

     total cpu time spent up to now is       10.5 secs

     total energy              =   -1539.40565529 Ry
     estimated scf accuracy    <       0.10105044 Ry

     iteration # 17     ecut=    50.00 Ry     beta= 0.70
     Davidson diagonalization with overlap
     ethr =  3.89E-04,  avg # of iterations =  2.0

     negative rho (up, down):  6.921E-01 0.000E+00

     total cpu time spent up to now is       11.0 secs

     total energy              =   -1539.38065945 Ry
     estimated scf accuracy    <       0.08912518 Ry

     iteration # 18     ecut=    50.00 Ry     beta= 0.70
     Davidson diagonalization with overlap
     ethr =  3.89E-04,  avg # of iterations =  3.1

     negative rho (up, down):  6.975E-01 0.000E+00

     total cpu time spent up to now is       11.6 secs

     total energy              =   -1539.41392577 Ry
     estimated scf accuracy    <       0.00040469 Ry

     iteration # 19     ecut=    50.00 Ry     beta= 0.70
     Davidson diagonalization with overlap
     c_bands:  1 eigenvalues not converged
     c_bands:  1 eigenvalues not converged
     c_bands:  1 eigenvalues not converged
     c_bands:  1 eigenvalues not converged
     c_bands:  1 eigenvalues not converged
     ethr =  1.84E-06,  avg # of iterations =  9.5

     negative rho (up, down):  6.688E-01 0.000E+00

     total cpu time spent up to now is       13.1 secs

     total energy              =   -1539.42542628 Ry
     estimated scf accuracy    <       0.00026041 Ry

     iteration # 20     ecut=    50.00 Ry     beta= 0.70
     Davidson diagonalization with overlap
     ethr =  1.18E-06,  avg # of iterations =  4.4

     negative rho (up, down):  5.825E-01 0.000E+00

     total cpu time spent up to now is       13.9 secs

     total energy              =   -1539.46556356 Ry
     estimated scf accuracy    <       0.00030060 Ry

     iteration # 21     ecut=    50.00 Ry     beta= 0.70
     Davidson diagonalization with overlap
     c_bands:  1 eigenvalues not converged
     c_bands:  1 eigenvalues not converged
     c_bands:  1 eigenvalues not converged
     c_bands:  1 eigenvalues not converged
     c_bands:  1 eigenvalues not converged
     c_bands:  1 eigenvalues not converged
     c_bands:  1 eigenvalues not converged
     ethr =  1.18E-06,  avg # of iterations = 11.8

     negative rho (up, down):  5.242E-01 0.000E+00

     total cpu time spent up to now is       15.7 secs

     total energy              =   -1539.47804410 Ry
     estimated scf accuracy    <       0.15463550 Ry

     iteration # 22     ecut=    50.00 Ry     beta= 0.70
     Davidson diagonalization with overlap
     ethr =  1.18E-06,  avg # of iterations =  8.6

     negative rho (up, down):  5.646E-01 0.000E+00

     total cpu time spent up to now is       17.0 secs

     total energy              =   -1539.47828375 Ry
     estimated scf accuracy    <       0.09517811 Ry

     iteration # 23     ecut=    50.00 Ry     beta= 0.70
     Davidson diagonalization with overlap
     c_bands:  1 eigenvalues not converged
     ethr =  1.18E-06,  avg # of iterations =  5.2

     negative rho (up, down):  5.523E-01 0.000E+00

     total cpu time spent up to now is       17.9 secs

     total energy              =   -1539.47605253 Ry
     estimated scf accuracy    <       0.09734080 Ry

     iteration # 24     ecut=    50.00 Ry     beta= 0.70
     Davidson diagonalization with overlap
     ethr =  1.18E-06,  avg # of iterations =  4.4

     negative rho (up, down):  5.767E-01 0.000E+00

     total cpu time spent up to now is       18.8 secs

     total energy              =   -1539.48230299 Ry
     estimated scf accuracy    <       0.08249299 Ry

     iteration # 25     ecut=    50.00 Ry     beta= 0.70
     Davidson diagonalization with overlap
     c_bands:  1 eigenvalues not converged
     ethr =  1.18E-06,  avg # of iterations =  7.5

     negative rho (up, down):  5.701E-01 0.000E+00

     total cpu time spent up to now is       20.0 secs

     total energy              =   -1539.47990994 Ry
     estimated scf accuracy    <       0.12794572 Ry

     iteration # 26     ecut=    50.00 Ry     beta= 0.70
     Davidson diagonalization with overlap
     ethr =  1.18E-06,  avg # of iterations =  4.7

     negative rho (up, down):  5.462E-01 0.000E+00

     total cpu time spent up to now is       20.8 secs

     total energy              =   -1539.47565979 Ry
     estimated scf accuracy    <       0.10735875 Ry

     iteration # 27     ecut=    50.00 Ry     beta= 0.70
     Davidson diagonalization with overlap
     ethr =  1.18E-06,  avg # of iterations =  6.8

     negative rho (up, down):  5.432E-01 0.000E+00

     total cpu time spent up to now is       21.9 secs

     total energy              =   -1539.47706520 Ry
     estimated scf accuracy    <       0.08091557 Ry

     iteration # 28     ecut=    50.00 Ry     beta= 0.70
     Davidson diagonalization with overlap
     ethr =  1.18E-06,  avg # of iterations =  1.3

     negative rho (up, down):  4.733E-01 0.000E+00

     total cpu time spent up to now is       22.3 secs

     total energy              =   -1539.52653948 Ry
     estimated scf accuracy    <       0.08067586 Ry

     iteration # 29     ecut=    50.00 Ry     beta= 0.70
     Davidson diagonalization with overlap
     c_bands:  1 eigenvalues not converged
     c_bands:  1 eigenvalues not converged
     c_bands:  1 eigenvalues not converged
     c_bands:  1 eigenvalues not converged
     ethr =  1.18E-06,  avg # of iterations = 10.0

     negative rho (up, down):  5.152E-01 0.000E+00

     total cpu time spent up to now is       23.9 secs

     total energy              =   -1539.47650577 Ry
     estimated scf accuracy    <       0.31532160 Ry

     iteration # 30     ecut=    50.00 Ry     beta= 0.70
     Davidson diagonalization with overlap
     c_bands:  1 eigenvalues not converged
     c_bands:  1 eigenvalues not converged
     c_bands:  1 eigenvalues not converged
     ethr =  1.18E-06,  avg # of iterations =  9.7

     negative rho (up, down):  5.201E-01 0.000E+00

     total cpu time spent up to now is       25.3 secs

     total energy              =   -1539.48411091 Ry
     estimated scf accuracy    <       0.10564071 Ry

     iteration # 31     ecut=    50.00 Ry     beta= 0.70
     Davidson diagonalization with overlap
     c_bands:  1 eigenvalues not converged
     ethr =  1.18E-06,  avg # of iterations =  2.0

     negative rho (up, down):  5.898E-01 0.000E+00

     total cpu time spent up to now is       25.8 secs

     total energy              =   -1539.49479116 Ry
     estimated scf accuracy    <       0.09813734 Ry

     iteration # 32     ecut=    50.00 Ry     beta= 0.70
     Davidson diagonalization with overlap
     c_bands:  1 eigenvalues not converged
     c_bands:  1 eigenvalues not converged
     c_bands:  1 eigenvalues not converged
     c_bands:  1 eigenvalues not converged
     ethr =  1.18E-06,  avg # of iterations = 10.5

     negative rho (up, down):  5.791E-01 0.000E+00

     total cpu time spent up to now is       27.4 secs

     total energy              =   -1539.48249929 Ry
     estimated scf accuracy    <       0.24284454 Ry

     iteration # 33     ecut=    50.00 Ry     beta= 0.70
     Davidson diagonalization with overlap
     ethr =  1.18E-06,  avg # of iterations =  8.2

     negative rho (up, down):  5.808E-01 0.000E+00

     total cpu time spent up to now is       28.7 secs

     total energy              =   -1539.48791855 Ry
     estimated scf accuracy    <       0.13853478 Ry

     iteration # 34     ecut=    50.00 Ry     beta= 0.70
     Davidson diagonalization with overlap
     ethr =  1.18E-06,  avg # of iterations =  1.8

     negative rho (up, down):  5.863E-01 0.000E+00

     total cpu time spent up to now is       29.2 secs

     total energy              =   -1539.49609917 Ry
     estimated scf accuracy    <       0.14528045 Ry

     iteration # 35     ecut=    50.00 Ry     beta= 0.70
     Davidson diagonalization with overlap
     ethr =  1.18E-06,  avg # of iterations =  6.0

     negative rho (up, down):  5.779E-01 0.000E+00

     total cpu time spent up to now is       30.2 secs

     total energy              =   -1539.48420575 Ry
     estimated scf accuracy    <       0.18819754 Ry

     iteration # 36     ecut=    50.00 Ry     beta= 0.70
     Davidson diagonalization with overlap
     ethr =  1.18E-06,  avg # of iterations =  6.3

     negative rho (up, down):  6.422E-01 0.000E+00

     total cpu time spent up to now is       31.3 secs

     total energy              =   -1539.42040150 Ry
     estimated scf accuracy    <       0.13412166 Ry

     iteration # 37     ecut=    50.00 Ry     beta= 0.70
     Davidson diagonalization with overlap
     c_bands:  1 eigenvalues not converged
     c_bands:  1 eigenvalues not converged
     c_bands:  1 eigenvalues not converged
     c_bands:  1 eigenvalues not converged
     ethr =  1.18E-06,  avg # of iterations = 11.0

     negative rho (up, down):  5.134E-01 0.000E+00

     total cpu time spent up to now is       33.0 secs

     total energy              =   -1539.48154303 Ry
     estimated scf accuracy    <       0.00546114 Ry

     iteration # 38     ecut=    50.00 Ry     beta= 0.70
     Davidson diagonalization with overlap
     c_bands:  1 eigenvalues not converged
     c_bands:  1 eigenvalues not converged
     ethr =  1.18E-06,  avg # of iterations =  9.1

     negative rho (up, down):  7.545E-01 0.000E+00

     total cpu time spent up to now is       34.4 secs

     total energy              =   -1539.40550913 Ry
     estimated scf accuracy    <       0.10744434 Ry

     iteration # 39     ecut=    50.00 Ry     beta= 0.70
     Davidson diagonalization with overlap
     c_bands:  1 eigenvalues not converged
     c_bands:  1 eigenvalues not converged
     c_bands:  1 eigenvalues not converged
     c_bands:  1 eigenvalues not converged
     c_bands:  1 eigenvalues not converged
     ethr =  1.18E-06,  avg # of iterations =  9.6

     negative rho (up, down):  5.534E-01 0.000E+00

     total cpu time spent up to now is       35.9 secs

     total energy              =   -1539.47144174 Ry
     estimated scf accuracy    <       0.06186393 Ry

     iteration # 40     ecut=    50.00 Ry     beta= 0.70
     Davidson diagonalization with overlap
     c_bands:  1 eigenvalues not converged
     c_bands:  1 eigenvalues not converged
     ethr =  1.18E-06,  avg # of iterations =  8.7

     negative rho (up, down):  5.904E-01 0.000E+00

     total cpu time spent up to now is       37.3 secs

     total energy              =   -1539.49595427 Ry
     estimated scf accuracy    <       0.08299066 Ry

     iteration # 41     ecut=    50.00 Ry     beta= 0.70
     Davidson diagonalization with overlap
     c_bands:  1 eigenvalues not converged
     c_bands:  1 eigenvalues not converged
     c_bands:  1 eigenvalues not converged
     ethr =  1.18E-06,  avg # of iterations = 10.3

     negative rho (up, down):  5.640E-01 0.000E+00

     total cpu time spent up to now is       38.8 secs

     total energy              =   -1539.46752667 Ry
     estimated scf accuracy    <       0.24884430 Ry

     iteration # 42     ecut=    50.00 Ry     beta= 0.70
     Davidson diagonalization with overlap
     c_bands:  1 eigenvalues not converged
     c_bands:  1 eigenvalues not converged
     ethr =  1.18E-06,  avg # of iterations =  9.6

     negative rho (up, down):  5.267E-01 0.000E+00

     total cpu time spent up to now is       40.3 secs

     total energy              =   -1539.48093411 Ry
     estimated scf accuracy    <       0.09677295 Ry

     iteration # 43     ecut=    50.00 Ry     beta= 0.70
     Davidson diagonalization with overlap
     c_bands:  1 eigenvalues not converged
     ethr =  1.18E-06,  avg # of iterations =  6.3

     negative rho (up, down):  5.879E-01 0.000E+00

     total cpu time spent up to now is       41.3 secs

     total energy              =   -1539.49006065 Ry
     estimated scf accuracy    <       0.09013832 Ry

     iteration # 44     ecut=    50.00 Ry     beta= 0.70
     Davidson diagonalization with overlap
     c_bands:  1 eigenvalues not converged
     c_bands:  1 eigenvalues not converged
     c_bands:  1 eigenvalues not converged
     c_bands:  1 eigenvalues not converged
     ethr =  1.18E-06,  avg # of iterations = 10.1

     negative rho (up, down):  5.665E-01 0.000E+00

     total cpu time spent up to now is       42.9 secs

     total energy              =   -1539.47331705 Ry
     estimated scf accuracy    <       0.20391842 Ry

     iteration # 45     ecut=    50.00 Ry     beta= 0.70
     Davidson diagonalization with overlap
     c_bands:  1 eigenvalues not converged
     c_bands:  1 eigenvalues not converged
     c_bands:  1 eigenvalues not converged
     ethr =  1.18E-06,  avg # of iterations =  8.8

     negative rho (up, down):  6.225E-01 0.000E+00

     total cpu time spent up to now is       44.2 secs

     total energy              =   -1539.44894107 Ry
     estimated scf accuracy    <       0.10085594 Ry

     iteration # 46     ecut=    50.00 Ry     beta= 0.70
     Davidson diagonalization with overlap
     c_bands:  1 eigenvalues not converged
     c_bands:  1 eigenvalues not converged
     ethr =  1.18E-06,  avg # of iterations =  7.7

     negative rho (up, down):  5.101E-01 0.000E+00

     total cpu time spent up to now is       45.4 secs

     total energy              =   -1539.48801093 Ry
     estimated scf accuracy    <       0.03269846 Ry

     iteration # 47     ecut=    50.00 Ry     beta= 0.70
     Davidson diagonalization with overlap
     ethr =  1.18E-06,  avg # of iterations =  6.5

     negative rho (up, down):  5.605E-01 0.000E+00

     total cpu time spent up to now is       46.5 secs

     total energy              =   -1539.47729408 Ry
     estimated scf accuracy    <       0.11245740 Ry

     iteration # 48     ecut=    50.00 Ry     beta= 0.70
     Davidson diagonalization with overlap
     ethr =  1.18E-06,  avg # of iterations =  3.0

     negative rho (up, down):  7.216E-01 0.000E+00

     total cpu time spent up to now is       47.1 secs

     total energy              =   -1539.40355575 Ry
     estimated scf accuracy    <       0.08971858 Ry

     iteration # 49     ecut=    50.00 Ry     beta= 0.70
     Davidson diagonalization with overlap
     c_bands:  1 eigenvalues not converged
     ethr =  1.18E-06,  avg # of iterations =  8.4

     negative rho (up, down):  3.636E-01 0.000E+00

     total cpu time spent up to now is       48.4 secs

     total energy              =   -1539.47488336 Ry
     estimated scf accuracy    <       0.00434531 Ry

     iteration # 50     ecut=    50.00 Ry     beta= 0.70
     Davidson diagonalization with overlap
     c_bands:  1 eigenvalues not converged
     ethr =  1.18E-06,  avg # of iterations =  5.9

     negative rho (up, down):  3.870E-01 0.000E+00

     total cpu time spent up to now is       49.5 secs

     total energy              =   -1539.49307572 Ry
     estimated scf accuracy    <       0.16219156 Ry

     iteration # 51     ecut=    50.00 Ry     beta= 0.70
     Davidson diagonalization with overlap
     c_bands:  1 eigenvalues not converged
     ethr =  1.18E-06,  avg # of iterations =  7.3

     negative rho (up, down):  6.229E-01 0.000E+00

     total cpu time spent up to now is       50.6 secs

     total energy              =   -1539.44881219 Ry
     estimated scf accuracy    <       0.21700223 Ry

     iteration # 52     ecut=    50.00 Ry     beta= 0.70
     Davidson diagonalization with overlap
     c_bands:  1 eigenvalues not converged
     ethr =  1.18E-06,  avg # of iterations =  7.7

     negative rho (up, down):  6.851E-01 0.000E+00

     total cpu time spent up to now is       51.8 secs

     total energy              =   -1539.41493615 Ry
     estimated scf accuracy    <       0.03184415 Ry

     iteration # 53     ecut=    50.00 Ry     beta= 0.70
     Davidson diagonalization with overlap
     c_bands:  1 eigenvalues not converged
     c_bands:  1 eigenvalues not converged
     ethr =  1.18E-06,  avg # of iterations =  8.8

     negative rho (up, down):  6.215E-01 0.000E+00

     total cpu time spent up to now is       53.2 secs

     total energy              =   -1539.44753267 Ry
     estimated scf accuracy    <       0.00008807 Ry

     iteration # 54     ecut=    50.00 Ry     beta= 0.70
     Davidson diagonalization with overlap
     c_bands:  1 eigenvalues not converged
     c_bands:  1 eigenvalues not converged
     c_bands:  1 eigenvalues not converged
     ethr =  4.00E-07,  avg # of iterations =  9.3

     negative rho (up, down):  6.357E-01 0.000E+00

     total cpu time spent up to now is       54.6 secs

     total energy              =   -1539.43900579 Ry
     estimated scf accuracy    <       0.03538799 Ry

     iteration # 55     ecut=    50.00 Ry     beta= 0.70
     Davidson diagonalization with overlap
     ethr =  4.00E-07,  avg # of iterations =  7.3

     negative rho (up, down):  6.661E-01 0.000E+00

     total cpu time spent up to now is       55.7 secs

     total energy              =   -1539.42584169 Ry
     estimated scf accuracy    <       0.01042676 Ry

     iteration # 56     ecut=    50.00 Ry     beta= 0.70
     Davidson diagonalization with overlap
     ethr =  4.00E-07,  avg # of iterations =  7.0

     negative rho (up, down):  6.446E-01 0.000E+00

     total cpu time spent up to now is       56.9 secs

     total energy              =   -1539.43570519 Ry
     estimated scf accuracy    <       0.00049248 Ry

     iteration # 57     ecut=    50.00 Ry     beta= 0.70
     Davidson diagonalization with overlap
     ethr =  4.00E-07,  avg # of iterations =  5.2

     negative rho (up, down):  6.355E-01 0.000E+00

     total cpu time spent up to now is       57.8 secs

     total energy              =   -1539.44061000 Ry
     estimated scf accuracy    <       0.00461987 Ry

     iteration # 58     ecut=    50.00 Ry     beta= 0.70
     Davidson diagonalization with overlap
     ethr =  4.00E-07,  avg # of iterations =  5.7

     negative rho (up, down):  6.984E-01 0.000E+00

     total cpu time spent up to now is       58.7 secs

     total energy              =   -1539.41374817 Ry
     estimated scf accuracy    <       0.01057094 Ry

     iteration # 59     ecut=    50.00 Ry     beta= 0.70
     Davidson diagonalization with overlap
     ethr =  4.00E-07,  avg # of iterations =  5.8

     negative rho (up, down):  5.358E-01 0.000E+00

     total cpu time spent up to now is       59.7 secs

     total energy              =   -1539.47356471 Ry
     estimated scf accuracy    <       0.00031964 Ry

     iteration # 60     ecut=    50.00 Ry     beta= 0.70
     Davidson diagonalization with overlap
     c_bands:  1 eigenvalues not converged
     c_bands:  1 eigenvalues not converged
     c_bands:  1 eigenvalues not converged
     ethr =  4.00E-07,  avg # of iterations =  9.7

     negative rho (up, down):  5.932E-01 0.000E+00

     total cpu time spent up to now is       61.3 secs

     total energy              =   -1539.49971315 Ry
     estimated scf accuracy    <       0.08159892 Ry

     iteration # 61     ecut=    50.00 Ry     beta= 0.70
     Davidson diagonalization with overlap
     c_bands:  1 eigenvalues not converged
     c_bands:  1 eigenvalues not converged
     c_bands:  1 eigenvalues not converged
     c_bands:  1 eigenvalues not converged
     ethr =  4.00E-07,  avg # of iterations = 12.7

     negative rho (up, down):  5.880E-01 0.000E+00

     total cpu time spent up to now is       63.2 secs

     total energy              =   -1539.49611709 Ry
     estimated scf accuracy    <       0.32101756 Ry

     iteration # 62     ecut=    50.00 Ry     beta= 0.70
     Davidson diagonalization with overlap
     c_bands:  1 eigenvalues not converged
     c_bands:  1 eigenvalues not converged
     ethr =  4.00E-07,  avg # of iterations =  8.1

     negative rho (up, down):  5.948E-01 0.000E+00

     total cpu time spent up to now is       64.5 secs

     total energy              =   -1539.54023474 Ry
     estimated scf accuracy    <       0.20113655 Ry

     iteration # 63     ecut=    50.00 Ry     beta= 0.70
     Davidson diagonalization with overlap
     c_bands:  1 eigenvalues not converged
     c_bands:  1 eigenvalues not converged
     ethr =  4.00E-07,  avg # of iterations = 10.6

     negative rho (up, down):  6.125E-01 0.000E+00

     total cpu time spent up to now is       66.1 secs

     total energy              =   -1539.42456268 Ry
     estimated scf accuracy    <       0.47920426 Ry

     iteration # 64     ecut=    50.00 Ry     beta= 0.70
     Davidson diagonalization with overlap
     c_bands:  1 eigenvalues not converged
     c_bands:  1 eigenvalues not converged
     c_bands:  1 eigenvalues not converged
     c_bands:  1 eigenvalues not converged
     c_bands:  1 eigenvalues not converged
     c_bands:  1 eigenvalues not converged
     c_bands:  1 eigenvalues not converged
     c_bands:  1 eigenvalues not converged
     ethr =  4.00E-07,  avg # of iterations = 12.8

     negative rho (up, down):  6.019E-01 0.000E+00

     total cpu time spent up to now is       68.0 secs

     total energy              =   -1539.48345945 Ry
     estimated scf accuracy    <       0.06984191 Ry

     iteration # 65     ecut=    50.00 Ry     beta= 0.70
     Davidson diagonalization with overlap
     c_bands:  1 eigenvalues not converged
     c_bands:  1 eigenvalues not converged
     ethr =  4.00E-07,  avg # of iterations =  8.8

     negative rho (up, down):  6.108E-01 0.000E+00

     total cpu time spent up to now is       69.4 secs

     total energy              =   -1539.46369390 Ry
     estimated scf accuracy    <       0.15376908 Ry

     iteration # 66     ecut=    50.00 Ry     beta= 0.70
     Davidson diagonalization with overlap
     c_bands:  1 eigenvalues not converged
     ethr =  4.00E-07,  avg # of iterations =  8.2

     negative rho (up, down):  6.907E-01 0.000E+00

     total cpu time spent up to now is       70.7 secs

     total energy              =   -1539.40474357 Ry
     estimated scf accuracy    <       0.07808379 Ry

     iteration # 67     ecut=    50.00 Ry     beta= 0.70
     Davidson diagonalization with overlap
     c_bands:  1 eigenvalues not converged
     c_bands:  1 eigenvalues not converged
     c_bands:  1 eigenvalues not converged
     c_bands:  1 eigenvalues not converged
     c_bands:  1 eigenvalues not converged
     c_bands:  1 eigenvalues not converged
     c_bands:  1 eigenvalues not converged
     c_bands:  1 eigenvalues not converged
     c_bands:  1 eigenvalues not converged
     ethr =  4.00E-07,  avg # of iterations = 11.2

     negative rho (up, down):  6.183E-01 0.000E+00

     total cpu time spent up to now is       72.3 secs

     total energy              =   -1539.44965415 Ry
     estimated scf accuracy    <       0.00011065 Ry

     iteration # 68     ecut=    50.00 Ry     beta= 0.70
     Davidson diagonalization with overlap
     c_bands:  1 eigenvalues not converged
     c_bands:  1 eigenvalues not converged
     c_bands:  1 eigenvalues not converged
     c_bands:  1 eigenvalues not converged
     c_bands:  1 eigenvalues not converged
     ethr =  4.00E-07,  avg # of iterations =  9.7

     negative rho (up, down):  5.353E-01 0.000E+00

     total cpu time spent up to now is       73.8 secs

     total energy              =   -1539.47815601 Ry
     estimated scf accuracy    <       0.04293595 Ry

     iteration # 69     ecut=    50.00 Ry     beta= 0.70
     Davidson diagonalization with overlap
     ethr =  4.00E-07,  avg # of iterations =  3.5

     negative rho (up, down):  5.603E-01 0.000E+00

     total cpu time spent up to now is       74.5 secs

     total energy              =   -1539.47687006 Ry
     estimated scf accuracy    <       0.08068655 Ry

     iteration # 70     ecut=    50.00 Ry     beta= 0.70
     Davidson diagonalization with overlap
     ethr =  4.00E-07,  avg # of iterations =  6.0

     negative rho (up, down):  5.568E-01 0.000E+00

     total cpu time spent up to now is       75.4 secs

     total energy              =   -1539.47667582 Ry
     estimated scf accuracy    <       0.08946807 Ry

     iteration # 71     ecut=    50.00 Ry     beta= 0.70
     Davidson diagonalization with overlap
     ethr =  4.00E-07,  avg # of iterations =  2.4

     negative rho (up, down):  6.075E-01 0.000E+00

     total cpu time spent up to now is       76.0 secs

     total energy              =   -1539.47170866 Ry
     estimated scf accuracy    <       0.08575916 Ry

     iteration # 72     ecut=    50.00 Ry     beta= 0.70
     Davidson diagonalization with overlap
     c_bands:  1 eigenvalues not converged
     c_bands:  1 eigenvalues not converged
     ethr =  4.00E-07,  avg # of iterations =  7.5

     negative rho (up, down):  6.019E-01 0.000E+00

     total cpu time spent up to now is       77.2 secs

     total energy              =   -1539.48635499 Ry
     estimated scf accuracy    <       0.09974941 Ry

     iteration # 73     ecut=    50.00 Ry     beta= 0.70
     Davidson diagonalization with overlap
     c_bands:  1 eigenvalues not converged
     ethr =  4.00E-07,  avg # of iterations =  7.8

     negative rho (up, down):  6.057E-01 0.000E+00

     total cpu time spent up to now is       78.5 secs

     total energy              =   -1539.47664693 Ry
     estimated scf accuracy    <       0.15711649 Ry

     iteration # 74     ecut=    50.00 Ry     beta= 0.70
     Davidson diagonalization with overlap
     ethr =  4.00E-07,  avg # of iterations =  6.4

     negative rho (up, down):  6.117E-01 0.000E+00

     total cpu time spent up to now is       79.5 secs

     total energy              =   -1539.46468469 Ry
     estimated scf accuracy    <       0.11624863 Ry

     iteration # 75     ecut=    50.00 Ry     beta= 0.70
     Davidson diagonalization with overlap
     ethr =  4.00E-07,  avg # of iterations =  7.0

     negative rho (up, down):  6.079E-01 0.000E+00

     total cpu time spent up to now is       80.7 secs

     total energy              =   -1539.47199700 Ry
     estimated scf accuracy    <       0.07525867 Ry

     iteration # 76     ecut=    50.00 Ry     beta= 0.70
     Davidson diagonalization with overlap
     ethr =  4.00E-07,  avg # of iterations =  5.2

     negative rho (up, down):  6.137E-01 0.000E+00

     total cpu time spent up to now is       81.6 secs

     total energy              =   -1539.46185529 Ry
     estimated scf accuracy    <       0.09752025 Ry

     iteration # 77     ecut=    50.00 Ry     beta= 0.70
     Davidson diagonalization with overlap
     ethr =  4.00E-07,  avg # of iterations =  6.0

     negative rho (up, down):  6.118E-01 0.000E+00

     total cpu time spent up to now is       82.6 secs

     total energy              =   -1539.46538312 Ry
     estimated scf accuracy    <       0.06533168 Ry

     iteration # 78     ecut=    50.00 Ry     beta= 0.70
     Davidson diagonalization with overlap
     ethr =  4.00E-07,  avg # of iterations =  3.1

     negative rho (up, down):  6.267E-01 0.000E+00

     total cpu time spent up to now is       83.3 secs

     total energy              =   -1539.44429665 Ry
     estimated scf accuracy    <       0.07418529 Ry

     iteration # 79     ecut=    50.00 Ry     beta= 0.70
     Davidson diagonalization with overlap
     c_bands:  1 eigenvalues not converged
     ethr =  4.00E-07,  avg # of iterations =  8.6

     negative rho (up, down):  6.337E-01 0.000E+00

     total cpu time spent up to now is       84.6 secs

     total energy              =   -1539.44182920 Ry
     estimated scf accuracy    <       0.02373540 Ry

     iteration # 80     ecut=    50.00 Ry     beta= 0.70
     Davidson diagonalization with overlap
     ethr =  4.00E-07,  avg # of iterations =  5.9

     negative rho (up, down):  6.389E-01 0.000E+00

     total cpu time spent up to now is       85.6 secs

     total energy              =   -1539.43879467 Ry
     estimated scf accuracy    <       0.01300492 Ry

     iteration # 81     ecut=    50.00 Ry     beta= 0.70
     Davidson diagonalization with overlap
     c_bands:  1 eigenvalues not converged
     ethr =  4.00E-07,  avg # of iterations =  4.9

     negative rho (up, down):  6.566E-01 0.000E+00

     total cpu time spent up to now is       86.5 secs

     total energy              =   -1539.43042688 Ry
     estimated scf accuracy    <       0.00779538 Ry

     iteration # 82     ecut=    50.00 Ry     beta= 0.70
     Davidson diagonalization with overlap
     ethr =  4.00E-07,  avg # of iterations =  6.3

     negative rho (up, down):  6.656E-01 0.000E+00

     total cpu time spent up to now is       87.5 secs

     total energy              =   -1539.42715898 Ry
     estimated scf accuracy    <       0.00155216 Ry

     iteration # 83     ecut=    50.00 Ry     beta= 0.70
     Davidson diagonalization with overlap
     ethr =  4.00E-07,  avg # of iterations =  3.0

     negative rho (up, down):  6.695E-01 0.000E+00

     total cpu time spent up to now is       88.1 secs

     total energy              =   -1539.42560850 Ry
     estimated scf accuracy    <       0.00057643 Ry

     iteration # 84     ecut=    50.00 Ry     beta= 0.70
     Davidson diagonalization with overlap
     ethr =  4.00E-07,  avg # of iterations =  1.0

     negative rho (up, down):  6.831E-01 0.000E+00

     total cpu time spent up to now is       88.5 secs

     total energy              =   -1539.42030263 Ry
     estimated scf accuracy    <       0.00039899 Ry

     iteration # 85     ecut=    50.00 Ry     beta= 0.70
     Davidson diagonalization with overlap
     ethr =  4.00E-07,  avg # of iterations =  1.9

     negative rho (up, down):  6.833E-01 0.000E+00

     total cpu time spent up to now is       89.0 secs

     total energy              =   -1539.42020668 Ry
     estimated scf accuracy    <       0.00013289 Ry

     iteration # 86     ecut=    50.00 Ry     beta= 0.70
     Davidson diagonalization with overlap
     ethr =  4.00E-07,  avg # of iterations =  1.0

     negative rho (up, down):  6.829E-01 0.000E+00

     total cpu time spent up to now is       89.3 secs

     total energy              =   -1539.42038451 Ry
     estimated scf accuracy    <       0.00012800 Ry

     iteration # 87     ecut=    50.00 Ry     beta= 0.70
     Davidson diagonalization with overlap
     ethr =  4.00E-07,  avg # of iterations =  1.0

     negative rho (up, down):  6.841E-01 0.000E+00

     total cpu time spent up to now is       89.7 secs

     total energy              =   -1539.41988853 Ry
     estimated scf accuracy    <       0.00013926 Ry

     iteration # 88     ecut=    50.00 Ry     beta= 0.70
     Davidson diagonalization with overlap
     ethr =  4.00E-07,  avg # of iterations =  1.0

     negative rho (up, down):  6.827E-01 0.000E+00

     total cpu time spent up to now is       90.1 secs

     total energy              =   -1539.42044152 Ry
     estimated scf accuracy    <       0.00011379 Ry

     iteration # 89     ecut=    50.00 Ry     beta= 0.70
     Davidson diagonalization with overlap
     ethr =  4.00E-07,  avg # of iterations =  1.0

     negative rho (up, down):  6.847E-01 0.000E+00

     total cpu time spent up to now is       90.5 secs

     total energy              =   -1539.41966573 Ry
     estimated scf accuracy    <       0.00014557 Ry

     iteration # 90     ecut=    50.00 Ry     beta= 0.70
     Davidson diagonalization with overlap
     ethr =  4.00E-07,  avg # of iterations =  1.0

     negative rho (up, down):  6.835E-01 0.000E+00

     total cpu time spent up to now is       90.8 secs

     total energy              =   -1539.42013769 Ry
     estimated scf accuracy    <       0.00010375 Ry

     iteration # 91     ecut=    50.00 Ry     beta= 0.70
     Davidson diagonalization with overlap
     ethr =  4.00E-07,  avg # of iterations =  1.0

     negative rho (up, down):  6.876E-01 0.000E+00

     total cpu time spent up to now is       91.2 secs

     total energy              =   -1539.41851771 Ry
     estimated scf accuracy    <       0.00012657 Ry

     iteration # 92     ecut=    50.00 Ry     beta= 0.70
     Davidson diagonalization with overlap
     ethr =  4.00E-07,  avg # of iterations =  1.0

     negative rho (up, down):  6.908E-01 0.000E+00

     total cpu time spent up to now is       91.6 secs

     total energy              =   -1539.41727004 Ry
     estimated scf accuracy    <       0.00006378 Ry

     iteration # 93     ecut=    50.00 Ry     beta= 0.70
     Davidson diagonalization with overlap
     ethr =  2.90E-07,  avg # of iterations =  1.9

     negative rho (up, down):  6.962E-01 0.000E+00

     total cpu time spent up to now is       92.1 secs

     total energy              =   -1539.41512258 Ry
     estimated scf accuracy    <       0.00010167 Ry

     iteration # 94     ecut=    50.00 Ry     beta= 0.70
     Davidson diagonalization with overlap
     ethr =  2.90E-07,  avg # of iterations =  2.9

     negative rho (up, down):  6.813E-01 0.000E+00

     total cpu time spent up to now is       92.7 secs

     total energy              =   -1539.42094045 Ry
     estimated scf accuracy    <       0.00018594 Ry

     iteration # 95     ecut=    50.00 Ry     beta= 0.70
     Davidson diagonalization with overlap
     ethr =  2.90E-07,  avg # of iterations =  3.6

     negative rho (up, down):  6.835E-01 0.000E+00

     total cpu time spent up to now is       93.4 secs

     total energy              =   -1539.42014705 Ry
     estimated scf accuracy    <       0.00018676 Ry

     iteration # 96     ecut=    50.00 Ry     beta= 0.70
     Davidson diagonalization with overlap
     ethr =  2.90E-07,  avg # of iterations =  1.0

     negative rho (up, down):  6.816E-01 0.000E+00

     total cpu time spent up to now is       93.8 secs

     total energy              =   -1539.42090094 Ry
     estimated scf accuracy    <       0.00013445 Ry

     iteration # 97     ecut=    50.00 Ry     beta= 0.70
     Davidson diagonalization with overlap
     ethr =  2.90E-07,  avg # of iterations =  1.0

     negative rho (up, down):  6.819E-01 0.000E+00

     total cpu time spent up to now is       94.1 secs

     total energy              =   -1539.42079373 Ry
     estimated scf accuracy    <       0.00017686 Ry

     iteration # 98     ecut=    50.00 Ry     beta= 0.70
     Davidson diagonalization with overlap
     ethr =  2.90E-07,  avg # of iterations =  1.0

     negative rho (up, down):  6.902E-01 0.000E+00

     total cpu time spent up to now is       94.5 secs

     total energy              =   -1539.41751575 Ry
     estimated scf accuracy    <       0.00017052 Ry

     iteration # 99     ecut=    50.00 Ry     beta= 0.70
     Davidson diagonalization with overlap
     ethr =  2.90E-07,  avg # of iterations =  2.1

     negative rho (up, down):  6.910E-01 0.000E+00

     total cpu time spent up to now is       95.0 secs

     total energy              =   -1539.41720976 Ry
     estimated scf accuracy    <       0.00008966 Ry

     iteration #100     ecut=    50.00 Ry     beta= 0.70
     Davidson diagonalization with overlap
     ethr =  2.90E-07,  avg # of iterations =  1.3

     negative rho (up, down):  6.877E-01 0.000E+00

     total cpu time spent up to now is       95.5 secs

     total energy              =   -1539.41847044 Ry
     estimated scf accuracy    <       0.00009926 Ry

     End of self-consistent calculation

     convergence NOT achieved after 100 iterations: stopping

     Writing config to output data dir ./gold.save/
 
     init_run     :      0.20s CPU      0.24s WALL (       1 calls)
     electrons    :     90.75s CPU     94.42s WALL (       1 calls)

     Called by init_run:
     wfcinit      :      0.15s CPU      0.15s WALL (       1 calls)
     potinit      :      0.02s CPU      0.03s WALL (       1 calls)
     hinit0       :      0.03s CPU      0.05s WALL (       1 calls)

     Called by electrons:
     c_bands      :     84.39s CPU     87.07s WALL (     100 calls)
     sum_band     :      3.55s CPU      3.79s WALL (     100 calls)
     v_of_rho     :      0.06s CPU      0.07s WALL (     101 calls)
     newd         :      0.05s CPU      0.06s WALL (     101 calls)
     PAW_pot      :      2.64s CPU      3.33s WALL (     101 calls)
     mix_rho      :      0.03s CPU      0.03s WALL (     100 calls)

     Called by c_bands:
     init_us_2    :      0.26s CPU      0.27s WALL (   19095 calls)
     init_us_2:cp :      0.24s CPU      0.25s WALL (   19095 calls)
     cegterg      :     71.73s CPU     74.21s WALL (    9500 calls)

     Called by *egterg:
     cdiaghg      :     37.07s CPU     38.31s WALL (   60283 calls)
     h_psi        :     20.61s CPU     21.36s WALL (   60378 calls)
     s_psi        :      0.42s CPU      0.44s WALL (   60378 calls)
     g_psi        :      0.08s CPU      0.08s WALL (   50783 calls)

     Called by h_psi:
     h_psi:calbec :      1.66s CPU      1.72s WALL (   60378 calls)
     vloc_psi     :     18.20s CPU     18.84s WALL (   60378 calls)
     add_vuspsi   :      0.54s CPU      0.57s WALL (   60378 calls)

     General routines
     calbec       :      1.93s CPU      2.03s WALL (   69878 calls)
     fft          :      0.04s CPU      0.04s WALL (    1112 calls)
     ffts         :      0.00s CPU      0.01s WALL (     100 calls)
     fftw         :     19.57s CPU     20.37s WALL ( 1060300 calls)
     davcio       :      0.00s CPU      0.00s WALL (      18 calls)
 
     Parallel routines
 
     PWSCF        :   1m31.69s CPU   1m35.59s WALL

 
   This run was terminated on:   4:10:48  26Jan2024            

=------------------------------------------------------------------------------=
   JOB DONE.
=------------------------------------------------------------------------------=
