MPI startup(): Warning: I_MPI_PMI_LIBRARY will be ignored since the hydra process manager was found
MPI startup(): Warning: I_MPI_PMI_LIBRARY will be ignored since the hydra process manager was found
MPI startup(): Warning: I_MPI_PMI_LIBRARY will be ignored since the hydra process manager was found
MPI startup(): Warning: I_MPI_PMI_LIBRARY will be ignored since the hydra process manager was found
MPI startup(): Warning: I_MPI_PMI_LIBRARY will be ignored since the hydra process manager was found
MPI startup(): Warning: I_MPI_PMI_LIBRARY will be ignored since the hydra process manager was found
MPI startup(): Warning: I_MPI_PMI_LIBRARY will be ignored since the hydra process manager was found
MPI startup(): Warning: I_MPI_PMI_LIBRARY will be ignored since the hydra process manager was found
MPI startup(): Warning: I_MPI_PMI_LIBRARY will be ignored since the hydra process manager was found
MPI startup(): Warning: I_MPI_PMI_LIBRARY will be ignored since the hydra process manager was found
MPI startup(): Warning: I_MPI_PMI_LIBRARY will be ignored since the hydra process manager was found
MPI startup(): Warning: I_MPI_PMI_LIBRARY will be ignored since the hydra process manager was found
MPI startup(): Warning: I_MPI_PMI_LIBRARY will be ignored since the hydra process manager was found
MPI startup(): Warning: I_MPI_PMI_LIBRARY will be ignored since the hydra process manager was found
MPI startup(): Warning: I_MPI_PMI_LIBRARY will be ignored since the hydra process manager was found
MPI startup(): Warning: I_MPI_PMI_LIBRARY will be ignored since the hydra process manager was found
MPI startup(): Warning: I_MPI_PMI_LIBRARY will be ignored since the hydra process manager was found
MPI startup(): Warning: I_MPI_PMI_LIBRARY will be ignored since the hydra process manager was found
MPI startup(): Warning: I_MPI_PMI_LIBRARY will be ignored since the hydra process manager was found
MPI startup(): Warning: I_MPI_PMI_LIBRARY will be ignored since the hydra process manager was found

     Program PWSCF v.7.0 starts on  2Feb2024 at  6: 6:55 

     This program is part of the open-source Quantum ESPRESSO suite
     for quantum simulation of materials; please cite
         "P. Giannozzi et al., J. Phys.:Condens. Matter 21 395502 (2009);
         "P. Giannozzi et al., J. Phys.:Condens. Matter 29 465901 (2017);
         "P. Giannozzi et al., J. Chem. Phys. 152 154105 (2020);
          URL http://www.quantum-espresso.org", 
     in publications or presentations arising from this work. More details at
     http://www.quantum-espresso.org/quote

     Parallel version (MPI), running on    20 processors

     MPI processes distributed on     1 nodes
     R & G space division:  proc/nbgrp/npool/nimage =      20
     107542 MiB available memory on the printing compute node when the environment starts
 
     Reading input from gold-7.1.in
Warning: card &CELL ignored
Warning: card / ignored

     Current dimensions of program PWSCF are:
     Max number of different atomic species (ntypx) = 10
     Max number of k-points (npk) =  40000
     Max angular momentum in pseudopotentials (lmaxx) =  4
     file Au.pbe-n-kjpaw_psl.1.0.0.UPF: wavefunction(s)  6S 5D renormalized
     Found identity + ( -0.5000 -0.5000 -0.5000) symmetry
     This is a supercell, fractional translations are disabled

     Subspace diagonalization in iterative solution of the eigenvalue problem:
     one sub-group per band group will be used
     scalapack distributed-memory algorithm (size of sub-group:  4*  4 procs)

 
     Parallelization info
     --------------------
     sticks:   dense  smooth     PW     G-vecs:    dense   smooth      PW
     Min          28      28      8                  428      428      73
     Max          29      29      9                  430      430      77
     Sum         561     561    173                 8583     8583    1505
 
     Using Slab Decomposition
 


     bravais-lattice index     =            3
     lattice parameter (alat)  =       7.1000  a.u.
     unit-cell volume          =     178.9555 (a.u.)^3
     number of atoms/cell      =            2
     number of atomic types    =            1
     number of electrons       =        22.00
     number of Kohn-Sham states=           15
     kinetic-energy cutoff     =      50.0000  Ry
     charge density cutoff     =     200.0000  Ry
     scf convergence threshold =      1.0E-09
     mixing beta               =       0.7000
     number of iterations used =            8  plain     mixing
     Exchange-correlation= SLA  PW   PBX  PBC
                           (   1   4   3   4   0   0   0)

     celldm(1)=   7.100000  celldm(2)=   0.000000  celldm(3)=   0.000000
     celldm(4)=   0.000000  celldm(5)=   0.000000  celldm(6)=   0.000000

     crystal axes: (cart. coord. in units of alat)
               a(1) = (   0.500000   0.500000   0.500000 )  
               a(2) = (  -0.500000   0.500000   0.500000 )  
               a(3) = (  -0.500000  -0.500000   0.500000 )  

     reciprocal axes: (cart. coord. in units 2 pi/alat)
               b(1) = (  1.000000  0.000000  1.000000 )  
               b(2) = ( -1.000000  1.000000  0.000000 )  
               b(3) = (  0.000000 -1.000000  1.000000 )  


     PseudoPot. # 1 for Au read from file:
     ./Au.pbe-n-kjpaw_psl.1.0.0.UPF
     MD5 check sum: 4db85c736373c707a97ce4c36c2a9d23
     Pseudo is Projector augmented-wave + core cor, Zval = 11.0
     Generated using &quot;atomic&quot; code by A. Dal Corso  v.6.3
     Shape of augmentation charge: PSQ
     Using radial grid of 1279 points,  6 beta functions with: 
                l(1) =   0
                l(2) =   0
                l(3) =   1
                l(4) =   1
                l(5) =   2
                l(6) =   2
     Q(r) pseudized with 0 coefficients 


     atomic species   valence    mass     pseudopotential
        Au            11.00   196.96657     Au( 1.00)

     12 Sym. Ops., with inversion, found



   Cartesian axes

     site n.     atom                  positions (alat units)
         1           Au  tau(   1) = (   0.0000000   0.0000000   0.0000000  )
         2           Au  tau(   2) = (  -0.2500000   0.2500000   0.7500000  )

     number of k points=   189  Gaussian smearing, width (Ry)=  0.0020

     Number of k-points >= 100: set verbosity='high' to print them.

     Dense  grid:     8583 G-vectors     FFT dimensions: (  27,  27,  27)

     Estimated max dynamical RAM per process >       5.01 MB

     Estimated total dynamical RAM >     100.13 MB

     Initial potential from superposition of free atoms

     starting charge      21.9998, renormalised to      22.0000
     Starting wfcs are   18 randomized atomic wfcs
     Checking if some PAW data can be deallocated... 

     total cpu time spent up to now is        3.2 secs

     Self-consistent Calculation

     iteration #  1     ecut=    50.00 Ry     beta= 0.70
     Davidson diagonalization with overlap
     ethr =  1.00E-02,  avg # of iterations =  6.2

     Threshold (ethr) on eigenvalues was too large:
     Diagonalizing with lowered threshold

     Davidson diagonalization with overlap
     ethr =  9.74E-04,  avg # of iterations =  3.4

     total cpu time spent up to now is        7.4 secs

     total energy              =   -1546.36221134 Ry
     estimated scf accuracy    <       0.19625121 Ry

     iteration #  2     ecut=    50.00 Ry     beta= 0.70
     Davidson diagonalization with overlap
     ethr =  8.92E-04,  avg # of iterations =  3.3

     total cpu time spent up to now is        9.2 secs

     total energy              =   -1546.41574671 Ry
     estimated scf accuracy    <       0.03523185 Ry

     iteration #  3     ecut=    50.00 Ry     beta= 0.70
     Davidson diagonalization with overlap
     ethr =  1.60E-04,  avg # of iterations =  3.9

     negative rho (up, down):  1.017E-03 0.000E+00

     total cpu time spent up to now is       11.2 secs

     total energy              =   -1546.42741334 Ry
     estimated scf accuracy    <       0.00177854 Ry

     iteration #  4     ecut=    50.00 Ry     beta= 0.70
     Davidson diagonalization with overlap
     c_bands:  1 eigenvalues not converged
     c_bands:  1 eigenvalues not converged
     c_bands:  1 eigenvalues not converged
     c_bands:  1 eigenvalues not converged
     c_bands:  1 eigenvalues not converged
     c_bands:  1 eigenvalues not converged
     c_bands:  1 eigenvalues not converged
     c_bands:  1 eigenvalues not converged
     c_bands:  1 eigenvalues not converged
     ethr =  8.08E-06,  avg # of iterations =  8.0

     negative rho (up, down):  1.120E-03 0.000E+00

     total cpu time spent up to now is       14.8 secs

     total energy              =   -1546.42918308 Ry
     estimated scf accuracy    <       0.00010976 Ry

     iteration #  5     ecut=    50.00 Ry     beta= 0.70
     Davidson diagonalization with overlap
     ethr =  4.99E-07,  avg # of iterations =  5.6

     negative rho (up, down):  1.399E-03 0.000E+00

     total cpu time spent up to now is       17.4 secs

     total energy              =   -1546.42929542 Ry
     estimated scf accuracy    <       0.00003236 Ry

     iteration #  6     ecut=    50.00 Ry     beta= 0.70
     Davidson diagonalization with overlap
     ethr =  1.47E-07,  avg # of iterations =  2.9

     negative rho (up, down):  1.397E-03 0.000E+00

     total cpu time spent up to now is       19.1 secs

     total energy              =   -1546.42930340 Ry
     estimated scf accuracy    <       0.00000008 Ry

     iteration #  7     ecut=    50.00 Ry     beta= 0.70
     Davidson diagonalization with overlap
     ethr =  3.65E-10,  avg # of iterations = 11.7

     negative rho (up, down):  1.402E-03 0.000E+00

     total cpu time spent up to now is       24.8 secs

     total energy              =   -1546.42930488 Ry
     estimated scf accuracy    <       0.00000007 Ry

     iteration #  8     ecut=    50.00 Ry     beta= 0.70
     Davidson diagonalization with overlap
     ethr =  3.11E-10,  avg # of iterations =  1.8

     negative rho (up, down):  1.407E-03 0.000E+00

     total cpu time spent up to now is       26.1 secs

     total energy              =   -1546.42930488 Ry
     estimated scf accuracy    <          6.7E-09 Ry

     iteration #  9     ecut=    50.00 Ry     beta= 0.70
     Davidson diagonalization with overlap
     ethr =  3.04E-11,  avg # of iterations =  5.6

     negative rho (up, down):  1.407E-03 0.000E+00

     total cpu time spent up to now is       28.9 secs

     total energy              =   -1546.42930489 Ry
     estimated scf accuracy    <          3.5E-09 Ry

     iteration # 10     ecut=    50.00 Ry     beta= 0.70
     Davidson diagonalization with overlap
     ethr =  1.61E-11,  avg # of iterations =  2.0

     negative rho (up, down):  1.407E-03 0.000E+00

     total cpu time spent up to now is       30.3 secs

     End of self-consistent calculation

     Number of k-points >= 100: set verbosity='high' to print the bands.

     the Fermi energy is    25.4466 ev

!    total energy              =   -1546.42930489 Ry

     total all-electron energy =    -76044.121487 Ry
     estimated scf accuracy    <          3.1E-10 Ry
     smearing contrib. (-TS)   =      -0.00001369 Ry
     internal energy E=F+TS    =   -1546.42929120 Ry

     The total energy is F=E-TS. E is the sum of the following terms:
     one-electron contribution =      20.97505571 Ry
     hartree contribution      =      22.54282850 Ry
     xc contribution           =     -66.34337051 Ry
     ewald contribution        =    -137.70827429 Ry
     one-center paw contrib.   =   -1385.89553061 Ry

     convergence has been achieved in  10 iterations

     negative rho (up, down):  1.407E-03 0.000E+00

     Forces acting on atoms (cartesian axes, Ry/au):

     atom    1 type  1   force =     0.00000000    0.00000000    0.00000000
     atom    2 type  1   force =     0.00000000    0.00000000    0.00000000

     Total force =     0.000000     Total SCF correction =     0.000000

     Writing all to output data dir ./pwscf.save/
 
     init_run     :      0.57s CPU      1.42s WALL (       1 calls)
     electrons    :     26.31s CPU     27.20s WALL (       1 calls)
     forces       :      0.06s CPU      0.07s WALL (       1 calls)

     Called by init_run:
     wfcinit      :      0.50s CPU      0.96s WALL (       1 calls)
     potinit      :      0.04s CPU      0.17s WALL (       1 calls)
     hinit0       :      0.02s CPU      0.16s WALL (       1 calls)

     Called by electrons:
     c_bands      :     24.70s CPU     25.27s WALL (      11 calls)
     sum_band     :      1.24s CPU      1.30s WALL (      11 calls)
     v_of_rho     :      0.01s CPU      0.08s WALL (      11 calls)
     newd         :      0.01s CPU      0.02s WALL (      11 calls)
     PAW_pot      :      0.39s CPU      0.52s WALL (      11 calls)
     mix_rho      :      0.00s CPU      0.01s WALL (      11 calls)

     Called by c_bands:
     init_us_2    :      0.07s CPU      0.07s WALL (    4536 calls)
     init_us_2:cp :      0.06s CPU      0.06s WALL (    4536 calls)
     cegterg      :     24.42s CPU     24.98s WALL (    2079 calls)

     Called by *egterg:
     cdiaghg      :     11.32s CPU     11.92s WALL (   12174 calls)
     h_psi        :      8.48s CPU      8.73s WALL (   12552 calls)
     s_psi        :      0.12s CPU      0.13s WALL (   12552 calls)
     g_psi        :      0.02s CPU      0.02s WALL (   10284 calls)

     Called by h_psi:
     h_psi:calbec :      0.56s CPU      0.59s WALL (   12552 calls)
     vloc_psi     :      7.71s CPU      7.93s WALL (   12552 calls)
     add_vuspsi   :      0.15s CPU      0.16s WALL (   12552 calls)

     General routines
     calbec       :      0.70s CPU      0.73s WALL (   15387 calls)
     fft          :      0.01s CPU      0.09s WALL (     133 calls)
     ffts         :      0.00s CPU      0.00s WALL (      11 calls)
     fftw         :      8.37s CPU      8.63s WALL (  259481 calls)
 
     Parallel routines
 
     PWSCF        :     27.93s CPU     32.53s WALL

 
   This run was terminated on:   6: 7:27   2Feb2024            

=------------------------------------------------------------------------------=
   JOB DONE.
=------------------------------------------------------------------------------=
