MPI startup(): Warning: I_MPI_PMI_LIBRARY will be ignored since the hydra process manager was found
MPI startup(): Warning: I_MPI_PMI_LIBRARY will be ignored since the hydra process manager was found
MPI startup(): Warning: I_MPI_PMI_LIBRARY will be ignored since the hydra process manager was found
MPI startup(): Warning: I_MPI_PMI_LIBRARY will be ignored since the hydra process manager was found
MPI startup(): Warning: I_MPI_PMI_LIBRARY will be ignored since the hydra process manager was found
MPI startup(): Warning: I_MPI_PMI_LIBRARY will be ignored since the hydra process manager was found
MPI startup(): Warning: I_MPI_PMI_LIBRARY will be ignored since the hydra process manager was found
MPI startup(): Warning: I_MPI_PMI_LIBRARY will be ignored since the hydra process manager was found
MPI startup(): Warning: I_MPI_PMI_LIBRARY will be ignored since the hydra process manager was found
MPI startup(): Warning: I_MPI_PMI_LIBRARY will be ignored since the hydra process manager was found
MPI startup(): Warning: I_MPI_PMI_LIBRARY will be ignored since the hydra process manager was found
MPI startup(): Warning: I_MPI_PMI_LIBRARY will be ignored since the hydra process manager was found
MPI startup(): Warning: I_MPI_PMI_LIBRARY will be ignored since the hydra process manager was found
MPI startup(): Warning: I_MPI_PMI_LIBRARY will be ignored since the hydra process manager was found
MPI startup(): Warning: I_MPI_PMI_LIBRARY will be ignored since the hydra process manager was found
MPI startup(): Warning: I_MPI_PMI_LIBRARY will be ignored since the hydra process manager was found
MPI startup(): Warning: I_MPI_PMI_LIBRARY will be ignored since the hydra process manager was found
MPI startup(): Warning: I_MPI_PMI_LIBRARY will be ignored since the hydra process manager was found
MPI startup(): Warning: I_MPI_PMI_LIBRARY will be ignored since the hydra process manager was found
MPI startup(): Warning: I_MPI_PMI_LIBRARY will be ignored since the hydra process manager was found

     Program PWSCF v.7.0 starts on  3Feb2024 at 13:48:34 

     This program is part of the open-source Quantum ESPRESSO suite
     for quantum simulation of materials; please cite
         "P. Giannozzi et al., J. Phys.:Condens. Matter 21 395502 (2009);
         "P. Giannozzi et al., J. Phys.:Condens. Matter 29 465901 (2017);
         "P. Giannozzi et al., J. Chem. Phys. 152 154105 (2020);
          URL http://www.quantum-espresso.org", 
     in publications or presentations arising from this work. More details at
     http://www.quantum-espresso.org/quote

     Parallel version (MPI), running on    20 processors

     MPI processes distributed on     1 nodes
     R & G space division:  proc/nbgrp/npool/nimage =      20
     77073 MiB available memory on the printing compute node when the environment starts
 
     Reading input from gold-8.6.in
Warning: card &CELL ignored
Warning: card / ignored

     Current dimensions of program PWSCF are:
     Max number of different atomic species (ntypx) = 10
     Max number of k-points (npk) =  40000
     Max angular momentum in pseudopotentials (lmaxx) =  4
     file Au.pbe-n-kjpaw_psl.1.0.0.UPF: wavefunction(s)  6S 5D renormalized
     Found identity + ( -0.5000 -0.5000 -0.5000) symmetry
     This is a supercell, fractional translations are disabled

     Subspace diagonalization in iterative solution of the eigenvalue problem:
     one sub-group per band group will be used
     scalapack distributed-memory algorithm (size of sub-group:  4*  4 procs)

 
     Parallelization info
     --------------------
     sticks:   dense  smooth     PW     G-vecs:    dense   smooth      PW
     Min          42      42     13                  764      764     128
     Max          43      43     14                  766      766     131
     Sum         841     841    261                15299    15299    2587
 
     Using Slab Decomposition
 


     bravais-lattice index     =            3
     lattice parameter (alat)  =       8.6000  a.u.
     unit-cell volume          =     318.0280 (a.u.)^3
     number of atoms/cell      =            2
     number of atomic types    =            1
     number of electrons       =        22.00
     number of Kohn-Sham states=           15
     kinetic-energy cutoff     =      50.0000  Ry
     charge density cutoff     =     200.0000  Ry
     scf convergence threshold =      1.0E-09
     mixing beta               =       0.7000
     number of iterations used =            8  plain     mixing
     Exchange-correlation= SLA  PW   PBX  PBC
                           (   1   4   3   4   0   0   0)

     celldm(1)=   8.600000  celldm(2)=   0.000000  celldm(3)=   0.000000
     celldm(4)=   0.000000  celldm(5)=   0.000000  celldm(6)=   0.000000

     crystal axes: (cart. coord. in units of alat)
               a(1) = (   0.500000   0.500000   0.500000 )  
               a(2) = (  -0.500000   0.500000   0.500000 )  
               a(3) = (  -0.500000  -0.500000   0.500000 )  

     reciprocal axes: (cart. coord. in units 2 pi/alat)
               b(1) = (  1.000000  0.000000  1.000000 )  
               b(2) = ( -1.000000  1.000000  0.000000 )  
               b(3) = (  0.000000 -1.000000  1.000000 )  


     PseudoPot. # 1 for Au read from file:
     ./Au.pbe-n-kjpaw_psl.1.0.0.UPF
     MD5 check sum: 4db85c736373c707a97ce4c36c2a9d23
     Pseudo is Projector augmented-wave + core cor, Zval = 11.0
     Generated using &quot;atomic&quot; code by A. Dal Corso  v.6.3
     Shape of augmentation charge: PSQ
     Using radial grid of 1279 points,  6 beta functions with: 
                l(1) =   0
                l(2) =   0
                l(3) =   1
                l(4) =   1
                l(5) =   2
                l(6) =   2
     Q(r) pseudized with 0 coefficients 


     atomic species   valence    mass     pseudopotential
        Au            11.00   196.96657     Au( 1.00)

     12 Sym. Ops., with inversion, found



   Cartesian axes

     site n.     atom                  positions (alat units)
         1           Au  tau(   1) = (   0.0000000   0.0000000   0.0000000  )
         2           Au  tau(   2) = (  -0.2500000   0.2500000   0.7500000  )

     number of k points=   189  Gaussian smearing, width (Ry)=  0.0020

     Number of k-points >= 100: set verbosity='high' to print them.

     Dense  grid:    15299 G-vectors     FFT dimensions: (  36,  36,  36)

     Estimated max dynamical RAM per process >       8.00 MB

     Estimated total dynamical RAM >     160.06 MB

     Initial potential from superposition of free atoms

     starting charge      21.9998, renormalised to      22.0000
     Starting wfcs are   18 randomized atomic wfcs
     Checking if some PAW data can be deallocated... 

     total cpu time spent up to now is        1.8 secs

     Self-consistent Calculation

     iteration #  1     ecut=    50.00 Ry     beta= 0.70
     Davidson diagonalization with overlap
     ethr =  1.00E-02,  avg # of iterations =  4.3

     Threshold (ethr) on eigenvalues was too large:
     Diagonalizing with lowered threshold

     Davidson diagonalization with overlap
     ethr =  9.41E-04,  avg # of iterations =  3.1

     total cpu time spent up to now is        6.6 secs

     total energy              =   -1549.28004379 Ry
     estimated scf accuracy    <       0.20885943 Ry

     iteration #  2     ecut=    50.00 Ry     beta= 0.70
     Davidson diagonalization with overlap
     ethr =  9.49E-04,  avg # of iterations =  3.4

     total cpu time spent up to now is        9.3 secs

     total energy              =   -1549.35781418 Ry
     estimated scf accuracy    <       0.16969772 Ry

     iteration #  3     ecut=    50.00 Ry     beta= 0.70
     Davidson diagonalization with overlap
     ethr =  7.71E-04,  avg # of iterations =  1.5

     total cpu time spent up to now is       11.0 secs

     total energy              =   -1549.38149472 Ry
     estimated scf accuracy    <       0.00381012 Ry

     iteration #  4     ecut=    50.00 Ry     beta= 0.70
     Davidson diagonalization with overlap
     c_bands:  1 eigenvalues not converged
     c_bands:  1 eigenvalues not converged
     c_bands:  1 eigenvalues not converged
     ethr =  1.73E-05,  avg # of iterations =  7.8

     total cpu time spent up to now is       15.9 secs

     total energy              =   -1549.38596876 Ry
     estimated scf accuracy    <       0.00510933 Ry

     iteration #  5     ecut=    50.00 Ry     beta= 0.70
     Davidson diagonalization with overlap
     ethr =  1.73E-05,  avg # of iterations =  1.9

     total cpu time spent up to now is       17.7 secs

     total energy              =   -1549.38648863 Ry
     estimated scf accuracy    <       0.00035715 Ry

     iteration #  6     ecut=    50.00 Ry     beta= 0.70
     Davidson diagonalization with overlap
     c_bands:  1 eigenvalues not converged
     c_bands:  1 eigenvalues not converged
     ethr =  1.62E-06,  avg # of iterations =  5.1

     total cpu time spent up to now is       21.0 secs

     total energy              =   -1549.38664293 Ry
     estimated scf accuracy    <       0.00000720 Ry

     iteration #  7     ecut=    50.00 Ry     beta= 0.70
     Davidson diagonalization with overlap
     ethr =  3.27E-08,  avg # of iterations =  7.5

     total cpu time spent up to now is       26.2 secs

     total energy              =   -1549.38666463 Ry
     estimated scf accuracy    <       0.00000968 Ry

     iteration #  8     ecut=    50.00 Ry     beta= 0.70
     Davidson diagonalization with overlap
     ethr =  3.27E-08,  avg # of iterations =  1.1

     total cpu time spent up to now is       27.8 secs

     total energy              =   -1549.38666335 Ry
     estimated scf accuracy    <       0.00000330 Ry

     iteration #  9     ecut=    50.00 Ry     beta= 0.70
     Davidson diagonalization with overlap
     ethr =  1.50E-08,  avg # of iterations =  2.2

     total cpu time spent up to now is       30.0 secs

     total energy              =   -1549.38666426 Ry
     estimated scf accuracy    <       0.00000007 Ry

     iteration # 10     ecut=    50.00 Ry     beta= 0.70
     Davidson diagonalization with overlap
     ethr =  3.00E-10,  avg # of iterations =  7.2

     total cpu time spent up to now is       34.9 secs

     total energy              =   -1549.38666439 Ry
     estimated scf accuracy    <       0.00000006 Ry

     iteration # 11     ecut=    50.00 Ry     beta= 0.70
     Davidson diagonalization with overlap
     ethr =  2.61E-10,  avg # of iterations =  1.0

     total cpu time spent up to now is       36.5 secs

     total energy              =   -1549.38666439 Ry
     estimated scf accuracy    <          4.7E-09 Ry

     iteration # 12     ecut=    50.00 Ry     beta= 0.70
     Davidson diagonalization with overlap
     ethr =  2.12E-11,  avg # of iterations =  5.3

     total cpu time spent up to now is       40.2 secs

     total energy              =   -1549.38666439 Ry
     estimated scf accuracy    <       0.00000002 Ry

     iteration # 13     ecut=    50.00 Ry     beta= 0.70
     Davidson diagonalization with overlap
     ethr =  2.12E-11,  avg # of iterations =  2.1

     total cpu time spent up to now is       42.2 secs

     total energy              =   -1549.38666439 Ry
     estimated scf accuracy    <          1.6E-09 Ry

     iteration # 14     ecut=    50.00 Ry     beta= 0.70
     Davidson diagonalization with overlap
     c_bands:  1 eigenvalues not converged
     ethr =  7.16E-12,  avg # of iterations =  3.6

     total cpu time spent up to now is       44.9 secs

     End of self-consistent calculation

     Number of k-points >= 100: set verbosity='high' to print the bands.

     the Fermi energy is    10.0988 ev

!    total energy              =   -1549.38666439 Ry

     total all-electron energy =    -76047.078846 Ry
     estimated scf accuracy    <          1.8E-12 Ry
     smearing contrib. (-TS)   =      -0.00015824 Ry
     internal energy E=F+TS    =   -1549.38650616 Ry

     The total energy is F=E-TS. E is the sum of the following terms:
     one-electron contribution =     -19.68375819 Ry
     hartree contribution      =      33.93136079 Ry
     xc contribution           =     -64.67401450 Ry
     ewald contribution        =    -113.68938925 Ry
     one-center paw contrib.   =   -1385.27070501 Ry

     convergence has been achieved in  14 iterations

     Forces acting on atoms (cartesian axes, Ry/au):

     atom    1 type  1   force =     0.00000000    0.00000000    0.00000000
     atom    2 type  1   force =     0.00000000    0.00000000    0.00000000

     Total force =     0.000000     Total SCF correction =     0.000000

     Writing all to output data dir ./pwscf.save/
 
     init_run     :      0.96s CPU      1.00s WALL (       1 calls)
     electrons    :     42.23s CPU     43.08s WALL (       1 calls)
     forces       :      0.10s CPU      0.10s WALL (       1 calls)

     Called by init_run:
     wfcinit      :      0.67s CPU      0.68s WALL (       1 calls)
     potinit      :      0.03s CPU      0.03s WALL (       1 calls)
     hinit0       :      0.26s CPU      0.27s WALL (       1 calls)

     Called by electrons:
     c_bands      :     38.94s CPU     39.61s WALL (      15 calls)
     sum_band     :      2.89s CPU      2.96s WALL (      15 calls)
     v_of_rho     :      0.02s CPU      0.02s WALL (      15 calls)
     newd         :      0.01s CPU      0.02s WALL (      15 calls)
     PAW_pot      :      0.36s CPU      0.45s WALL (      15 calls)
     mix_rho      :      0.01s CPU      0.01s WALL (      15 calls)

     Called by c_bands:
     init_us_2    :      0.10s CPU      0.10s WALL (    6048 calls)
     init_us_2:cp :      0.10s CPU      0.10s WALL (    6048 calls)
     cegterg      :     38.49s CPU     39.14s WALL (    2835 calls)

     Called by *egterg:
     cdiaghg      :     14.57s CPU     14.78s WALL (   13455 calls)
     h_psi        :     17.43s CPU     17.78s WALL (   13833 calls)
     s_psi        :      0.13s CPU      0.13s WALL (   13833 calls)
     g_psi        :      0.03s CPU      0.03s WALL (   10809 calls)

     Called by h_psi:
     h_psi:calbec :      1.08s CPU      1.10s WALL (   13833 calls)
     vloc_psi     :     16.13s CPU     16.46s WALL (   13833 calls)
     add_vuspsi   :      0.17s CPU      0.17s WALL (   13833 calls)

     General routines
     calbec       :      1.42s CPU      1.45s WALL (   17424 calls)
     fft          :      0.02s CPU      0.02s WALL (     177 calls)
     ffts         :      0.00s CPU      0.00s WALL (      15 calls)
     fftw         :     18.14s CPU     18.51s WALL (  316079 calls)
 
     Parallel routines
 
     PWSCF        :     44.33s CPU     47.77s WALL

 
   This run was terminated on:  13:49:22   3Feb2024            

=------------------------------------------------------------------------------=
   JOB DONE.
=------------------------------------------------------------------------------=
