MPI startup(): Warning: I_MPI_PMI_LIBRARY will be ignored since the hydra process manager was found
MPI startup(): Warning: I_MPI_PMI_LIBRARY will be ignored since the hydra process manager was found
MPI startup(): Warning: I_MPI_PMI_LIBRARY will be ignored since the hydra process manager was found
MPI startup(): Warning: I_MPI_PMI_LIBRARY will be ignored since the hydra process manager was found
MPI startup(): Warning: I_MPI_PMI_LIBRARY will be ignored since the hydra process manager was found
MPI startup(): Warning: I_MPI_PMI_LIBRARY will be ignored since the hydra process manager was found
MPI startup(): Warning: I_MPI_PMI_LIBRARY will be ignored since the hydra process manager was found
MPI startup(): Warning: I_MPI_PMI_LIBRARY will be ignored since the hydra process manager was found
MPI startup(): Warning: I_MPI_PMI_LIBRARY will be ignored since the hydra process manager was found
MPI startup(): Warning: I_MPI_PMI_LIBRARY will be ignored since the hydra process manager was found
MPI startup(): Warning: I_MPI_PMI_LIBRARY will be ignored since the hydra process manager was found
MPI startup(): Warning: I_MPI_PMI_LIBRARY will be ignored since the hydra process manager was found
MPI startup(): Warning: I_MPI_PMI_LIBRARY will be ignored since the hydra process manager was found
MPI startup(): Warning: I_MPI_PMI_LIBRARY will be ignored since the hydra process manager was found
MPI startup(): Warning: I_MPI_PMI_LIBRARY will be ignored since the hydra process manager was found
MPI startup(): Warning: I_MPI_PMI_LIBRARY will be ignored since the hydra process manager was found
MPI startup(): Warning: I_MPI_PMI_LIBRARY will be ignored since the hydra process manager was found
MPI startup(): Warning: I_MPI_PMI_LIBRARY will be ignored since the hydra process manager was found
MPI startup(): Warning: I_MPI_PMI_LIBRARY will be ignored since the hydra process manager was found
MPI startup(): Warning: I_MPI_PMI_LIBRARY will be ignored since the hydra process manager was found

     Program PWSCF v.7.0 starts on 26Jan2024 at  8:36:47 

     This program is part of the open-source Quantum ESPRESSO suite
     for quantum simulation of materials; please cite
         "P. Giannozzi et al., J. Phys.:Condens. Matter 21 395502 (2009);
         "P. Giannozzi et al., J. Phys.:Condens. Matter 29 465901 (2017);
         "P. Giannozzi et al., J. Chem. Phys. 152 154105 (2020);
          URL http://www.quantum-espresso.org", 
     in publications or presentations arising from this work. More details at
     http://www.quantum-espresso.org/quote

     Parallel version (MPI), running on    20 processors

     MPI processes distributed on     1 nodes
     R & G space division:  proc/nbgrp/npool/nimage =      20
     111035 MiB available memory on the printing compute node when the environment starts
 
     Reading input from gold-6.2.in
Warning: card &CELL ignored
Warning: card / ignored

     Current dimensions of program PWSCF are:
     Max number of different atomic species (ntypx) = 10
     Max number of k-points (npk) =  40000
     Max angular momentum in pseudopotentials (lmaxx) =  4
     file Au.pbe-n-kjpaw_psl.1.0.0.UPF: wavefunction(s)  6S 5D renormalized
     Found identity + ( -0.5000 -0.5000 -0.5000) symmetry
     This is a supercell, fractional translations are disabled

     Subspace diagonalization in iterative solution of the eigenvalue problem:
     one sub-group per band group will be used
     scalapack distributed-memory algorithm (size of sub-group:  4*  4 procs)

 
     Parallelization info
     --------------------
     sticks:   dense  smooth     PW     G-vecs:    dense   smooth      PW
     Min          21      21      6                  285      285      50
     Max          23      23      7                  287      287      55
     Sum         435     435    137                 5721     5721    1055
 
     Using Slab Decomposition
 


     bravais-lattice index     =            3
     lattice parameter (alat)  =       6.2000  a.u.
     unit-cell volume          =     119.1640 (a.u.)^3
     number of atoms/cell      =            2
     number of atomic types    =            1
     number of electrons       =        22.00
     number of Kohn-Sham states=           15
     kinetic-energy cutoff     =      50.0000  Ry
     charge density cutoff     =     200.0000  Ry
     scf convergence threshold =      1.0E-09
     mixing beta               =       0.7000
     number of iterations used =            8  plain     mixing
     Exchange-correlation= SLA  PW   PBX  PBC
                           (   1   4   3   4   0   0   0)

     celldm(1)=   6.200000  celldm(2)=   0.000000  celldm(3)=   0.000000
     celldm(4)=   0.000000  celldm(5)=   0.000000  celldm(6)=   0.000000

     crystal axes: (cart. coord. in units of alat)
               a(1) = (   0.500000   0.500000   0.500000 )  
               a(2) = (  -0.500000   0.500000   0.500000 )  
               a(3) = (  -0.500000  -0.500000   0.500000 )  

     reciprocal axes: (cart. coord. in units 2 pi/alat)
               b(1) = (  1.000000  0.000000  1.000000 )  
               b(2) = ( -1.000000  1.000000  0.000000 )  
               b(3) = (  0.000000 -1.000000  1.000000 )  


     PseudoPot. # 1 for Au read from file:
     ./Au.pbe-n-kjpaw_psl.1.0.0.UPF
     MD5 check sum: 4db85c736373c707a97ce4c36c2a9d23
     Pseudo is Projector augmented-wave + core cor, Zval = 11.0
     Generated using &quot;atomic&quot; code by A. Dal Corso  v.6.3
     Shape of augmentation charge: PSQ
     Using radial grid of 1279 points,  6 beta functions with: 
                l(1) =   0
                l(2) =   0
                l(3) =   1
                l(4) =   1
                l(5) =   2
                l(6) =   2
     Q(r) pseudized with 0 coefficients 


     atomic species   valence    mass     pseudopotential
        Au            11.00   196.96657     Au( 1.00)

     12 Sym. Ops., with inversion, found



   Cartesian axes

     site n.     atom                  positions (alat units)
         1           Au  tau(   1) = (   0.0000000   0.0000000   0.0000000  )
         2           Au  tau(   2) = (  -0.2500000   0.2500000   0.7500000  )

     number of k points=   189  Gaussian smearing, width (Ry)=  0.0200

     Number of k-points >= 100: set verbosity='high' to print them.

     Dense  grid:     5721 G-vectors     FFT dimensions: (  25,  25,  25)

     Estimated max dynamical RAM per process >       3.72 MB

     Estimated total dynamical RAM >      74.42 MB

     Initial potential from superposition of free atoms

     starting charge      21.9998, renormalised to      22.0000
     Starting wfcs are   18 randomized atomic wfcs
     Checking if some PAW data can be deallocated... 

     total cpu time spent up to now is        1.5 secs

     Self-consistent Calculation

     iteration #  1     ecut=    50.00 Ry     beta= 0.70
     Davidson diagonalization with overlap
     ethr =  1.00E-02,  avg # of iterations =  9.1

     negative rho (up, down):  6.755E-02 0.000E+00

     total cpu time spent up to now is        4.7 secs

     total energy              =   -1541.07184069 Ry
     estimated scf accuracy    <       0.25503470 Ry

     iteration #  2     ecut=    50.00 Ry     beta= 0.70
     Davidson diagonalization with overlap
     ethr =  1.16E-03,  avg # of iterations =  5.4

     negative rho (up, down):  2.257E-01 0.000E+00

     total cpu time spent up to now is        6.8 secs

     total energy              =   -1541.19727563 Ry
     estimated scf accuracy    <       0.09122438 Ry

     iteration #  3     ecut=    50.00 Ry     beta= 0.70
     Davidson diagonalization with overlap
     ethr =  4.15E-04,  avg # of iterations =  2.6

     negative rho (up, down):  3.559E-01 0.000E+00

     total cpu time spent up to now is        8.2 secs

     total energy              =   -1541.21595633 Ry
     estimated scf accuracy    <       0.01273770 Ry

     iteration #  4     ecut=    50.00 Ry     beta= 0.70
     Davidson diagonalization with overlap
     c_bands:  2 eigenvalues not converged
     c_bands:  1 eigenvalues not converged
     ethr =  5.79E-05,  avg # of iterations =  9.6

     negative rho (up, down):  3.378E-01 0.000E+00

     total cpu time spent up to now is       11.5 secs

     total energy              =   -1541.25410987 Ry
     estimated scf accuracy    <       0.11747306 Ry

     iteration #  5     ecut=    50.00 Ry     beta= 0.70
     Davidson diagonalization with overlap
     ethr =  5.79E-05,  avg # of iterations =  1.1

     negative rho (up, down):  5.626E-01 0.000E+00

     total cpu time spent up to now is       12.4 secs

     total energy              =   -1541.28790577 Ry
     estimated scf accuracy    <       0.12123324 Ry

     iteration #  6     ecut=    50.00 Ry     beta= 0.70
     Davidson diagonalization with overlap
     ethr =  5.79E-05,  avg # of iterations =  5.7

     negative rho (up, down):  4.463E-01 0.000E+00

     total cpu time spent up to now is       14.6 secs

     total energy              =   -1541.44002770 Ry
     estimated scf accuracy    <       0.35704191 Ry

     iteration #  7     ecut=    50.00 Ry     beta= 0.70
     Davidson diagonalization with overlap
     ethr =  5.79E-05,  avg # of iterations =  5.6

     negative rho (up, down):  4.415E-01 0.000E+00

     total cpu time spent up to now is       16.8 secs

     total energy              =   -1541.45628667 Ry
     estimated scf accuracy    <       2.04190687 Ry

     iteration #  8     ecut=    50.00 Ry     beta= 0.70
     Davidson diagonalization with overlap
     ethr =  5.79E-05,  avg # of iterations =  1.6

     negative rho (up, down):  7.184E-01 0.000E+00

     total cpu time spent up to now is       17.9 secs

     total energy              =   -1540.92515912 Ry
     estimated scf accuracy    <       1.67580395 Ry

     iteration #  9     ecut=    50.00 Ry     beta= 0.70
     Davidson diagonalization with overlap
     c_bands:  1 eigenvalues not converged
     c_bands:  1 eigenvalues not converged
     ethr =  5.79E-05,  avg # of iterations =  8.0

     negative rho (up, down):  7.099E-01 0.000E+00

     total cpu time spent up to now is       20.7 secs

     total energy              =   -1541.22960763 Ry
     estimated scf accuracy    <       0.03086312 Ry

     iteration # 10     ecut=    50.00 Ry     beta= 0.70
     Davidson diagonalization with overlap
     ethr =  5.79E-05,  avg # of iterations =  1.0

     negative rho (up, down):  6.455E-01 0.000E+00

     total cpu time spent up to now is       21.6 secs

     total energy              =   -1541.23884756 Ry
     estimated scf accuracy    <       0.02788679 Ry

     iteration # 11     ecut=    50.00 Ry     beta= 0.70
     Davidson diagonalization with overlap
     ethr =  5.79E-05,  avg # of iterations =  4.4

     negative rho (up, down):  6.459E-01 0.000E+00

     total cpu time spent up to now is       23.4 secs

     total energy              =   -1541.24709189 Ry
     estimated scf accuracy    <       0.00316574 Ry

     iteration # 12     ecut=    50.00 Ry     beta= 0.70
     Davidson diagonalization with overlap
     ethr =  1.44E-05,  avg # of iterations =  2.5

     negative rho (up, down):  6.562E-01 0.000E+00

     total cpu time spent up to now is       24.7 secs

     total energy              =   -1541.24218559 Ry
     estimated scf accuracy    <       0.00449387 Ry

     iteration # 13     ecut=    50.00 Ry     beta= 0.70
     Davidson diagonalization with overlap
     ethr =  1.44E-05,  avg # of iterations =  2.2

     negative rho (up, down):  6.518E-01 0.000E+00

     total cpu time spent up to now is       25.9 secs

     total energy              =   -1541.24435062 Ry
     estimated scf accuracy    <       0.00016277 Ry

     iteration # 14     ecut=    50.00 Ry     beta= 0.70
     Davidson diagonalization with overlap
     ethr =  7.40E-07,  avg # of iterations =  4.1

     negative rho (up, down):  6.736E-01 0.000E+00

     total cpu time spent up to now is       27.5 secs

     total energy              =   -1541.23594882 Ry
     estimated scf accuracy    <       0.00117601 Ry

     iteration # 15     ecut=    50.00 Ry     beta= 0.70
     Davidson diagonalization with overlap
     c_bands:  1 eigenvalues not converged
     ethr =  7.40E-07,  avg # of iterations =  7.2

     negative rho (up, down):  6.728E-01 0.000E+00

     total cpu time spent up to now is       30.2 secs

     total energy              =   -1541.23798808 Ry
     estimated scf accuracy    <       0.00386179 Ry

     iteration # 16     ecut=    50.00 Ry     beta= 0.70
     Davidson diagonalization with overlap
     ethr =  7.40E-07,  avg # of iterations =  1.2

     negative rho (up, down):  6.455E-01 0.000E+00

     total cpu time spent up to now is       31.2 secs

     total energy              =   -1541.24447777 Ry
     estimated scf accuracy    <       0.00401525 Ry

     iteration # 17     ecut=    50.00 Ry     beta= 0.70
     Davidson diagonalization with overlap
     c_bands:  1 eigenvalues not converged
     ethr =  7.40E-07,  avg # of iterations =  8.0

     negative rho (up, down):  6.537E-01 0.000E+00

     total cpu time spent up to now is       34.1 secs

     total energy              =   -1541.24344343 Ry
     estimated scf accuracy    <       0.00481867 Ry

     iteration # 18     ecut=    50.00 Ry     beta= 0.70
     Davidson diagonalization with overlap
     ethr =  7.40E-07,  avg # of iterations =  4.7

     negative rho (up, down):  6.582E-01 0.000E+00

     total cpu time spent up to now is       35.9 secs

     total energy              =   -1541.24213089 Ry
     estimated scf accuracy    <       0.00052517 Ry

     iteration # 19     ecut=    50.00 Ry     beta= 0.70
     Davidson diagonalization with overlap
     ethr =  7.40E-07,  avg # of iterations =  3.7

     negative rho (up, down):  6.590E-01 0.000E+00

     total cpu time spent up to now is       37.5 secs

     total energy              =   -1541.24198416 Ry
     estimated scf accuracy    <       0.00000384 Ry

     iteration # 20     ecut=    50.00 Ry     beta= 0.70
     Davidson diagonalization with overlap
     ethr =  1.74E-08,  avg # of iterations =  5.5

     negative rho (up, down):  6.589E-01 0.000E+00

     total cpu time spent up to now is       39.7 secs

     total energy              =   -1541.24202038 Ry
     estimated scf accuracy    <       0.00003961 Ry

     iteration # 21     ecut=    50.00 Ry     beta= 0.70
     Davidson diagonalization with overlap
     ethr =  1.74E-08,  avg # of iterations =  1.1

     negative rho (up, down):  6.585E-01 0.000E+00

     total cpu time spent up to now is       40.7 secs

     total energy              =   -1541.24213130 Ry
     estimated scf accuracy    <       0.00003351 Ry

     iteration # 22     ecut=    50.00 Ry     beta= 0.70
     Davidson diagonalization with overlap
     ethr =  1.74E-08,  avg # of iterations =  1.6

     negative rho (up, down):  6.579E-01 0.000E+00

     total cpu time spent up to now is       41.7 secs

     total energy              =   -1541.24235360 Ry
     estimated scf accuracy    <       0.00001719 Ry

     iteration # 23     ecut=    50.00 Ry     beta= 0.70
     Davidson diagonalization with overlap
     ethr =  1.74E-08,  avg # of iterations =  2.3

     negative rho (up, down):  6.576E-01 0.000E+00

     total cpu time spent up to now is       43.0 secs

     total energy              =   -1541.24243335 Ry
     estimated scf accuracy    <       0.00000116 Ry

     iteration # 24     ecut=    50.00 Ry     beta= 0.70
     Davidson diagonalization with overlap
     ethr =  5.27E-09,  avg # of iterations =  2.4

     negative rho (up, down):  6.576E-01 0.000E+00

     total cpu time spent up to now is       44.3 secs

     total energy              =   -1541.24243283 Ry
     estimated scf accuracy    <          7.8E-09 Ry

     iteration # 25     ecut=    50.00 Ry     beta= 0.70
     Davidson diagonalization with overlap
     ethr =  3.56E-11,  avg # of iterations =  7.1

     negative rho (up, down):  6.576E-01 0.000E+00

     total cpu time spent up to now is       47.2 secs

     total energy              =   -1541.24243151 Ry
     estimated scf accuracy    <       0.00000001 Ry

     iteration # 26     ecut=    50.00 Ry     beta= 0.70
     Davidson diagonalization with overlap
     ethr =  3.56E-11,  avg # of iterations =  1.1

     negative rho (up, down):  6.577E-01 0.000E+00

     total cpu time spent up to now is       48.1 secs

     total energy              =   -1541.24242645 Ry
     estimated scf accuracy    <       0.00000001 Ry

     iteration # 27     ecut=    50.00 Ry     beta= 0.70
     Davidson diagonalization with overlap
     ethr =  3.56E-11,  avg # of iterations =  1.4

     negative rho (up, down):  6.577E-01 0.000E+00

     total cpu time spent up to now is       49.1 secs

     total energy              =   -1541.24241856 Ry
     estimated scf accuracy    <          2.9E-09 Ry

     iteration # 28     ecut=    50.00 Ry     beta= 0.70
     Davidson diagonalization with overlap
     ethr =  1.31E-11,  avg # of iterations =  2.7

     negative rho (up, down):  6.577E-01 0.000E+00

     total cpu time spent up to now is       50.4 secs

     total energy              =   -1541.24242225 Ry
     estimated scf accuracy    <          3.3E-09 Ry

     iteration # 29     ecut=    50.00 Ry     beta= 0.70
     Davidson diagonalization with overlap
     ethr =  1.31E-11,  avg # of iterations =  1.4

     negative rho (up, down):  6.577E-01 0.000E+00

     total cpu time spent up to now is       51.5 secs

     End of self-consistent calculation

     Number of k-points >= 100: set verbosity='high' to print the bands.

     the Fermi energy is    42.3037 ev

!    total energy              =   -1541.24242753 Ry

     total all-electron energy =    -76038.934610 Ry
     estimated scf accuracy    <          2.4E-10 Ry
     smearing contrib. (-TS)   =      -0.00095192 Ry
     internal energy E=F+TS    =   -1541.24147561 Ry

     The total energy is F=E-TS. E is the sum of the following terms:
     one-electron contribution =      55.87499067 Ry
     hartree contribution      =      16.06260276 Ry
     xc contribution           =     -69.33339785 Ry
     ewald contribution        =    -157.69818580 Ry
     one-center paw contrib.   =   -1386.14748540 Ry

     convergence has been achieved in  29 iterations

     negative rho (up, down):  6.577E-01 0.000E+00

     Forces acting on atoms (cartesian axes, Ry/au):

     atom    1 type  1   force =     0.00000000    0.00000000    0.00000000
     atom    2 type  1   force =     0.00000000   -0.00000000    0.00000000

     Total force =     0.000000     Total SCF correction =     0.000000

     Writing all to output data dir ./gold.save/
 
     init_run     :      0.64s CPU      0.69s WALL (       1 calls)
     electrons    :     48.36s CPU     50.00s WALL (       1 calls)
     forces       :      0.05s CPU      0.05s WALL (       1 calls)

     Called by init_run:
     wfcinit      :      0.37s CPU      0.39s WALL (       1 calls)
     potinit      :      0.04s CPU      0.05s WALL (       1 calls)
     hinit0       :      0.23s CPU      0.24s WALL (       1 calls)

     Called by electrons:
     c_bands      :     44.92s CPU     46.10s WALL (      29 calls)
     sum_band     :      2.50s CPU      2.62s WALL (      29 calls)
     v_of_rho     :      0.02s CPU      0.02s WALL (      30 calls)
     newd         :      0.02s CPU      0.02s WALL (      30 calls)
     PAW_pot      :      0.92s CPU      1.26s WALL (      30 calls)
     mix_rho      :      0.01s CPU      0.01s WALL (      29 calls)

     Called by c_bands:
     init_us_2    :      0.13s CPU      0.13s WALL (   11340 calls)
     init_us_2:cp :      0.11s CPU      0.12s WALL (   11340 calls)
     cegterg      :     44.37s CPU     45.53s WALL (    5481 calls)

     Called by *egterg:
     cdiaghg      :     23.82s CPU     24.37s WALL (   27062 calls)
     h_psi        :     12.30s CPU     12.70s WALL (   27251 calls)
     s_psi        :      0.17s CPU      0.18s WALL (   27251 calls)
     g_psi        :      0.03s CPU      0.03s WALL (   21581 calls)

     Called by h_psi:
     h_psi:calbec :      0.98s CPU      1.02s WALL (   27251 calls)
     vloc_psi     :     11.00s CPU     11.35s WALL (   27251 calls)
     add_vuspsi   :      0.21s CPU      0.22s WALL (   27251 calls)

     General routines
     calbec       :      1.21s CPU      1.27s WALL (   33488 calls)
     fft          :      0.01s CPU      0.02s WALL (     341 calls)
     ffts         :      0.00s CPU      0.00s WALL (      29 calls)
     fftw         :     12.33s CPU     12.77s WALL (  524727 calls)
 
     Parallel routines
 
     PWSCF        :     49.96s CPU     52.81s WALL

 
   This run was terminated on:   8:37:40  26Jan2024            

=------------------------------------------------------------------------------=
   JOB DONE.
=------------------------------------------------------------------------------=
