MPI startup(): Warning: I_MPI_PMI_LIBRARY will be ignored since the hydra process manager was found
MPI startup(): Warning: I_MPI_PMI_LIBRARY will be ignored since the hydra process manager was found
MPI startup(): Warning: I_MPI_PMI_LIBRARY will be ignored since the hydra process manager was found
MPI startup(): Warning: I_MPI_PMI_LIBRARY will be ignored since the hydra process manager was found
MPI startup(): Warning: I_MPI_PMI_LIBRARY will be ignored since the hydra process manager was found
MPI startup(): Warning: I_MPI_PMI_LIBRARY will be ignored since the hydra process manager was found
MPI startup(): Warning: I_MPI_PMI_LIBRARY will be ignored since the hydra process manager was found
MPI startup(): Warning: I_MPI_PMI_LIBRARY will be ignored since the hydra process manager was found
MPI startup(): Warning: I_MPI_PMI_LIBRARY will be ignored since the hydra process manager was found
MPI startup(): Warning: I_MPI_PMI_LIBRARY will be ignored since the hydra process manager was found
MPI startup(): Warning: I_MPI_PMI_LIBRARY will be ignored since the hydra process manager was found
MPI startup(): Warning: I_MPI_PMI_LIBRARY will be ignored since the hydra process manager was found
MPI startup(): Warning: I_MPI_PMI_LIBRARY will be ignored since the hydra process manager was found
MPI startup(): Warning: I_MPI_PMI_LIBRARY will be ignored since the hydra process manager was found
MPI startup(): Warning: I_MPI_PMI_LIBRARY will be ignored since the hydra process manager was found
MPI startup(): Warning: I_MPI_PMI_LIBRARY will be ignored since the hydra process manager was found
MPI startup(): Warning: I_MPI_PMI_LIBRARY will be ignored since the hydra process manager was found
MPI startup(): Warning: I_MPI_PMI_LIBRARY will be ignored since the hydra process manager was found
MPI startup(): Warning: I_MPI_PMI_LIBRARY will be ignored since the hydra process manager was found
MPI startup(): Warning: I_MPI_PMI_LIBRARY will be ignored since the hydra process manager was found

     Program PWSCF v.7.0 starts on  2Feb2024 at  6: 9:57 

     This program is part of the open-source Quantum ESPRESSO suite
     for quantum simulation of materials; please cite
         "P. Giannozzi et al., J. Phys.:Condens. Matter 21 395502 (2009);
         "P. Giannozzi et al., J. Phys.:Condens. Matter 29 465901 (2017);
         "P. Giannozzi et al., J. Chem. Phys. 152 154105 (2020);
          URL http://www.quantum-espresso.org", 
     in publications or presentations arising from this work. More details at
     http://www.quantum-espresso.org/quote

     Parallel version (MPI), running on    20 processors

     MPI processes distributed on     1 nodes
     R & G space division:  proc/nbgrp/npool/nimage =      20
     107465 MiB available memory on the printing compute node when the environment starts
 
     Reading input from gold-7.7.in
Warning: card &CELL ignored
Warning: card / ignored

     Current dimensions of program PWSCF are:
     Max number of different atomic species (ntypx) = 10
     Max number of k-points (npk) =  40000
     Max angular momentum in pseudopotentials (lmaxx) =  4
     file Au.pbe-n-kjpaw_psl.1.0.0.UPF: wavefunction(s)  6S 5D renormalized
     Found identity + ( -0.5000 -0.5000 -0.5000) symmetry
     This is a supercell, fractional translations are disabled

     Subspace diagonalization in iterative solution of the eigenvalue problem:
     one sub-group per band group will be used
     scalapack distributed-memory algorithm (size of sub-group:  4*  4 procs)

 
     Parallelization info
     --------------------
     sticks:   dense  smooth     PW     G-vecs:    dense   smooth      PW
     Min          33      33     10                  543      543      92
     Max          34      34     11                  545      545      95
     Sum         661     661    205                10889    10889    1865
 
     Using Slab Decomposition
 


     bravais-lattice index     =            3
     lattice parameter (alat)  =       7.7000  a.u.
     unit-cell volume          =     228.2665 (a.u.)^3
     number of atoms/cell      =            2
     number of atomic types    =            1
     number of electrons       =        22.00
     number of Kohn-Sham states=           15
     kinetic-energy cutoff     =      50.0000  Ry
     charge density cutoff     =     200.0000  Ry
     scf convergence threshold =      1.0E-09
     mixing beta               =       0.7000
     number of iterations used =            8  plain     mixing
     Exchange-correlation= SLA  PW   PBX  PBC
                           (   1   4   3   4   0   0   0)

     celldm(1)=   7.700000  celldm(2)=   0.000000  celldm(3)=   0.000000
     celldm(4)=   0.000000  celldm(5)=   0.000000  celldm(6)=   0.000000

     crystal axes: (cart. coord. in units of alat)
               a(1) = (   0.500000   0.500000   0.500000 )  
               a(2) = (  -0.500000   0.500000   0.500000 )  
               a(3) = (  -0.500000  -0.500000   0.500000 )  

     reciprocal axes: (cart. coord. in units 2 pi/alat)
               b(1) = (  1.000000  0.000000  1.000000 )  
               b(2) = ( -1.000000  1.000000  0.000000 )  
               b(3) = (  0.000000 -1.000000  1.000000 )  


     PseudoPot. # 1 for Au read from file:
     ./Au.pbe-n-kjpaw_psl.1.0.0.UPF
     MD5 check sum: 4db85c736373c707a97ce4c36c2a9d23
     Pseudo is Projector augmented-wave + core cor, Zval = 11.0
     Generated using &quot;atomic&quot; code by A. Dal Corso  v.6.3
     Shape of augmentation charge: PSQ
     Using radial grid of 1279 points,  6 beta functions with: 
                l(1) =   0
                l(2) =   0
                l(3) =   1
                l(4) =   1
                l(5) =   2
                l(6) =   2
     Q(r) pseudized with 0 coefficients 


     atomic species   valence    mass     pseudopotential
        Au            11.00   196.96657     Au( 1.00)

     12 Sym. Ops., with inversion, found



   Cartesian axes

     site n.     atom                  positions (alat units)
         1           Au  tau(   1) = (   0.0000000   0.0000000   0.0000000  )
         2           Au  tau(   2) = (  -0.2500000   0.2500000   0.7500000  )

     number of k points=   189  Gaussian smearing, width (Ry)=  0.0020

     Number of k-points >= 100: set verbosity='high' to print them.

     Dense  grid:    10889 G-vectors     FFT dimensions: (  32,  32,  32)

     Estimated max dynamical RAM per process >       6.09 MB

     Estimated total dynamical RAM >     121.79 MB

     Initial potential from superposition of free atoms

     starting charge      21.9998, renormalised to      22.0000
     Starting wfcs are   18 randomized atomic wfcs
     Checking if some PAW data can be deallocated... 

     total cpu time spent up to now is        1.7 secs

     Self-consistent Calculation

     iteration #  1     ecut=    50.00 Ry     beta= 0.70
     Davidson diagonalization with overlap
     ethr =  1.00E-02,  avg # of iterations =  4.5

     Threshold (ethr) on eigenvalues was too large:
     Diagonalizing with lowered threshold

     Davidson diagonalization with overlap
     ethr =  9.75E-04,  avg # of iterations =  3.3

     total cpu time spent up to now is        5.5 secs

     total energy              =   -1548.05764838 Ry
     estimated scf accuracy    <       0.20568084 Ry

     iteration #  2     ecut=    50.00 Ry     beta= 0.70
     Davidson diagonalization with overlap
     ethr =  9.35E-04,  avg # of iterations =  3.7

     total cpu time spent up to now is        7.6 secs

     total energy              =   -1548.12859375 Ry
     estimated scf accuracy    <       0.08890316 Ry

     iteration #  3     ecut=    50.00 Ry     beta= 0.70
     Davidson diagonalization with overlap
     c_bands:  1 eigenvalues not converged
     ethr =  4.04E-04,  avg # of iterations =  2.4

     total cpu time spent up to now is        9.1 secs

     total energy              =   -1548.14553098 Ry
     estimated scf accuracy    <       0.00221616 Ry

     iteration #  4     ecut=    50.00 Ry     beta= 0.70
     Davidson diagonalization with overlap
     c_bands:  1 eigenvalues not converged
     c_bands:  1 eigenvalues not converged
     c_bands:  1 eigenvalues not converged
     c_bands:  1 eigenvalues not converged
     c_bands:  1 eigenvalues not converged
     c_bands:  1 eigenvalues not converged
     c_bands:  1 eigenvalues not converged
     c_bands:  1 eigenvalues not converged
     c_bands:  1 eigenvalues not converged
     c_bands:  1 eigenvalues not converged
     c_bands:  1 eigenvalues not converged
     ethr =  1.01E-05,  avg # of iterations =  9.1

     total cpu time spent up to now is       13.2 secs

     total energy              =   -1548.14860940 Ry
     estimated scf accuracy    <       0.00159138 Ry

     iteration #  5     ecut=    50.00 Ry     beta= 0.70
     Davidson diagonalization with overlap
     c_bands:  1 eigenvalues not converged
     c_bands:  1 eigenvalues not converged
     ethr =  7.23E-06,  avg # of iterations =  2.6

     total cpu time spent up to now is       14.8 secs

     total energy              =   -1548.14901242 Ry
     estimated scf accuracy    <       0.00003333 Ry

     iteration #  6     ecut=    50.00 Ry     beta= 0.70
     Davidson diagonalization with overlap
     c_bands:  1 eigenvalues not converged
     c_bands:  1 eigenvalues not converged
     c_bands:  1 eigenvalues not converged
     c_bands:  1 eigenvalues not converged
     ethr =  1.51E-07,  avg # of iterations =  6.2

     total cpu time spent up to now is       17.9 secs

     total energy              =   -1548.14906303 Ry
     estimated scf accuracy    <       0.00000694 Ry

     iteration #  7     ecut=    50.00 Ry     beta= 0.70
     Davidson diagonalization with overlap
     ethr =  3.15E-08,  avg # of iterations =  2.9

     total cpu time spent up to now is       19.6 secs

     total energy              =   -1548.14906353 Ry
     estimated scf accuracy    <       0.00000159 Ry

     iteration #  8     ecut=    50.00 Ry     beta= 0.70
     Davidson diagonalization with overlap
     ethr =  7.23E-09,  avg # of iterations =  3.7

     total cpu time spent up to now is       21.6 secs

     total energy              =   -1548.14906393 Ry
     estimated scf accuracy    <       0.00000016 Ry

     iteration #  9     ecut=    50.00 Ry     beta= 0.70
     Davidson diagonalization with overlap
     ethr =  7.42E-10,  avg # of iterations =  4.7

     total cpu time spent up to now is       24.1 secs

     total energy              =   -1548.14906399 Ry
     estimated scf accuracy    <       0.00000008 Ry

     iteration # 10     ecut=    50.00 Ry     beta= 0.70
     Davidson diagonalization with overlap
     c_bands:  1 eigenvalues not converged
     ethr =  3.78E-10,  avg # of iterations =  2.5

     total cpu time spent up to now is       25.8 secs

     total energy              =   -1548.14906402 Ry
     estimated scf accuracy    <          5.7E-09 Ry

     iteration # 11     ecut=    50.00 Ry     beta= 0.70
     Davidson diagonalization with overlap
     ethr =  2.58E-11,  avg # of iterations =  4.5

     total cpu time spent up to now is       28.2 secs

     End of self-consistent calculation

     Number of k-points >= 100: set verbosity='high' to print the bands.

     the Fermi energy is    17.8863 ev

!    total energy              =   -1548.14906402 Ry

     total all-electron energy =    -76045.841246 Ry
     estimated scf accuracy    <          2.4E-10 Ry
     smearing contrib. (-TS)   =      -0.00005803 Ry
     internal energy E=F+TS    =   -1548.14900599 Ry

     The total energy is F=E-TS. E is the sum of the following terms:
     one-electron contribution =       2.62152242 Ry
     hartree contribution      =      27.28252836 Ry
     xc contribution           =     -65.49702215 Ry
     ewald contribution        =    -126.97775942 Ry
     one-center paw contrib.   =   -1385.57827521 Ry

     convergence has been achieved in  11 iterations

     Forces acting on atoms (cartesian axes, Ry/au):

     atom    1 type  1   force =     0.00000000    0.00000000    0.00000000
     atom    2 type  1   force =     0.00000000    0.00000000    0.00000000

     Total force =     0.000000     Total SCF correction =     0.000000

     Writing all to output data dir ./pwscf.save/
 
     init_run     :      0.76s CPU      0.83s WALL (       1 calls)
     electrons    :     25.82s CPU     26.58s WALL (       1 calls)
     forces       :      0.07s CPU      0.07s WALL (       1 calls)

     Called by init_run:
     wfcinit      :      0.49s CPU      0.51s WALL (       1 calls)
     potinit      :      0.04s CPU      0.05s WALL (       1 calls)
     hinit0       :      0.21s CPU      0.26s WALL (       1 calls)

     Called by electrons:
     c_bands      :     23.95s CPU     24.51s WALL (      12 calls)
     sum_band     :      1.47s CPU      1.53s WALL (      12 calls)
     v_of_rho     :      0.01s CPU      0.01s WALL (      12 calls)
     newd         :      0.01s CPU      0.02s WALL (      12 calls)
     PAW_pot      :      0.40s CPU      0.54s WALL (      12 calls)
     mix_rho      :      0.00s CPU      0.00s WALL (      12 calls)

     Called by c_bands:
     init_us_2    :      0.08s CPU      0.08s WALL (    4914 calls)
     init_us_2:cp :      0.08s CPU      0.08s WALL (    4914 calls)
     cegterg      :     23.60s CPU     24.15s WALL (    2268 calls)

     Called by *egterg:
     cdiaghg      :     10.58s CPU     10.79s WALL (   11550 calls)
     h_psi        :      8.82s CPU      9.07s WALL (   11928 calls)
     s_psi        :      0.13s CPU      0.14s WALL (   11928 calls)
     g_psi        :      0.02s CPU      0.02s WALL (    9471 calls)

     Called by h_psi:
     h_psi:calbec :      0.55s CPU      0.57s WALL (   11928 calls)
     vloc_psi     :      8.05s CPU      8.28s WALL (   11928 calls)
     add_vuspsi   :      0.16s CPU      0.17s WALL (   11928 calls)

     General routines
     calbec       :      0.70s CPU      0.72s WALL (   14952 calls)
     fft          :      0.01s CPU      0.05s WALL (     144 calls)
     ffts         :      0.00s CPU      0.00s WALL (      12 calls)
     fftw         :      8.83s CPU      9.09s WALL (  251034 calls)
 
     Parallel routines
 
     PWSCF        :     27.60s CPU     29.90s WALL

 
   This run was terminated on:   6:10:27   2Feb2024            

=------------------------------------------------------------------------------=
   JOB DONE.
=------------------------------------------------------------------------------=
