MPI startup(): Warning: I_MPI_PMI_LIBRARY will be ignored since the hydra process manager was found
MPI startup(): Warning: I_MPI_PMI_LIBRARY will be ignored since the hydra process manager was found
MPI startup(): Warning: I_MPI_PMI_LIBRARY will be ignored since the hydra process manager was found
MPI startup(): Warning: I_MPI_PMI_LIBRARY will be ignored since the hydra process manager was found
MPI startup(): Warning: I_MPI_PMI_LIBRARY will be ignored since the hydra process manager was found
MPI startup(): Warning: I_MPI_PMI_LIBRARY will be ignored since the hydra process manager was found
MPI startup(): Warning: I_MPI_PMI_LIBRARY will be ignored since the hydra process manager was found
MPI startup(): Warning: I_MPI_PMI_LIBRARY will be ignored since the hydra process manager was found
MPI startup(): Warning: I_MPI_PMI_LIBRARY will be ignored since the hydra process manager was found
MPI startup(): Warning: I_MPI_PMI_LIBRARY will be ignored since the hydra process manager was found
MPI startup(): Warning: I_MPI_PMI_LIBRARY will be ignored since the hydra process manager was found
MPI startup(): Warning: I_MPI_PMI_LIBRARY will be ignored since the hydra process manager was found
MPI startup(): Warning: I_MPI_PMI_LIBRARY will be ignored since the hydra process manager was found
MPI startup(): Warning: I_MPI_PMI_LIBRARY will be ignored since the hydra process manager was found
MPI startup(): Warning: I_MPI_PMI_LIBRARY will be ignored since the hydra process manager was found
MPI startup(): Warning: I_MPI_PMI_LIBRARY will be ignored since the hydra process manager was found
MPI startup(): Warning: I_MPI_PMI_LIBRARY will be ignored since the hydra process manager was found
MPI startup(): Warning: I_MPI_PMI_LIBRARY will be ignored since the hydra process manager was found
MPI startup(): Warning: I_MPI_PMI_LIBRARY will be ignored since the hydra process manager was found
MPI startup(): Warning: I_MPI_PMI_LIBRARY will be ignored since the hydra process manager was found

     Program PWSCF v.7.0 starts on 26Jan2024 at  4:13:22 

     This program is part of the open-source Quantum ESPRESSO suite
     for quantum simulation of materials; please cite
         "P. Giannozzi et al., J. Phys.:Condens. Matter 21 395502 (2009);
         "P. Giannozzi et al., J. Phys.:Condens. Matter 29 465901 (2017);
         "P. Giannozzi et al., J. Chem. Phys. 152 154105 (2020);
          URL http://www.quantum-espresso.org", 
     in publications or presentations arising from this work. More details at
     http://www.quantum-espresso.org/quote

     Parallel version (MPI), running on    20 processors

     MPI processes distributed on     1 nodes
     K-points division:     npool     =       2
     R & G space division:  proc/nbgrp/npool/nimage =      10
     78628 MiB available memory on the printing compute node when the environment starts
 
     Reading input from gold-6.4.in
Warning: card &CELL ignored
Warning: card / ignored

     Current dimensions of program PWSCF are:
     Max number of different atomic species (ntypx) = 10
     Max number of k-points (npk) =  40000
     Max angular momentum in pseudopotentials (lmaxx) =  4
     file Au.pbe-n-kjpaw_psl.1.0.0.UPF: wavefunction(s)  6S 5D renormalized
     Found identity + ( -0.5000 -0.5000 -0.5000) symmetry
     This is a supercell, fractional translations are disabled

     Subspace diagonalization in iterative solution of the eigenvalue problem:
     one sub-group per band group will be used
     scalapack distributed-memory algorithm (size of sub-group:  3*  3 procs)

 
     Parallelization info
     --------------------
     sticks:   dense  smooth     PW     G-vecs:    dense   smooth      PW
     Min          46      46     15                  633      633     115
     Max          47      47     16                  635      635     116
     Sum         467     467    151                 6339     6339    1157
 
     Using Slab Decomposition
 


     bravais-lattice index     =            3
     lattice parameter (alat)  =       6.4000  a.u.
     unit-cell volume          =     131.0720 (a.u.)^3
     number of atoms/cell      =            2
     number of atomic types    =            1
     number of electrons       =        22.00
     number of Kohn-Sham states=           15
     kinetic-energy cutoff     =      50.0000  Ry
     charge density cutoff     =     200.0000  Ry
     scf convergence threshold =      1.0E-09
     mixing beta               =       0.7000
     number of iterations used =            8  plain     mixing
     Exchange-correlation= SLA  PW   PBX  PBC
                           (   1   4   3   4   0   0   0)

     celldm(1)=   6.400000  celldm(2)=   0.000000  celldm(3)=   0.000000
     celldm(4)=   0.000000  celldm(5)=   0.000000  celldm(6)=   0.000000

     crystal axes: (cart. coord. in units of alat)
               a(1) = (   0.500000   0.500000   0.500000 )  
               a(2) = (  -0.500000   0.500000   0.500000 )  
               a(3) = (  -0.500000  -0.500000   0.500000 )  

     reciprocal axes: (cart. coord. in units 2 pi/alat)
               b(1) = (  1.000000  0.000000  1.000000 )  
               b(2) = ( -1.000000  1.000000  0.000000 )  
               b(3) = (  0.000000 -1.000000  1.000000 )  


     PseudoPot. # 1 for Au read from file:
     ./Au.pbe-n-kjpaw_psl.1.0.0.UPF
     MD5 check sum: 4db85c736373c707a97ce4c36c2a9d23
     Pseudo is Projector augmented-wave + core cor, Zval = 11.0
     Generated using &quot;atomic&quot; code by A. Dal Corso  v.6.3
     Shape of augmentation charge: PSQ
     Using radial grid of 1279 points,  6 beta functions with: 
                l(1) =   0
                l(2) =   0
                l(3) =   1
                l(4) =   1
                l(5) =   2
                l(6) =   2
     Q(r) pseudized with 0 coefficients 


     atomic species   valence    mass     pseudopotential
        Au            11.00   196.96657     Au( 1.00)

     12 Sym. Ops., with inversion, found



   Cartesian axes

     site n.     atom                  positions (alat units)
         1           Au  tau(   1) = (   0.0000000   0.0000000   0.0000000  )
         2           Au  tau(   2) = (  -0.2500000   0.2500000   0.7500000  )

     number of k points=   189  Gaussian smearing, width (Ry)=  0.0200

     Number of k-points >= 100: set verbosity='high' to print them.

     Dense  grid:     6339 G-vectors     FFT dimensions: (  25,  25,  25)

     Estimated max dynamical RAM per process >       4.22 MB

     Estimated total dynamical RAM >      82.79 MB

     Initial potential from superposition of free atoms

     starting charge      21.9998, renormalised to      22.0000
     Starting wfcs are   18 randomized atomic wfcs
     Checking if some PAW data can be deallocated... 

     total cpu time spent up to now is        1.4 secs

     Self-consistent Calculation

     iteration #  1     ecut=    50.00 Ry     beta= 0.70
     Davidson diagonalization with overlap
     ethr =  1.00E-02,  avg # of iterations =  7.9

     Threshold (ethr) on eigenvalues was too large:
     Diagonalizing with lowered threshold

     Davidson diagonalization with overlap
     ethr =  9.28E-04,  avg # of iterations =  5.4

     negative rho (up, down):  8.679E-03 0.000E+00

     total cpu time spent up to now is        3.4 secs

     total energy              =   -1542.65716292 Ry
     estimated scf accuracy    <       0.20727911 Ry

     iteration #  2     ecut=    50.00 Ry     beta= 0.70
     Davidson diagonalization with overlap
     ethr =  9.42E-04,  avg # of iterations =  2.2

     negative rho (up, down):  2.620E-02 0.000E+00

     total cpu time spent up to now is        4.0 secs

     total energy              =   -1542.69995630 Ry
     estimated scf accuracy    <       0.01434414 Ry

     iteration #  3     ecut=    50.00 Ry     beta= 0.70
     Davidson diagonalization with overlap
     ethr =  6.52E-05,  avg # of iterations =  6.4

     negative rho (up, down):  4.364E-02 0.000E+00

     total cpu time spent up to now is        5.1 secs

     total energy              =   -1542.70910878 Ry
     estimated scf accuracy    <       0.00196659 Ry

     iteration #  4     ecut=    50.00 Ry     beta= 0.70
     Davidson diagonalization with overlap
     c_bands:  1 eigenvalues not converged
     c_bands:  1 eigenvalues not converged
     ethr =  8.94E-06,  avg # of iterations =  6.5

     negative rho (up, down):  4.736E-02 0.000E+00

     total cpu time spent up to now is        6.2 secs

     total energy              =   -1542.70990105 Ry
     estimated scf accuracy    <       0.00003947 Ry

     iteration #  5     ecut=    50.00 Ry     beta= 0.70
     Davidson diagonalization with overlap
     c_bands:  1 eigenvalues not converged
     c_bands:  1 eigenvalues not converged
     ethr =  1.79E-07,  avg # of iterations =  7.7

     negative rho (up, down):  5.089E-02 0.000E+00

     total cpu time spent up to now is        7.6 secs

     total energy              =   -1542.70997987 Ry
     estimated scf accuracy    <       0.00001200 Ry

     iteration #  6     ecut=    50.00 Ry     beta= 0.70
     Davidson diagonalization with overlap
     ethr =  5.45E-08,  avg # of iterations =  3.7

     negative rho (up, down):  5.072E-02 0.000E+00

     total cpu time spent up to now is        8.5 secs

     total energy              =   -1542.70998284 Ry
     estimated scf accuracy    <       0.00000251 Ry

     iteration #  7     ecut=    50.00 Ry     beta= 0.70
     Davidson diagonalization with overlap
     ethr =  1.14E-08,  avg # of iterations =  2.9

     negative rho (up, down):  5.105E-02 0.000E+00

     total cpu time spent up to now is        9.1 secs

     total energy              =   -1542.70998331 Ry
     estimated scf accuracy    <       0.00000006 Ry

     iteration #  8     ecut=    50.00 Ry     beta= 0.70
     Davidson diagonalization with overlap
     ethr =  2.81E-10,  avg # of iterations =  7.3

     negative rho (up, down):  5.094E-02 0.000E+00

     total cpu time spent up to now is       10.5 secs

     total energy              =   -1542.70998348 Ry
     estimated scf accuracy    <       0.00000001 Ry

     iteration #  9     ecut=    50.00 Ry     beta= 0.70
     Davidson diagonalization with overlap
     ethr =  6.28E-11,  avg # of iterations =  2.6

     negative rho (up, down):  5.096E-02 0.000E+00

     total cpu time spent up to now is       11.1 secs

     End of self-consistent calculation

     Number of k-points >= 100: set verbosity='high' to print the bands.

     the Fermi energy is    37.5147 ev

!    total energy              =   -1542.70998348 Ry

     total all-electron energy =    -76040.402166 Ry
     estimated scf accuracy    <          3.1E-10 Ry
     smearing contrib. (-TS)   =      -0.00093265 Ry
     internal energy E=F+TS    =   -1542.70905083 Ry

     The total energy is F=E-TS. E is the sum of the following terms:
     one-electron contribution =      47.34157399 Ry
     hartree contribution      =      16.95879403 Ry
     xc contribution           =     -67.84785247 Ry
     ewald contribution        =    -152.77011701 Ry
     one-center paw contrib.   =   -1386.39144938 Ry

     convergence has been achieved in   9 iterations

     negative rho (up, down):  5.096E-02 0.000E+00

     Forces acting on atoms (cartesian axes, Ry/au):

     atom    1 type  1   force =     0.00000000    0.00000000    0.00000000
     atom    2 type  1   force =     0.00000000    0.00000000    0.00000000

     Total force =     0.000000     Total SCF correction =     0.000000

     Writing all to output data dir ./gold.save/
 
     init_run     :      0.40s CPU      0.43s WALL (       1 calls)
     electrons    :      9.26s CPU      9.78s WALL (       1 calls)
     forces       :      0.02s CPU      0.03s WALL (       1 calls)

     Called by init_run:
     wfcinit      :      0.15s CPU      0.16s WALL (       1 calls)
     potinit      :      0.03s CPU      0.04s WALL (       1 calls)
     hinit0       :      0.21s CPU      0.22s WALL (       1 calls)

     Called by electrons:
     c_bands      :      8.59s CPU      8.97s WALL (      10 calls)
     sum_band     :      0.40s CPU      0.44s WALL (      10 calls)
     v_of_rho     :      0.01s CPU      0.01s WALL (      10 calls)
     newd         :      0.01s CPU      0.01s WALL (      10 calls)
     PAW_pot      :      0.27s CPU      0.35s WALL (      10 calls)
     mix_rho      :      0.00s CPU      0.00s WALL (      10 calls)

     Called by c_bands:
     init_us_2    :      0.03s CPU      0.03s WALL (    2090 calls)
     init_us_2:cp :      0.03s CPU      0.03s WALL (    2090 calls)
     cegterg      :      7.65s CPU      8.00s WALL (     950 calls)

     Called by *egterg:
     cdiaghg      :      3.70s CPU      3.85s WALL (    5864 calls)
     h_psi        :      2.55s CPU      2.69s WALL (    6054 calls)
     s_psi        :      0.05s CPU      0.05s WALL (    6054 calls)
     g_psi        :      0.01s CPU      0.01s WALL (    5009 calls)

     Called by h_psi:
     h_psi:calbec :      0.18s CPU      0.19s WALL (    6054 calls)
     vloc_psi     :      2.29s CPU      2.41s WALL (    6054 calls)
     add_vuspsi   :      0.06s CPU      0.07s WALL (    6054 calls)

     General routines
     calbec       :      0.22s CPU      0.23s WALL (    7384 calls)
     fft          :      0.00s CPU      0.01s WALL (     122 calls)
     ffts         :      0.00s CPU      0.00s WALL (      10 calls)
     fftw         :      2.45s CPU      2.60s WALL (  113898 calls)
 
     Parallel routines
 
     PWSCF        :     10.55s CPU     12.06s WALL

 
   This run was terminated on:   4:13:34  26Jan2024            

=------------------------------------------------------------------------------=
   JOB DONE.
=------------------------------------------------------------------------------=
