MPI startup(): Warning: I_MPI_PMI_LIBRARY will be ignored since the hydra process manager was found
MPI startup(): Warning: I_MPI_PMI_LIBRARY will be ignored since the hydra process manager was found
MPI startup(): Warning: I_MPI_PMI_LIBRARY will be ignored since the hydra process manager was found
MPI startup(): Warning: I_MPI_PMI_LIBRARY will be ignored since the hydra process manager was found
MPI startup(): Warning: I_MPI_PMI_LIBRARY will be ignored since the hydra process manager was found
MPI startup(): Warning: I_MPI_PMI_LIBRARY will be ignored since the hydra process manager was found
MPI startup(): Warning: I_MPI_PMI_LIBRARY will be ignored since the hydra process manager was found
MPI startup(): Warning: I_MPI_PMI_LIBRARY will be ignored since the hydra process manager was found
MPI startup(): Warning: I_MPI_PMI_LIBRARY will be ignored since the hydra process manager was found
MPI startup(): Warning: I_MPI_PMI_LIBRARY will be ignored since the hydra process manager was found
MPI startup(): Warning: I_MPI_PMI_LIBRARY will be ignored since the hydra process manager was found
MPI startup(): Warning: I_MPI_PMI_LIBRARY will be ignored since the hydra process manager was found
MPI startup(): Warning: I_MPI_PMI_LIBRARY will be ignored since the hydra process manager was found
MPI startup(): Warning: I_MPI_PMI_LIBRARY will be ignored since the hydra process manager was found
MPI startup(): Warning: I_MPI_PMI_LIBRARY will be ignored since the hydra process manager was found
MPI startup(): Warning: I_MPI_PMI_LIBRARY will be ignored since the hydra process manager was found
MPI startup(): Warning: I_MPI_PMI_LIBRARY will be ignored since the hydra process manager was found
MPI startup(): Warning: I_MPI_PMI_LIBRARY will be ignored since the hydra process manager was found
MPI startup(): Warning: I_MPI_PMI_LIBRARY will be ignored since the hydra process manager was found
MPI startup(): Warning: I_MPI_PMI_LIBRARY will be ignored since the hydra process manager was found

     Program PWSCF v.7.0 starts on  2Feb2024 at  6: 7:58 

     This program is part of the open-source Quantum ESPRESSO suite
     for quantum simulation of materials; please cite
         "P. Giannozzi et al., J. Phys.:Condens. Matter 21 395502 (2009);
         "P. Giannozzi et al., J. Phys.:Condens. Matter 29 465901 (2017);
         "P. Giannozzi et al., J. Chem. Phys. 152 154105 (2020);
          URL http://www.quantum-espresso.org", 
     in publications or presentations arising from this work. More details at
     http://www.quantum-espresso.org/quote

     Parallel version (MPI), running on    20 processors

     MPI processes distributed on     1 nodes
     R & G space division:  proc/nbgrp/npool/nimage =      20
     107466 MiB available memory on the printing compute node when the environment starts
 
     Reading input from gold-7.3.in
Warning: card &CELL ignored
Warning: card / ignored

     Current dimensions of program PWSCF are:
     Max number of different atomic species (ntypx) = 10
     Max number of k-points (npk) =  40000
     Max angular momentum in pseudopotentials (lmaxx) =  4
     file Au.pbe-n-kjpaw_psl.1.0.0.UPF: wavefunction(s)  6S 5D renormalized
     Found identity + ( -0.5000 -0.5000 -0.5000) symmetry
     This is a supercell, fractional translations are disabled

     Subspace diagonalization in iterative solution of the eigenvalue problem:
     one sub-group per band group will be used
     scalapack distributed-memory algorithm (size of sub-group:  4*  4 procs)

 
     Parallelization info
     --------------------
     sticks:   dense  smooth     PW     G-vecs:    dense   smooth      PW
     Min          30      30      9                  460      460      78
     Max          31      31     10                  461      461      81
     Sum         603     603    181                 9213     9213    1601
 
     Using Slab Decomposition
 


     bravais-lattice index     =            3
     lattice parameter (alat)  =       7.3000  a.u.
     unit-cell volume          =     194.5085 (a.u.)^3
     number of atoms/cell      =            2
     number of atomic types    =            1
     number of electrons       =        22.00
     number of Kohn-Sham states=           15
     kinetic-energy cutoff     =      50.0000  Ry
     charge density cutoff     =     200.0000  Ry
     scf convergence threshold =      1.0E-09
     mixing beta               =       0.7000
     number of iterations used =            8  plain     mixing
     Exchange-correlation= SLA  PW   PBX  PBC
                           (   1   4   3   4   0   0   0)

     celldm(1)=   7.300000  celldm(2)=   0.000000  celldm(3)=   0.000000
     celldm(4)=   0.000000  celldm(5)=   0.000000  celldm(6)=   0.000000

     crystal axes: (cart. coord. in units of alat)
               a(1) = (   0.500000   0.500000   0.500000 )  
               a(2) = (  -0.500000   0.500000   0.500000 )  
               a(3) = (  -0.500000  -0.500000   0.500000 )  

     reciprocal axes: (cart. coord. in units 2 pi/alat)
               b(1) = (  1.000000  0.000000  1.000000 )  
               b(2) = ( -1.000000  1.000000  0.000000 )  
               b(3) = (  0.000000 -1.000000  1.000000 )  


     PseudoPot. # 1 for Au read from file:
     ./Au.pbe-n-kjpaw_psl.1.0.0.UPF
     MD5 check sum: 4db85c736373c707a97ce4c36c2a9d23
     Pseudo is Projector augmented-wave + core cor, Zval = 11.0
     Generated using &quot;atomic&quot; code by A. Dal Corso  v.6.3
     Shape of augmentation charge: PSQ
     Using radial grid of 1279 points,  6 beta functions with: 
                l(1) =   0
                l(2) =   0
                l(3) =   1
                l(4) =   1
                l(5) =   2
                l(6) =   2
     Q(r) pseudized with 0 coefficients 


     atomic species   valence    mass     pseudopotential
        Au            11.00   196.96657     Au( 1.00)

     12 Sym. Ops., with inversion, found



   Cartesian axes

     site n.     atom                  positions (alat units)
         1           Au  tau(   1) = (   0.0000000   0.0000000   0.0000000  )
         2           Au  tau(   2) = (  -0.2500000   0.2500000   0.7500000  )

     number of k points=   189  Gaussian smearing, width (Ry)=  0.0020

     Number of k-points >= 100: set verbosity='high' to print them.

     Dense  grid:     9213 G-vectors     FFT dimensions: (  30,  30,  30)

     Estimated max dynamical RAM per process >       5.35 MB

     Estimated total dynamical RAM >     107.06 MB

     Initial potential from superposition of free atoms

     starting charge      21.9998, renormalised to      22.0000
     Starting wfcs are   18 randomized atomic wfcs
     Checking if some PAW data can be deallocated... 

     total cpu time spent up to now is        1.6 secs

     Self-consistent Calculation

     iteration #  1     ecut=    50.00 Ry     beta= 0.70
     Davidson diagonalization with overlap
     ethr =  1.00E-02,  avg # of iterations =  5.8

     Threshold (ethr) on eigenvalues was too large:
     Diagonalizing with lowered threshold

     Davidson diagonalization with overlap
     ethr =  9.80E-04,  avg # of iterations =  3.4

     total cpu time spent up to now is        5.8 secs

     total energy              =   -1547.04272181 Ry
     estimated scf accuracy    <       0.20099974 Ry

     iteration #  2     ecut=    50.00 Ry     beta= 0.70
     Davidson diagonalization with overlap
     ethr =  9.14E-04,  avg # of iterations =  3.6

     total cpu time spent up to now is        7.8 secs

     total energy              =   -1547.10186235 Ry
     estimated scf accuracy    <       0.05559208 Ry

     iteration #  3     ecut=    50.00 Ry     beta= 0.70
     Davidson diagonalization with overlap
     ethr =  2.53E-04,  avg # of iterations =  2.3

     total cpu time spent up to now is        9.3 secs

     total energy              =   -1547.11622555 Ry
     estimated scf accuracy    <       0.00187388 Ry

     iteration #  4     ecut=    50.00 Ry     beta= 0.70
     Davidson diagonalization with overlap
     c_bands:  2 eigenvalues not converged
     c_bands:  2 eigenvalues not converged
     c_bands:  1 eigenvalues not converged
     c_bands:  1 eigenvalues not converged
     c_bands:  1 eigenvalues not converged
     c_bands:  1 eigenvalues not converged
     c_bands:  1 eigenvalues not converged
     c_bands:  1 eigenvalues not converged
     c_bands:  1 eigenvalues not converged
     c_bands:  1 eigenvalues not converged
     c_bands:  1 eigenvalues not converged
     c_bands:  1 eigenvalues not converged
     c_bands:  1 eigenvalues not converged
     c_bands:  1 eigenvalues not converged
     c_bands:  1 eigenvalues not converged
     c_bands:  1 eigenvalues not converged
     ethr =  8.52E-06,  avg # of iterations =  9.3

     total cpu time spent up to now is       13.3 secs

     total energy              =   -1547.11857758 Ry
     estimated scf accuracy    <       0.00032823 Ry

     iteration #  5     ecut=    50.00 Ry     beta= 0.70
     Davidson diagonalization with overlap
     c_bands:  1 eigenvalues not converged
     c_bands:  1 eigenvalues not converged
     c_bands:  1 eigenvalues not converged
     c_bands:  1 eigenvalues not converged
     ethr =  1.49E-06,  avg # of iterations =  5.0

     negative rho (up, down):  1.758E-05 0.000E+00

     total cpu time spent up to now is       15.7 secs

     total energy              =   -1547.11874638 Ry
     estimated scf accuracy    <       0.00004780 Ry

     iteration #  6     ecut=    50.00 Ry     beta= 0.70
     Davidson diagonalization with overlap
     ethr =  2.17E-07,  avg # of iterations =  3.7

     negative rho (up, down):  4.144E-06 0.000E+00

     total cpu time spent up to now is       17.6 secs

     total energy              =   -1547.11876526 Ry
     estimated scf accuracy    <       0.00000169 Ry

     iteration #  7     ecut=    50.00 Ry     beta= 0.70
     Davidson diagonalization with overlap
     c_bands:  1 eigenvalues not converged
     ethr =  7.68E-09,  avg # of iterations =  5.8

     negative rho (up, down):  1.821E-05 0.000E+00

     total cpu time spent up to now is       20.6 secs

     total energy              =   -1547.11876771 Ry
     estimated scf accuracy    <       0.00000004 Ry

     iteration #  8     ecut=    50.00 Ry     beta= 0.70
     Davidson diagonalization with overlap
     ethr =  1.66E-10,  avg # of iterations =  6.2

     negative rho (up, down):  3.138E-05 0.000E+00

     total cpu time spent up to now is       23.7 secs

     total energy              =   -1547.11876776 Ry
     estimated scf accuracy    <       0.00000007 Ry

     iteration #  9     ecut=    50.00 Ry     beta= 0.70
     Davidson diagonalization with overlap
     ethr =  1.66E-10,  avg # of iterations =  2.0

     negative rho (up, down):  2.973E-05 0.000E+00

     total cpu time spent up to now is       25.2 secs

     End of self-consistent calculation

     Number of k-points >= 100: set verbosity='high' to print the bands.

     the Fermi energy is    22.6843 ev

!    total energy              =   -1547.11876777 Ry

     total all-electron energy =    -76044.810950 Ry
     estimated scf accuracy    <          2.9E-10 Ry
     smearing contrib. (-TS)   =      -0.00003344 Ry
     internal energy E=F+TS    =   -1547.11873433 Ry

     The total energy is F=E-TS. E is the sum of the following terms:
     one-electron contribution =      14.47834874 Ry
     hartree contribution      =      24.14379579 Ry
     xc contribution           =     -66.02710234 Ry
     ewald contribution        =    -133.93544487 Ry
     one-center paw contrib.   =   -1385.77833165 Ry

     convergence has been achieved in   9 iterations

     negative rho (up, down):  2.973E-05 0.000E+00

     Forces acting on atoms (cartesian axes, Ry/au):

     atom    1 type  1   force =     0.00000000    0.00000000    0.00000000
     atom    2 type  1   force =     0.00000000    0.00000000    0.00000000

     Total force =     0.000000     Total SCF correction =     0.000000

     Writing all to output data dir ./pwscf.save/
 
     init_run     :      0.74s CPU      0.77s WALL (       1 calls)
     electrons    :     23.01s CPU     23.63s WALL (       1 calls)
     forces       :      0.06s CPU      0.06s WALL (       1 calls)

     Called by init_run:
     wfcinit      :      0.48s CPU      0.50s WALL (       1 calls)
     potinit      :      0.04s CPU      0.05s WALL (       1 calls)
     hinit0       :      0.20s CPU      0.21s WALL (       1 calls)

     Called by electrons:
     c_bands      :     21.47s CPU     21.98s WALL (      10 calls)
     sum_band     :      1.18s CPU      1.22s WALL (      10 calls)
     v_of_rho     :      0.01s CPU      0.01s WALL (      10 calls)
     newd         :      0.01s CPU      0.01s WALL (      10 calls)
     PAW_pot      :      0.38s CPU      0.45s WALL (      10 calls)
     mix_rho      :      0.00s CPU      0.00s WALL (      10 calls)

     Called by c_bands:
     init_us_2    :      0.07s CPU      0.07s WALL (    4158 calls)
     init_us_2:cp :      0.06s CPU      0.06s WALL (    4158 calls)
     cegterg      :     21.20s CPU     21.70s WALL (    1890 calls)

     Called by *egterg:
     cdiaghg      :      9.83s CPU     10.01s WALL (   10630 calls)
     h_psi        :      7.50s CPU      7.74s WALL (   11008 calls)
     s_psi        :      0.12s CPU      0.12s WALL (   11008 calls)
     g_psi        :      0.02s CPU      0.02s WALL (    8929 calls)

     Called by h_psi:
     h_psi:calbec :      0.52s CPU      0.53s WALL (   11008 calls)
     vloc_psi     :      6.80s CPU      7.01s WALL (   11008 calls)
     add_vuspsi   :      0.14s CPU      0.15s WALL (   11008 calls)

     General routines
     calbec       :      0.66s CPU      0.68s WALL (   13654 calls)
     fft          :      0.01s CPU      0.01s WALL (     122 calls)
     ffts         :      0.00s CPU      0.00s WALL (      10 calls)
     fftw         :      7.40s CPU      7.63s WALL (  224610 calls)
 
     Parallel routines
 
     PWSCF        :     24.76s CPU     26.97s WALL

 
   This run was terminated on:   6: 8:25   2Feb2024            

=------------------------------------------------------------------------------=
   JOB DONE.
=------------------------------------------------------------------------------=
