MPI startup(): Warning: I_MPI_PMI_LIBRARY will be ignored since the hydra process manager was found
MPI startup(): Warning: I_MPI_PMI_LIBRARY will be ignored since the hydra process manager was found
MPI startup(): Warning: I_MPI_PMI_LIBRARY will be ignored since the hydra process manager was found
MPI startup(): Warning: I_MPI_PMI_LIBRARY will be ignored since the hydra process manager was found
MPI startup(): Warning: I_MPI_PMI_LIBRARY will be ignored since the hydra process manager was found
MPI startup(): Warning: I_MPI_PMI_LIBRARY will be ignored since the hydra process manager was found
MPI startup(): Warning: I_MPI_PMI_LIBRARY will be ignored since the hydra process manager was found
MPI startup(): Warning: I_MPI_PMI_LIBRARY will be ignored since the hydra process manager was found
MPI startup(): Warning: I_MPI_PMI_LIBRARY will be ignored since the hydra process manager was found
MPI startup(): Warning: I_MPI_PMI_LIBRARY will be ignored since the hydra process manager was found
MPI startup(): Warning: I_MPI_PMI_LIBRARY will be ignored since the hydra process manager was found
MPI startup(): Warning: I_MPI_PMI_LIBRARY will be ignored since the hydra process manager was found
MPI startup(): Warning: I_MPI_PMI_LIBRARY will be ignored since the hydra process manager was found
MPI startup(): Warning: I_MPI_PMI_LIBRARY will be ignored since the hydra process manager was found
MPI startup(): Warning: I_MPI_PMI_LIBRARY will be ignored since the hydra process manager was found
MPI startup(): Warning: I_MPI_PMI_LIBRARY will be ignored since the hydra process manager was found
MPI startup(): Warning: I_MPI_PMI_LIBRARY will be ignored since the hydra process manager was found
MPI startup(): Warning: I_MPI_PMI_LIBRARY will be ignored since the hydra process manager was found
MPI startup(): Warning: I_MPI_PMI_LIBRARY will be ignored since the hydra process manager was found
MPI startup(): Warning: I_MPI_PMI_LIBRARY will be ignored since the hydra process manager was found

     Program PWSCF v.7.0 starts on 26Jan2024 at  4:14: 8 

     This program is part of the open-source Quantum ESPRESSO suite
     for quantum simulation of materials; please cite
         "P. Giannozzi et al., J. Phys.:Condens. Matter 21 395502 (2009);
         "P. Giannozzi et al., J. Phys.:Condens. Matter 29 465901 (2017);
         "P. Giannozzi et al., J. Chem. Phys. 152 154105 (2020);
          URL http://www.quantum-espresso.org", 
     in publications or presentations arising from this work. More details at
     http://www.quantum-espresso.org/quote

     Parallel version (MPI), running on    20 processors

     MPI processes distributed on     1 nodes
     K-points division:     npool     =       2
     R & G space division:  proc/nbgrp/npool/nimage =      10
     88482 MiB available memory on the printing compute node when the environment starts
 
     Reading input from gold-6.7.in
Warning: card &CELL ignored
Warning: card / ignored

     Current dimensions of program PWSCF are:
     Max number of different atomic species (ntypx) = 10
     Max number of k-points (npk) =  40000
     Max angular momentum in pseudopotentials (lmaxx) =  4
     file Au.pbe-n-kjpaw_psl.1.0.0.UPF: wavefunction(s)  6S 5D renormalized
     Found identity + ( -0.5000 -0.5000 -0.5000) symmetry
     This is a supercell, fractional translations are disabled

     Subspace diagonalization in iterative solution of the eigenvalue problem:
     one sub-group per band group will be used
     scalapack distributed-memory algorithm (size of sub-group:  3*  3 procs)

 
     Parallelization info
     --------------------
     sticks:   dense  smooth     PW     G-vecs:    dense   smooth      PW
     Min          49      49     16                  710      710     128
     Max          50      50     17                  712      712     129
     Sum         499     499    165                 7107     7107    1289
 
     Using Slab Decomposition
 


     bravais-lattice index     =            3
     lattice parameter (alat)  =       6.7000  a.u.
     unit-cell volume          =     150.3815 (a.u.)^3
     number of atoms/cell      =            2
     number of atomic types    =            1
     number of electrons       =        22.00
     number of Kohn-Sham states=           15
     kinetic-energy cutoff     =      50.0000  Ry
     charge density cutoff     =     200.0000  Ry
     scf convergence threshold =      1.0E-09
     mixing beta               =       0.7000
     number of iterations used =            8  plain     mixing
     Exchange-correlation= SLA  PW   PBX  PBC
                           (   1   4   3   4   0   0   0)

     celldm(1)=   6.700000  celldm(2)=   0.000000  celldm(3)=   0.000000
     celldm(4)=   0.000000  celldm(5)=   0.000000  celldm(6)=   0.000000

     crystal axes: (cart. coord. in units of alat)
               a(1) = (   0.500000   0.500000   0.500000 )  
               a(2) = (  -0.500000   0.500000   0.500000 )  
               a(3) = (  -0.500000  -0.500000   0.500000 )  

     reciprocal axes: (cart. coord. in units 2 pi/alat)
               b(1) = (  1.000000  0.000000  1.000000 )  
               b(2) = ( -1.000000  1.000000  0.000000 )  
               b(3) = (  0.000000 -1.000000  1.000000 )  


     PseudoPot. # 1 for Au read from file:
     ./Au.pbe-n-kjpaw_psl.1.0.0.UPF
     MD5 check sum: 4db85c736373c707a97ce4c36c2a9d23
     Pseudo is Projector augmented-wave + core cor, Zval = 11.0
     Generated using &quot;atomic&quot; code by A. Dal Corso  v.6.3
     Shape of augmentation charge: PSQ
     Using radial grid of 1279 points,  6 beta functions with: 
                l(1) =   0
                l(2) =   0
                l(3) =   1
                l(4) =   1
                l(5) =   2
                l(6) =   2
     Q(r) pseudized with 0 coefficients 


     atomic species   valence    mass     pseudopotential
        Au            11.00   196.96657     Au( 1.00)

     12 Sym. Ops., with inversion, found



   Cartesian axes

     site n.     atom                  positions (alat units)
         1           Au  tau(   1) = (   0.0000000   0.0000000   0.0000000  )
         2           Au  tau(   2) = (  -0.2500000   0.2500000   0.7500000  )

     number of k points=   189  Gaussian smearing, width (Ry)=  0.0200

     Number of k-points >= 100: set verbosity='high' to print them.

     Dense  grid:     7107 G-vectors     FFT dimensions: (  27,  27,  27)

     Estimated max dynamical RAM per process >       4.63 MB

     Estimated total dynamical RAM >      90.90 MB

     Initial potential from superposition of free atoms

     starting charge      21.9998, renormalised to      22.0000
     Starting wfcs are   18 randomized atomic wfcs
     Checking if some PAW data can be deallocated... 

     total cpu time spent up to now is        1.4 secs

     Self-consistent Calculation

     iteration #  1     ecut=    50.00 Ry     beta= 0.70
     Davidson diagonalization with overlap
     ethr =  1.00E-02,  avg # of iterations =  7.3

     Threshold (ethr) on eigenvalues was too large:
     Diagonalizing with lowered threshold

     Davidson diagonalization with overlap
     ethr =  9.59E-04,  avg # of iterations =  3.8

     total cpu time spent up to now is        3.2 secs

     total energy              =   -1544.53323075 Ry
     estimated scf accuracy    <       0.19687503 Ry

     iteration #  2     ecut=    50.00 Ry     beta= 0.70
     Davidson diagonalization with overlap
     ethr =  8.95E-04,  avg # of iterations =  2.5

     total cpu time spent up to now is        3.8 secs

     total energy              =   -1544.57724928 Ry
     estimated scf accuracy    <       0.01526452 Ry

     iteration #  3     ecut=    50.00 Ry     beta= 0.70
     Davidson diagonalization with overlap
     c_bands:  1 eigenvalues not converged
     ethr =  6.94E-05,  avg # of iterations =  5.8

     negative rho (up, down):  1.588E-04 0.000E+00

     total cpu time spent up to now is        4.9 secs

     total energy              =   -1544.58618657 Ry
     estimated scf accuracy    <       0.00164422 Ry

     iteration #  4     ecut=    50.00 Ry     beta= 0.70
     Davidson diagonalization with overlap
     c_bands:  1 eigenvalues not converged
     c_bands:  1 eigenvalues not converged
     c_bands:  1 eigenvalues not converged
     ethr =  7.47E-06,  avg # of iterations =  6.3

     negative rho (up, down):  1.977E-04 0.000E+00

     total cpu time spent up to now is        6.1 secs

     total energy              =   -1544.58709831 Ry
     estimated scf accuracy    <       0.00001530 Ry

     iteration #  5     ecut=    50.00 Ry     beta= 0.70
     Davidson diagonalization with overlap
     c_bands:  1 eigenvalues not converged
     c_bands:  2 eigenvalues not converged
     c_bands:  1 eigenvalues not converged
     ethr =  6.96E-08,  avg # of iterations =  8.8

     negative rho (up, down):  2.507E-04 0.000E+00

     total cpu time spent up to now is        7.7 secs

     total energy              =   -1544.58717119 Ry
     estimated scf accuracy    <       0.00001028 Ry

     iteration #  6     ecut=    50.00 Ry     beta= 0.70
     Davidson diagonalization with overlap
     ethr =  4.67E-08,  avg # of iterations =  2.2

     negative rho (up, down):  2.496E-04 0.000E+00

     total cpu time spent up to now is        8.2 secs

     total energy              =   -1544.58717341 Ry
     estimated scf accuracy    <       0.00000025 Ry

     iteration #  7     ecut=    50.00 Ry     beta= 0.70
     Davidson diagonalization with overlap
     ethr =  1.15E-09,  avg # of iterations =  6.0

     negative rho (up, down):  2.507E-04 0.000E+00

     total cpu time spent up to now is        9.4 secs

     total energy              =   -1544.58717371 Ry
     estimated scf accuracy    <       0.00000003 Ry

     iteration #  8     ecut=    50.00 Ry     beta= 0.70
     Davidson diagonalization with overlap
     ethr =  1.39E-10,  avg # of iterations =  4.2

     negative rho (up, down):  2.521E-04 0.000E+00

     total cpu time spent up to now is       10.2 secs

     total energy              =   -1544.58717372 Ry
     estimated scf accuracy    <          4.8E-09 Ry

     iteration #  9     ecut=    50.00 Ry     beta= 0.70
     Davidson diagonalization with overlap
     ethr =  2.17E-11,  avg # of iterations =  4.6

     negative rho (up, down):  2.519E-04 0.000E+00

     total cpu time spent up to now is       11.1 secs

     End of self-consistent calculation

     Number of k-points >= 100: set verbosity='high' to print the bands.

     the Fermi energy is    31.8696 ev

!    total energy              =   -1544.58717372 Ry

     total all-electron energy =    -76042.279356 Ry
     estimated scf accuracy    <          3.0E-10 Ry
     smearing contrib. (-TS)   =      -0.00113084 Ry
     internal energy E=F+TS    =   -1544.58604288 Ry

     The total energy is F=E-TS. E is the sum of the following terms:
     one-electron contribution =      35.30744626 Ry
     hartree contribution      =      19.30327886 Ry
     xc contribution           =     -67.10835026 Ry
     ewald contribution        =    -145.92966384 Ry
     one-center paw contrib.   =   -1386.15875390 Ry

     convergence has been achieved in   9 iterations

     negative rho (up, down):  2.519E-04 0.000E+00

     Forces acting on atoms (cartesian axes, Ry/au):

     atom    1 type  1   force =     0.00000000    0.00000000    0.00000000
     atom    2 type  1   force =     0.00000000    0.00000000    0.00000000

     Total force =     0.000000     Total SCF correction =     0.000000

     Writing all to output data dir ./gold.save/
 
     init_run     :      0.32s CPU      0.35s WALL (       1 calls)
     electrons    :      9.37s CPU      9.74s WALL (       1 calls)
     forces       :      0.03s CPU      0.03s WALL (       1 calls)

     Called by init_run:
     wfcinit      :      0.16s CPU      0.17s WALL (       1 calls)
     potinit      :      0.03s CPU      0.04s WALL (       1 calls)
     hinit0       :      0.12s CPU      0.13s WALL (       1 calls)

     Called by electrons:
     c_bands      :      8.66s CPU      8.92s WALL (      10 calls)
     sum_band     :      0.44s CPU      0.47s WALL (      10 calls)
     v_of_rho     :      0.01s CPU      0.01s WALL (      10 calls)
     newd         :      0.01s CPU      0.01s WALL (      10 calls)
     PAW_pot      :      0.26s CPU      0.34s WALL (      10 calls)
     mix_rho      :      0.00s CPU      0.00s WALL (      10 calls)

     Called by c_bands:
     init_us_2    :      0.03s CPU      0.04s WALL (    2090 calls)
     init_us_2:cp :      0.03s CPU      0.03s WALL (    2090 calls)
     cegterg      :      7.78s CPU      8.02s WALL (     950 calls)

     Called by *egterg:
     cdiaghg      :      3.56s CPU      3.66s WALL (    5720 calls)
     h_psi        :      2.79s CPU      2.90s WALL (    5910 calls)
     s_psi        :      0.05s CPU      0.05s WALL (    5910 calls)
     g_psi        :      0.01s CPU      0.01s WALL (    4865 calls)

     Called by h_psi:
     h_psi:calbec :      0.19s CPU      0.19s WALL (    5910 calls)
     vloc_psi     :      2.52s CPU      2.61s WALL (    5910 calls)
     add_vuspsi   :      0.07s CPU      0.07s WALL (    5910 calls)

     General routines
     calbec       :      0.23s CPU      0.24s WALL (    7240 calls)
     fft          :      0.01s CPU      0.01s WALL (     122 calls)
     ffts         :      0.00s CPU      0.00s WALL (      10 calls)
     fftw         :      2.70s CPU      2.80s WALL (  116596 calls)
 
     Parallel routines
 
     PWSCF        :     10.64s CPU     12.04s WALL

 
   This run was terminated on:   4:14:20  26Jan2024            

=------------------------------------------------------------------------------=
   JOB DONE.
=------------------------------------------------------------------------------=
