MPI startup(): Warning: I_MPI_PMI_LIBRARY will be ignored since the hydra process manager was found
MPI startup(): Warning: I_MPI_PMI_LIBRARY will be ignored since the hydra process manager was found
MPI startup(): Warning: I_MPI_PMI_LIBRARY will be ignored since the hydra process manager was found
MPI startup(): Warning: I_MPI_PMI_LIBRARY will be ignored since the hydra process manager was found
MPI startup(): Warning: I_MPI_PMI_LIBRARY will be ignored since the hydra process manager was found
MPI startup(): Warning: I_MPI_PMI_LIBRARY will be ignored since the hydra process manager was found
MPI startup(): Warning: I_MPI_PMI_LIBRARY will be ignored since the hydra process manager was found
MPI startup(): Warning: I_MPI_PMI_LIBRARY will be ignored since the hydra process manager was found
MPI startup(): Warning: I_MPI_PMI_LIBRARY will be ignored since the hydra process manager was found
MPI startup(): Warning: I_MPI_PMI_LIBRARY will be ignored since the hydra process manager was found
MPI startup(): Warning: I_MPI_PMI_LIBRARY will be ignored since the hydra process manager was found
MPI startup(): Warning: I_MPI_PMI_LIBRARY will be ignored since the hydra process manager was found
MPI startup(): Warning: I_MPI_PMI_LIBRARY will be ignored since the hydra process manager was found
MPI startup(): Warning: I_MPI_PMI_LIBRARY will be ignored since the hydra process manager was found
MPI startup(): Warning: I_MPI_PMI_LIBRARY will be ignored since the hydra process manager was found
MPI startup(): Warning: I_MPI_PMI_LIBRARY will be ignored since the hydra process manager was found
MPI startup(): Warning: I_MPI_PMI_LIBRARY will be ignored since the hydra process manager was found
MPI startup(): Warning: I_MPI_PMI_LIBRARY will be ignored since the hydra process manager was found
MPI startup(): Warning: I_MPI_PMI_LIBRARY will be ignored since the hydra process manager was found
MPI startup(): Warning: I_MPI_PMI_LIBRARY will be ignored since the hydra process manager was found

     Program PWSCF v.7.0 starts on 26Jan2024 at  4:13:37 

     This program is part of the open-source Quantum ESPRESSO suite
     for quantum simulation of materials; please cite
         "P. Giannozzi et al., J. Phys.:Condens. Matter 21 395502 (2009);
         "P. Giannozzi et al., J. Phys.:Condens. Matter 29 465901 (2017);
         "P. Giannozzi et al., J. Chem. Phys. 152 154105 (2020);
          URL http://www.quantum-espresso.org", 
     in publications or presentations arising from this work. More details at
     http://www.quantum-espresso.org/quote

     Parallel version (MPI), running on    20 processors

     MPI processes distributed on     1 nodes
     K-points division:     npool     =       2
     R & G space division:  proc/nbgrp/npool/nimage =      10
     78938 MiB available memory on the printing compute node when the environment starts
 
     Reading input from gold-6.5.in
Warning: card &CELL ignored
Warning: card / ignored

     Current dimensions of program PWSCF are:
     Max number of different atomic species (ntypx) = 10
     Max number of k-points (npk) =  40000
     Max angular momentum in pseudopotentials (lmaxx) =  4
     file Au.pbe-n-kjpaw_psl.1.0.0.UPF: wavefunction(s)  6S 5D renormalized
     Found identity + ( -0.5000 -0.5000 -0.5000) symmetry
     This is a supercell, fractional translations are disabled

     Subspace diagonalization in iterative solution of the eigenvalue problem:
     one sub-group per band group will be used
     scalapack distributed-memory algorithm (size of sub-group:  3*  3 procs)

 
     Parallelization info
     --------------------
     sticks:   dense  smooth     PW     G-vecs:    dense   smooth      PW
     Min          47      47     15                  660      660     120
     Max          48      48     16                  663      663     121
     Sum         475     475    155                 6603     6603    1205
 
     Using Slab Decomposition
 


     bravais-lattice index     =            3
     lattice parameter (alat)  =       6.5000  a.u.
     unit-cell volume          =     137.3125 (a.u.)^3
     number of atoms/cell      =            2
     number of atomic types    =            1
     number of electrons       =        22.00
     number of Kohn-Sham states=           15
     kinetic-energy cutoff     =      50.0000  Ry
     charge density cutoff     =     200.0000  Ry
     scf convergence threshold =      1.0E-09
     mixing beta               =       0.7000
     number of iterations used =            8  plain     mixing
     Exchange-correlation= SLA  PW   PBX  PBC
                           (   1   4   3   4   0   0   0)

     celldm(1)=   6.500000  celldm(2)=   0.000000  celldm(3)=   0.000000
     celldm(4)=   0.000000  celldm(5)=   0.000000  celldm(6)=   0.000000

     crystal axes: (cart. coord. in units of alat)
               a(1) = (   0.500000   0.500000   0.500000 )  
               a(2) = (  -0.500000   0.500000   0.500000 )  
               a(3) = (  -0.500000  -0.500000   0.500000 )  

     reciprocal axes: (cart. coord. in units 2 pi/alat)
               b(1) = (  1.000000  0.000000  1.000000 )  
               b(2) = ( -1.000000  1.000000  0.000000 )  
               b(3) = (  0.000000 -1.000000  1.000000 )  


     PseudoPot. # 1 for Au read from file:
     ./Au.pbe-n-kjpaw_psl.1.0.0.UPF
     MD5 check sum: 4db85c736373c707a97ce4c36c2a9d23
     Pseudo is Projector augmented-wave + core cor, Zval = 11.0
     Generated using &quot;atomic&quot; code by A. Dal Corso  v.6.3
     Shape of augmentation charge: PSQ
     Using radial grid of 1279 points,  6 beta functions with: 
                l(1) =   0
                l(2) =   0
                l(3) =   1
                l(4) =   1
                l(5) =   2
                l(6) =   2
     Q(r) pseudized with 0 coefficients 


     atomic species   valence    mass     pseudopotential
        Au            11.00   196.96657     Au( 1.00)

     12 Sym. Ops., with inversion, found



   Cartesian axes

     site n.     atom                  positions (alat units)
         1           Au  tau(   1) = (   0.0000000   0.0000000   0.0000000  )
         2           Au  tau(   2) = (  -0.2500000   0.2500000   0.7500000  )

     number of k points=   189  Gaussian smearing, width (Ry)=  0.0200

     Number of k-points >= 100: set verbosity='high' to print them.

     Dense  grid:     6603 G-vectors     FFT dimensions: (  25,  25,  25)

     Estimated max dynamical RAM per process >       4.36 MB

     Estimated total dynamical RAM >      85.50 MB

     Initial potential from superposition of free atoms

     starting charge      21.9998, renormalised to      22.0000
     Starting wfcs are   18 randomized atomic wfcs
     Checking if some PAW data can be deallocated... 

     total cpu time spent up to now is        1.3 secs

     Self-consistent Calculation

     iteration #  1     ecut=    50.00 Ry     beta= 0.70
     Davidson diagonalization with overlap
     ethr =  1.00E-02,  avg # of iterations =  7.6

     Threshold (ethr) on eigenvalues was too large:
     Diagonalizing with lowered threshold

     Davidson diagonalization with overlap
     ethr =  9.22E-04,  avg # of iterations =  5.0

     negative rho (up, down):  3.153E-06 0.000E+00

     total cpu time spent up to now is        3.3 secs

     total energy              =   -1543.33329007 Ry
     estimated scf accuracy    <       0.19840162 Ry

     iteration #  2     ecut=    50.00 Ry     beta= 0.70
     Davidson diagonalization with overlap
     ethr =  9.02E-04,  avg # of iterations =  2.2

     negative rho (up, down):  4.015E-03 0.000E+00

     total cpu time spent up to now is        3.9 secs

     total energy              =   -1543.37517275 Ry
     estimated scf accuracy    <       0.01290572 Ry

     iteration #  3     ecut=    50.00 Ry     beta= 0.70
     Davidson diagonalization with overlap
     ethr =  5.87E-05,  avg # of iterations =  6.1

     negative rho (up, down):  6.524E-03 0.000E+00

     total cpu time spent up to now is        5.0 secs

     total energy              =   -1543.38402390 Ry
     estimated scf accuracy    <       0.00167696 Ry

     iteration #  4     ecut=    50.00 Ry     beta= 0.70
     Davidson diagonalization with overlap
     c_bands:  1 eigenvalues not converged
     ethr =  7.62E-06,  avg # of iterations =  5.9

     negative rho (up, down):  6.329E-03 0.000E+00

     total cpu time spent up to now is        6.1 secs

     total energy              =   -1543.38474608 Ry
     estimated scf accuracy    <       0.00001442 Ry

     iteration #  5     ecut=    50.00 Ry     beta= 0.70
     Davidson diagonalization with overlap
     c_bands:  1 eigenvalues not converged
     c_bands:  1 eigenvalues not converged
     c_bands:  1 eigenvalues not converged
     ethr =  6.56E-08,  avg # of iterations =  9.6

     negative rho (up, down):  6.318E-03 0.000E+00

     total cpu time spent up to now is        7.7 secs

     total energy              =   -1543.38482141 Ry
     estimated scf accuracy    <       0.00000508 Ry

     iteration #  6     ecut=    50.00 Ry     beta= 0.70
     Davidson diagonalization with overlap
     c_bands:  1 eigenvalues not converged
     ethr =  2.31E-08,  avg # of iterations =  2.5

     negative rho (up, down):  6.301E-03 0.000E+00

     total cpu time spent up to now is        8.3 secs

     total energy              =   -1543.38482253 Ry
     estimated scf accuracy    <       0.00000015 Ry

     iteration #  7     ecut=    50.00 Ry     beta= 0.70
     Davidson diagonalization with overlap
     ethr =  7.03E-10,  avg # of iterations =  6.4

     negative rho (up, down):  6.298E-03 0.000E+00

     total cpu time spent up to now is        9.5 secs

     total energy              =   -1543.38482272 Ry
     estimated scf accuracy    <          5.1E-09 Ry

     iteration #  8     ecut=    50.00 Ry     beta= 0.70
     Davidson diagonalization with overlap
     ethr =  2.33E-11,  avg # of iterations =  6.6

     negative rho (up, down):  6.297E-03 0.000E+00

     total cpu time spent up to now is       10.6 secs

     End of self-consistent calculation

     Number of k-points >= 100: set verbosity='high' to print the bands.

     the Fermi energy is    35.5032 ev

!    total energy              =   -1543.38482273 Ry

     total all-electron energy =    -76041.077005 Ry
     estimated scf accuracy    <          7.3E-10 Ry
     smearing contrib. (-TS)   =      -0.00088940 Ry
     internal energy E=F+TS    =   -1543.38393333 Ry

     The total energy is F=E-TS. E is the sum of the following terms:
     one-electron contribution =      43.20515754 Ry
     hartree contribution      =      17.72308877 Ry
     xc contribution           =     -67.57509328 Ry
     ewald contribution        =    -150.41980742 Ry
     one-center paw contrib.   =   -1386.31727892 Ry

     convergence has been achieved in   8 iterations

     negative rho (up, down):  6.297E-03 0.000E+00

     Forces acting on atoms (cartesian axes, Ry/au):

     atom    1 type  1   force =     0.00000000    0.00000000    0.00000000
     atom    2 type  1   force =     0.00000000    0.00000000    0.00000000

     Total force =     0.000000     Total SCF correction =     0.000000

     Writing all to output data dir ./gold.save/
 
     init_run     :      0.40s CPU      0.44s WALL (       1 calls)
     electrons    :      8.98s CPU      9.32s WALL (       1 calls)
     forces       :      0.02s CPU      0.03s WALL (       1 calls)

     Called by init_run:
     wfcinit      :      0.16s CPU      0.17s WALL (       1 calls)
     potinit      :      0.02s CPU      0.03s WALL (       1 calls)
     hinit0       :      0.20s CPU      0.23s WALL (       1 calls)

     Called by electrons:
     c_bands      :      8.38s CPU      8.61s WALL (       9 calls)
     sum_band     :      0.37s CPU      0.39s WALL (       9 calls)
     v_of_rho     :      0.01s CPU      0.01s WALL (       9 calls)
     newd         :      0.01s CPU      0.01s WALL (       9 calls)
     PAW_pot      :      0.24s CPU      0.30s WALL (       9 calls)
     mix_rho      :      0.00s CPU      0.00s WALL (       9 calls)

     Called by c_bands:
     init_us_2    :      0.03s CPU      0.03s WALL (    1900 calls)
     init_us_2:cp :      0.03s CPU      0.03s WALL (    1900 calls)
     cegterg      :      7.36s CPU      7.59s WALL (     855 calls)

     Called by *egterg:
     cdiaghg      :      3.54s CPU      3.64s WALL (    5682 calls)
     h_psi        :      2.46s CPU      2.55s WALL (    5872 calls)
     s_psi        :      0.05s CPU      0.05s WALL (    5872 calls)
     g_psi        :      0.01s CPU      0.01s WALL (    4922 calls)

     Called by h_psi:
     h_psi:calbec :      0.18s CPU      0.18s WALL (    5872 calls)
     vloc_psi     :      2.21s CPU      2.28s WALL (    5872 calls)
     add_vuspsi   :      0.06s CPU      0.06s WALL (    5872 calls)

     General routines
     calbec       :      0.21s CPU      0.22s WALL (    7107 calls)
     fft          :      0.00s CPU      0.01s WALL (     111 calls)
     ffts         :      0.00s CPU      0.00s WALL (       9 calls)
     fftw         :      2.35s CPU      2.44s WALL (  110311 calls)
 
     Parallel routines
 
     PWSCF        :     10.20s CPU     11.63s WALL

 
   This run was terminated on:   4:13:49  26Jan2024            

=------------------------------------------------------------------------------=
   JOB DONE.
=------------------------------------------------------------------------------=
