MPI startup(): Warning: I_MPI_PMI_LIBRARY will be ignored since the hydra process manager was found
MPI startup(): Warning: I_MPI_PMI_LIBRARY will be ignored since the hydra process manager was found
MPI startup(): Warning: I_MPI_PMI_LIBRARY will be ignored since the hydra process manager was found
MPI startup(): Warning: I_MPI_PMI_LIBRARY will be ignored since the hydra process manager was found
MPI startup(): Warning: I_MPI_PMI_LIBRARY will be ignored since the hydra process manager was found
MPI startup(): Warning: I_MPI_PMI_LIBRARY will be ignored since the hydra process manager was found
MPI startup(): Warning: I_MPI_PMI_LIBRARY will be ignored since the hydra process manager was found
MPI startup(): Warning: I_MPI_PMI_LIBRARY will be ignored since the hydra process manager was found
MPI startup(): Warning: I_MPI_PMI_LIBRARY will be ignored since the hydra process manager was found
MPI startup(): Warning: I_MPI_PMI_LIBRARY will be ignored since the hydra process manager was found

     Program PWSCF v.7.0 starts on  6Apr2024 at 11:27: 0 

     This program is part of the open-source Quantum ESPRESSO suite
     for quantum simulation of materials; please cite
         "P. Giannozzi et al., J. Phys.:Condens. Matter 21 395502 (2009);
         "P. Giannozzi et al., J. Phys.:Condens. Matter 29 465901 (2017);
         "P. Giannozzi et al., J. Chem. Phys. 152 154105 (2020);
          URL http://www.quantum-espresso.org", 
     in publications or presentations arising from this work. More details at
     http://www.quantum-espresso.org/quote

     Parallel version (MPI), running on    10 processors

     MPI processes distributed on     1 nodes
     R & G space division:  proc/nbgrp/npool/nimage =      10
     229483 MiB available memory on the printing compute node when the environment starts
 
     Reading input from VolumeBCC_5.4.in
Warning: card &CELL ignored
Warning: card / ignored

     Current dimensions of program PWSCF are:
     Max number of different atomic species (ntypx) = 10
     Max number of k-points (npk) =  40000
     Max angular momentum in pseudopotentials (lmaxx) =  4
     file Au.pbe-n-kjpaw_psl.1.0.0.UPF: wavefunction(s)  6S 5D renormalized
     Found identity + ( -0.5000 -0.5000 -0.5000) symmetry
     This is a supercell, fractional translations are disabled
     Message from routine setup:
     using ibrav=0 with symmetry is DISCOURAGED, use correct ibrav instead

     Subspace diagonalization in iterative solution of the eigenvalue problem:
     one sub-group per band group will be used
     scalapack distributed-memory algorithm (size of sub-group:  3*  3 procs)

 
     Parallelization info
     --------------------
     sticks:   dense  smooth     PW     G-vecs:    dense   smooth      PW
     Min          46      46     14                  748      748     136
     Max          47      47     15                  751      751     137
     Sum         465     465    145                 7497     7497    1365
 
     Using Slab Decomposition
 


     bravais-lattice index     =            0
     lattice parameter (alat)  =       5.3992  a.u.
     unit-cell volume          =     157.3956 (a.u.)^3
     number of atoms/cell      =            2
     number of atomic types    =            1
     number of electrons       =        22.00
     number of Kohn-Sham states=           15
     kinetic-energy cutoff     =      50.0000  Ry
     charge density cutoff     =     200.0000  Ry
     scf convergence threshold =      1.0E-06
     mixing beta               =       0.7000
     number of iterations used =            8  plain     mixing
     Exchange-correlation= SLA  PW   PBX  PBC
                           (   1   4   3   4   0   0   0)

     celldm(1)=   5.399217  celldm(2)=   0.000000  celldm(3)=   0.000000
     celldm(4)=   0.000000  celldm(5)=   0.000000  celldm(6)=   0.000000

     crystal axes: (cart. coord. in units of alat)
               a(1) = (   1.000000   0.000000   0.000000 )  
               a(2) = (   0.000000   1.000000   0.000000 )  
               a(3) = (   0.000000   0.000000   1.000000 )  

     reciprocal axes: (cart. coord. in units 2 pi/alat)
               b(1) = (  1.000000  0.000000  0.000000 )  
               b(2) = (  0.000000  1.000000  0.000000 )  
               b(3) = (  0.000000  0.000000  1.000000 )  


     PseudoPot. # 1 for Au read from file:
     ./Au.pbe-n-kjpaw_psl.1.0.0.UPF
     MD5 check sum: 4db85c736373c707a97ce4c36c2a9d23
     Pseudo is Projector augmented-wave + core cor, Zval = 11.0
     Generated using &quot;atomic&quot; code by A. Dal Corso  v.6.3
     Shape of augmentation charge: PSQ
     Using radial grid of 1279 points,  6 beta functions with: 
                l(1) =   0
                l(2) =   0
                l(3) =   1
                l(4) =   1
                l(5) =   2
                l(6) =   2
     Q(r) pseudized with 0 coefficients 


     atomic species   valence    mass     pseudopotential
        Au            11.00   196.96657     Au( 1.00)

     48 Sym. Ops., with inversion, found



   Cartesian axes

     site n.     atom                  positions (alat units)
         1           Au  tau(   1) = (   0.0000000   0.0000000   0.0000000  )
         2           Au  tau(   2) = (   0.5000000   0.5000000   0.5000000  )

     number of k points=    84  Gaussian smearing, width (Ry)=  0.2000
                       cart. coord. in units 2pi/alat
        k(    1) = (   0.0000000   0.0000000   0.0000000), wk =   0.0011574
        k(    2) = (   0.0000000   0.0000000   0.0833333), wk =   0.0069444
        k(    3) = (   0.0000000   0.0000000   0.1666667), wk =   0.0069444
        k(    4) = (   0.0000000   0.0000000   0.2500000), wk =   0.0069444
        k(    5) = (   0.0000000   0.0000000   0.3333333), wk =   0.0069444
        k(    6) = (   0.0000000   0.0000000   0.4166667), wk =   0.0069444
        k(    7) = (   0.0000000   0.0000000  -0.5000000), wk =   0.0034722
        k(    8) = (   0.0000000   0.0833333   0.0833333), wk =   0.0138889
        k(    9) = (   0.0000000   0.0833333   0.1666667), wk =   0.0277778
        k(   10) = (   0.0000000   0.0833333   0.2500000), wk =   0.0277778
        k(   11) = (   0.0000000   0.0833333   0.3333333), wk =   0.0277778
        k(   12) = (   0.0000000   0.0833333   0.4166667), wk =   0.0277778
        k(   13) = (   0.0000000   0.0833333  -0.5000000), wk =   0.0138889
        k(   14) = (   0.0000000   0.1666667   0.1666667), wk =   0.0138889
        k(   15) = (   0.0000000   0.1666667   0.2500000), wk =   0.0277778
        k(   16) = (   0.0000000   0.1666667   0.3333333), wk =   0.0277778
        k(   17) = (   0.0000000   0.1666667   0.4166667), wk =   0.0277778
        k(   18) = (   0.0000000   0.1666667  -0.5000000), wk =   0.0138889
        k(   19) = (   0.0000000   0.2500000   0.2500000), wk =   0.0138889
        k(   20) = (   0.0000000   0.2500000   0.3333333), wk =   0.0277778
        k(   21) = (   0.0000000   0.2500000   0.4166667), wk =   0.0277778
        k(   22) = (   0.0000000   0.2500000  -0.5000000), wk =   0.0138889
        k(   23) = (   0.0000000   0.3333333   0.3333333), wk =   0.0138889
        k(   24) = (   0.0000000   0.3333333   0.4166667), wk =   0.0277778
        k(   25) = (   0.0000000   0.3333333  -0.5000000), wk =   0.0138889
        k(   26) = (   0.0000000   0.4166667   0.4166667), wk =   0.0138889
        k(   27) = (   0.0000000   0.4166667  -0.5000000), wk =   0.0138889
        k(   28) = (   0.0000000  -0.5000000  -0.5000000), wk =   0.0034722
        k(   29) = (   0.0833333   0.0833333   0.0833333), wk =   0.0092593
        k(   30) = (   0.0833333   0.0833333   0.1666667), wk =   0.0277778
        k(   31) = (   0.0833333   0.0833333   0.2500000), wk =   0.0277778
        k(   32) = (   0.0833333   0.0833333   0.3333333), wk =   0.0277778
        k(   33) = (   0.0833333   0.0833333   0.4166667), wk =   0.0277778
        k(   34) = (   0.0833333   0.0833333  -0.5000000), wk =   0.0138889
        k(   35) = (   0.0833333   0.1666667   0.1666667), wk =   0.0277778
        k(   36) = (   0.0833333   0.1666667   0.2500000), wk =   0.0555556
        k(   37) = (   0.0833333   0.1666667   0.3333333), wk =   0.0555556
        k(   38) = (   0.0833333   0.1666667   0.4166667), wk =   0.0555556
        k(   39) = (   0.0833333   0.1666667  -0.5000000), wk =   0.0277778
        k(   40) = (   0.0833333   0.2500000   0.2500000), wk =   0.0277778
        k(   41) = (   0.0833333   0.2500000   0.3333333), wk =   0.0555556
        k(   42) = (   0.0833333   0.2500000   0.4166667), wk =   0.0555556
        k(   43) = (   0.0833333   0.2500000  -0.5000000), wk =   0.0277778
        k(   44) = (   0.0833333   0.3333333   0.3333333), wk =   0.0277778
        k(   45) = (   0.0833333   0.3333333   0.4166667), wk =   0.0555556
        k(   46) = (   0.0833333   0.3333333  -0.5000000), wk =   0.0277778
        k(   47) = (   0.0833333   0.4166667   0.4166667), wk =   0.0277778
        k(   48) = (   0.0833333   0.4166667  -0.5000000), wk =   0.0277778
        k(   49) = (   0.0833333  -0.5000000  -0.5000000), wk =   0.0069444
        k(   50) = (   0.1666667   0.1666667   0.1666667), wk =   0.0092593
        k(   51) = (   0.1666667   0.1666667   0.2500000), wk =   0.0277778
        k(   52) = (   0.1666667   0.1666667   0.3333333), wk =   0.0277778
        k(   53) = (   0.1666667   0.1666667   0.4166667), wk =   0.0277778
        k(   54) = (   0.1666667   0.1666667  -0.5000000), wk =   0.0138889
        k(   55) = (   0.1666667   0.2500000   0.2500000), wk =   0.0277778
        k(   56) = (   0.1666667   0.2500000   0.3333333), wk =   0.0555556
        k(   57) = (   0.1666667   0.2500000   0.4166667), wk =   0.0555556
        k(   58) = (   0.1666667   0.2500000  -0.5000000), wk =   0.0277778
        k(   59) = (   0.1666667   0.3333333   0.3333333), wk =   0.0277778
        k(   60) = (   0.1666667   0.3333333   0.4166667), wk =   0.0555556
        k(   61) = (   0.1666667   0.3333333  -0.5000000), wk =   0.0277778
        k(   62) = (   0.1666667   0.4166667   0.4166667), wk =   0.0277778
        k(   63) = (   0.1666667   0.4166667  -0.5000000), wk =   0.0277778
        k(   64) = (   0.1666667  -0.5000000  -0.5000000), wk =   0.0069444
        k(   65) = (   0.2500000   0.2500000   0.2500000), wk =   0.0092593
        k(   66) = (   0.2500000   0.2500000   0.3333333), wk =   0.0277778
        k(   67) = (   0.2500000   0.2500000   0.4166667), wk =   0.0277778
        k(   68) = (   0.2500000   0.2500000  -0.5000000), wk =   0.0138889
        k(   69) = (   0.2500000   0.3333333   0.3333333), wk =   0.0277778
        k(   70) = (   0.2500000   0.3333333   0.4166667), wk =   0.0555556
        k(   71) = (   0.2500000   0.3333333  -0.5000000), wk =   0.0277778
        k(   72) = (   0.2500000   0.4166667   0.4166667), wk =   0.0277778
        k(   73) = (   0.2500000   0.4166667  -0.5000000), wk =   0.0277778
        k(   74) = (   0.2500000  -0.5000000  -0.5000000), wk =   0.0069444
        k(   75) = (   0.3333333   0.3333333   0.3333333), wk =   0.0092593
        k(   76) = (   0.3333333   0.3333333   0.4166667), wk =   0.0277778
        k(   77) = (   0.3333333   0.3333333  -0.5000000), wk =   0.0138889
        k(   78) = (   0.3333333   0.4166667   0.4166667), wk =   0.0277778
        k(   79) = (   0.3333333   0.4166667  -0.5000000), wk =   0.0277778
        k(   80) = (   0.3333333  -0.5000000  -0.5000000), wk =   0.0069444
        k(   81) = (   0.4166667   0.4166667   0.4166667), wk =   0.0092593
        k(   82) = (   0.4166667   0.4166667  -0.5000000), wk =   0.0138889
        k(   83) = (   0.4166667  -0.5000000  -0.5000000), wk =   0.0069444
        k(   84) = (  -0.5000000  -0.5000000  -0.5000000), wk =   0.0011574

     Dense  grid:     7497 G-vectors     FFT dimensions: (  25,  25,  25)

     Estimated max dynamical RAM per process >       5.64 MB

     Estimated total dynamical RAM >      56.45 MB

     Initial potential from superposition of free atoms

     starting charge      21.9998, renormalised to      22.0000
     Starting wfcs are   18 randomized atomic wfcs
     Checking if some PAW data can be deallocated... 

     total cpu time spent up to now is        1.4 secs

     Self-consistent Calculation

     iteration #  1     ecut=    50.00 Ry     beta= 0.70
     Davidson diagonalization with overlap
     ethr =  1.00E-02,  avg # of iterations =  5.2

     Threshold (ethr) on eigenvalues was too large:
     Diagonalizing with lowered threshold

     Davidson diagonalization with overlap
     ethr =  1.95E-04,  avg # of iterations =  6.2

     total cpu time spent up to now is        3.5 secs

     total energy              =   -1549.92855477 Ry
     estimated scf accuracy    <       0.06211808 Ry

     iteration #  2     ecut=    50.00 Ry     beta= 0.70
     Davidson diagonalization with overlap
     ethr =  2.82E-04,  avg # of iterations =  2.0

     total cpu time spent up to now is        4.1 secs

     total energy              =   -1549.94206924 Ry
     estimated scf accuracy    <       0.00259689 Ry

     iteration #  3     ecut=    50.00 Ry     beta= 0.70
     Davidson diagonalization with overlap
     c_bands:  1 eigenvalues not converged
     c_bands:  1 eigenvalues not converged
     c_bands:  1 eigenvalues not converged
     ethr =  1.18E-05,  avg # of iterations =  7.2

     total cpu time spent up to now is        5.3 secs

     total energy              =   -1549.94348107 Ry
     estimated scf accuracy    <       0.00057434 Ry

     iteration #  4     ecut=    50.00 Ry     beta= 0.70
     Davidson diagonalization with overlap
     c_bands:  1 eigenvalues not converged
     ethr =  2.61E-06,  avg # of iterations =  5.1

     total cpu time spent up to now is        6.2 secs

     total energy              =   -1549.94358277 Ry
     estimated scf accuracy    <       0.00027249 Ry

     iteration #  5     ecut=    50.00 Ry     beta= 0.70
     Davidson diagonalization with overlap
     ethr =  1.24E-06,  avg # of iterations =  2.1

     total cpu time spent up to now is        6.8 secs

     total energy              =   -1549.94360730 Ry
     estimated scf accuracy    <       0.00003055 Ry

     iteration #  6     ecut=    50.00 Ry     beta= 0.70
     Davidson diagonalization with overlap
     ethr =  1.39E-07,  avg # of iterations =  5.1

     total cpu time spent up to now is        7.8 secs

     total energy              =   -1549.94363149 Ry
     estimated scf accuracy    <       0.00000470 Ry

     iteration #  7     ecut=    50.00 Ry     beta= 0.70
     Davidson diagonalization with overlap
     ethr =  2.14E-08,  avg # of iterations =  2.9

     total cpu time spent up to now is        8.5 secs

     total energy              =   -1549.94363176 Ry
     estimated scf accuracy    <       0.00000116 Ry

     iteration #  8     ecut=    50.00 Ry     beta= 0.70
     Davidson diagonalization with overlap
     ethr =  5.26E-09,  avg # of iterations =  2.9

     total cpu time spent up to now is        9.3 secs

     End of self-consistent calculation

          k = 0.0000 0.0000 0.0000 (   925 PWs)   bands (ev):

    11.9271  15.0287  15.0287  18.8513  18.8513  18.8513  22.3127  22.3127
    24.6754  24.6754  24.6754  33.6083  33.6083  33.6083  41.8557

          k = 0.0000 0.0000 0.0833 (   932 PWs)   bands (ev):

    12.1136  15.1211  15.1719  18.8546  18.8546  18.9307  22.1355  22.3797
    24.3099  24.3099  24.5468  32.7194  34.1818  34.1818  42.6020

          k = 0.0000 0.0000 0.1667 (   936 PWs)   bands (ev):

    12.6576  15.3966  15.5726  18.8773  18.8773  19.1663  21.6342  22.5688
    23.4374  23.4374  24.1785  30.7949  35.6720  35.6720  43.5263

          k = 0.0000 0.0000 0.2500 (   932 PWs)   bands (ev):

    13.5099  15.8478  16.1329  18.9535  18.9535  19.5500  20.8864  22.4063
    22.4063  22.8464  23.6175  28.6568  37.7105  37.7106  43.2408

          k = 0.0000 0.0000 0.3333 (   932 PWs)   bands (ev):

    14.5751  16.4617  16.6670  19.1264  19.1264  19.9881  20.0676  21.4228
    21.4228  22.9268  23.1712  26.6817  40.0523  40.0523  42.4418

          k = 0.0000 0.0000 0.4167 (   932 PWs)   bands (ev):

    15.6826  16.8936  17.2183  19.0305  19.4373  19.4373  20.5807  20.5807
    20.6983  22.1721  23.5450  25.1148  41.8692  42.5286  42.5293

          k = 0.0000 0.0000-0.5000 (   916 PWs)   bands (ev):

    16.5546  16.5547  18.0883  18.0884  19.9171  19.9171  19.9172  19.9172
    21.4127  21.4129  24.1055  24.1057  41.9358  41.9359  44.9431

          k = 0.0000 0.0833 0.0833 (   941 PWs)   bands (ev):

    12.2950  15.2333  15.2927  18.6912  18.8505  19.1781  22.1055  22.3259
    23.7172  23.9451  24.7265  33.2411  33.3104  34.6704  43.4000

          k = 0.0000 0.0833 0.1667 (   947 PWs)   bands (ev):

    12.8222  15.5041  15.6876  18.5789  18.8541  19.5516  21.7086  22.4832
    22.7706  23.0889  24.5874  31.3149  34.6896  35.9949  44.3555

          k = 0.0000 0.0833 0.2500 (   939 PWs)   bands (ev):

    13.6407  15.9294  16.2484  18.5654  18.8965  20.0271  21.0630  21.7559
    22.1126  22.7734  24.1421  29.1204  36.5424  37.8861  44.0524

          k = 0.0000 0.0833 0.3333 (   932 PWs)   bands (ev):

    14.6472  16.4756  16.7916  18.6772  18.9560  20.3669  20.6042  20.8103
    21.2554  23.1146  23.5041  27.0532  38.4561  40.1210  43.4952

          k = 0.0000 0.0833 0.4167 (   926 PWs)   bands (ev):

    15.6737  16.8218  17.3173  18.7311  18.9423  20.0080  20.0309  20.6434
    21.2718  22.7678  23.5224  25.3439  39.9497  42.0706  42.5305

          k = 0.0000 0.0833-0.5000 (   926 PWs)   bands (ev):

    16.4864  16.4864  18.0532  18.0533  19.3826  19.3827  20.2422  20.2423
    22.0057  22.0057  24.1771  24.1772  40.9115  40.9116  44.4153

          k = 0.0000 0.1667 0.1667 (   941 PWs)   bands (ev):

    13.2925  15.7456  16.0751  18.2739  18.8248  20.1243  21.7494  21.7628
    22.3046  22.3771  24.8677  32.3540  32.8587  36.9445  44.3038

          k = 0.0000 0.1667 0.2500 (   934 PWs)   bands (ev):

    13.9939  16.0557  16.6680  18.0911  18.8599  20.7367  20.7718  21.4478
    21.4945  22.5898  24.7669  30.2018  34.3246  38.4446  43.7908

          k = 0.0000 0.1667 0.3333 (   934 PWs)   bands (ev):

    14.7993  16.3504  17.2971  18.0621  18.9443  19.8352  20.9534  21.0329
    21.4800  22.9546  24.3495  27.9313  36.0302  40.3643  42.1647

          k = 0.0000 0.1667 0.4167 (   937 PWs)   bands (ev):

    15.5550  16.4255  17.8651  18.2111  18.8409  19.0990  20.8165  20.8632
    22.2314  23.4534  23.7264  25.9199  37.5779  40.4366  42.5568

          k = 0.0000 0.1667-0.5000 (   924 PWs)   bands (ev):

    16.1347  16.1347  18.4111  18.4112  18.5549  18.5550  20.8729  20.8729
    22.9962  22.9963  24.3768  24.3770  38.9609  38.9609  43.3236

          k = 0.0000 0.2500 0.2500 (   927 PWs)   bands (ev):

    14.4598  16.1294  17.3422  17.7454  19.0376  19.7601  20.9676  21.5758
    21.7208  22.4842  25.0646  30.7012  32.8048  39.4396  42.3206

          k = 0.0000 0.2500 0.3333 (   933 PWs)   bands (ev):

    14.9094  16.0891  17.5700  18.0980  18.9220  19.4254  20.8112  21.6513
    22.4000  22.7374  24.9824  28.7771  33.8440  40.4451  40.8722

          k = 0.0000 0.2500 0.4167 (   941 PWs)   bands (ev):

    15.2889  15.9030  17.5904  18.2681  18.7752  19.6073  21.0733  21.6224
    23.2103  23.3359  24.5809  26.5567  35.3369  38.5565  41.9814

          k = 0.0000 0.2500-0.5000 (   944 PWs)   bands (ev):

    15.6189  15.6189  17.8216  17.8216  19.3133  19.3134  21.4670  21.4671
    23.9598  23.9598  24.6358  24.6359  36.8760  36.8760  41.9647

          k = 0.0000 0.3333 0.3333 (   946 PWs)   bands (ev):

    14.9548  15.7495  17.2566  18.1646  19.0382  20.3194  20.9597  22.0208
    22.6386  23.2938  25.2662  28.5161  32.9261  38.5256  41.7277

          k = 0.0000 0.3333 0.4167 (   937 PWs)   bands (ev):

    15.0158  15.4175  17.1498  17.6052  19.9098  20.8544  21.3875  22.1724
    23.1602  24.1027  25.1741  26.7951  33.6449  36.6313  40.7263

          k = 0.0000 0.3333-0.5000 (   940 PWs)   bands (ev):

    15.1632  15.1632  17.2645  17.2645  20.5560  20.5561  21.9100  21.9100
    24.7576  24.7576  24.7804  24.7805  34.9811  34.9811  40.6958

          k = 0.0000 0.4167 0.4167 (   938 PWs)   bands (ev):

    14.8560  15.0567  16.9203  17.1489  21.0716  21.7376  21.8875  22.7859
    22.9788  24.8235  25.4171  26.0911  33.0688  34.9011  39.9645

          k = 0.0000 0.4167-0.5000 (   936 PWs)   bands (ev):

    14.8648  14.8648  16.9185  16.9185  21.8288  21.8289  22.2524  22.2525
    24.5663  24.5663  25.2870  25.2870  33.6235  33.6235  39.8054

          k = 0.0000-0.5000-0.5000 (   952 PWs)   bands (ev):

    14.7617  14.7618  16.8012  16.8012  22.1572  22.1572  22.8478  22.8480
    24.1676  24.1676  25.4730  25.4730  33.1299  33.1299  39.4846

          k = 0.0833 0.0833 0.0833 (   937 PWs)   bands (ev):

    12.4726  15.3785  15.3785  18.6810  18.6810  19.4346  22.1842  22.1842
    22.9517  24.3632  24.3632  33.5311  33.8721  33.8721  44.2648

          k = 0.0833 0.0833 0.1667 (   941 PWs)   bands (ev):

    12.9867  15.6325  15.7817  18.5085  18.6593  19.8850  21.7849  21.9343
    22.4015  23.5026  24.4403  31.7822  34.7377  35.3190  44.5112

          k = 0.0833 0.0833 0.2500 (   936 PWs)   bands (ev):

    13.7779  16.0441  16.3331  18.4655  18.6424  20.4377  20.9507  21.2051
    22.4980  22.7097  24.1396  29.5775  36.2499  37.2672  44.4344

          k = 0.0833 0.0833 0.3333 (   931 PWs)   bands (ev):

    14.7356  16.5923  16.8109  18.5997  18.6099  20.1605  20.5876  21.0794
    21.5608  23.0668  23.5999  27.4696  37.8722  39.4388  43.2496

          k = 0.0833 0.0833 0.4167 (   933 PWs)   bands (ev):

    15.6953  16.8990  17.2390  18.4148  18.9171  19.6643  20.2017  20.8006
    21.7600  22.9765  23.5233  25.6618  39.2302  41.5633  41.5793

          k = 0.0833 0.0833-0.5000 (   928 PWs)   bands (ev):

    16.4747  16.4747  17.9044  17.9045  19.3113  19.3113  20.3020  20.3021
    22.3820  22.3820  24.3222  24.3224  40.2998  40.2998  43.2864

          k = 0.0833 0.1667 0.1667 (   941 PWs)   bands (ev):

    13.4554  15.9006  16.1398  18.2449  18.5612  20.4909  20.8962  21.8512
    22.3049  23.0302  24.5056  32.8925  32.9591  36.0376  44.4876

          k = 0.0833 0.1667 0.2500 (   934 PWs)   bands (ev):

    14.1491  16.2180  16.7098  18.0593  18.5505  19.9726  21.1915  21.5420
    22.1771  22.5485  24.4381  30.6355  34.3824  37.4984  43.7624

          k = 0.0833 0.1667 0.3333 (   934 PWs)   bands (ev):

    14.9309  16.5252  17.2455  18.0266  18.6269  19.3389  21.1105  21.4371
    21.9595  22.9359  24.0614  28.4055  35.9012  39.2831  42.0352

          k = 0.0833 0.1667 0.4167 (   934 PWs)   bands (ev):

    15.6479  16.5682  17.6229  18.0591  18.7631  19.0675  20.8503  21.0040
    22.5825  23.5129  23.5894  26.4091  37.3380  40.2330  41.0450

          k = 0.0833 0.1667-0.5000 (   934 PWs)   bands (ev):

    16.2179  16.2180  17.9382  17.9382  18.9079  18.9079  20.8510  20.8510
    23.0022  23.0023  24.7729  24.7729  38.7087  38.7088  42.3350

          k = 0.0833 0.2500 0.2500 (   933 PWs)   bands (ev):

    14.6343  16.3021  17.3698  17.7156  18.6844  19.1431  21.5764  21.7632
    22.0659  22.4648  24.6811  31.2493  32.7568  38.3596  42.3308

          k = 0.0833 0.2500 0.3333 (   934 PWs)   bands (ev):

    15.0826  16.2505  17.5450  18.0118  18.6432  19.0507  21.2037  21.6612
    22.6710  23.0052  24.5697  29.3196  33.7881  39.5529  40.4081

          k = 0.0833 0.2500 0.4167 (   938 PWs)   bands (ev):

    15.4362  16.0381  17.5501  17.9547  18.9297  19.3852  21.2332  21.5470
    22.9885  24.0819  24.1159  27.2160  35.2239  38.4615  40.7272

          k = 0.0833 0.2500-0.5000 (   930 PWs)   bands (ev):

    15.7454  15.7454  17.7040  17.7040  19.3148  19.3149  21.4567  21.4567
    23.4865  23.4865  25.4460  25.4461  36.7483  36.7483  41.4172

          k = 0.0833 0.3333 0.3333 (   938 PWs)   bands (ev):

    15.1387  15.8930  17.2403  17.9847  19.0071  19.8689  21.2159  21.9940
    22.6422  23.9268  24.7696  29.2017  32.8155  38.4763  40.0195

          k = 0.0833 0.3333 0.4167 (   936 PWs)   bands (ev):

    15.1858  15.5560  17.1377  17.5343  19.8575  20.5444  21.5133  22.0645
    22.9371  24.5065  24.9167  27.6731  33.5375  36.5500  40.3884

          k = 0.0833 0.3333-0.5000 (   938 PWs)   bands (ev):

    15.3133  15.3133  17.2402  17.2402  20.4467  20.4468  21.9111  21.9111
    23.7558  23.7559  26.1011  26.1012  34.8787  34.8787  40.4963

          k = 0.0833 0.4167 0.4167 (   941 PWs)   bands (ev):

    15.0288  15.2072  16.9183  17.1333  20.9482  21.7200  21.8297  22.3940
    22.7936  24.4204  25.7310  27.3521  32.9369  34.8031  40.0075

          k = 0.0833 0.4167-0.5000 (   938 PWs)   bands (ev):

    15.0290  15.0290  16.9174  16.9174  21.7368  21.7369  22.1994  22.1995
    23.6507  23.6508  26.5331  26.5331  33.5030  33.5030  39.8023

          k = 0.0833-0.5000-0.5000 (   952 PWs)   bands (ev):

    14.9307  14.9308  16.8051  16.8051  22.2065  22.2066  22.8550  22.8552
    23.0961  23.0961  26.6736  26.6736  32.9936  32.9936  39.5451

          k = 0.1667 0.1667 0.1667 (   943 PWs)   bands (ev):

    13.9151  16.3281  16.3281  18.1700  18.1700  19.8527  21.2123  22.0963
    22.0963  23.6715  23.6715  33.1489  34.2438  34.2438  44.5031

          k = 0.1667 0.1667 0.2500 (   932 PWs)   bands (ev):

    14.5739  16.6204  16.8740  17.9623  18.0753  19.0004  21.7824  22.0478
    22.4400  22.7386  23.8905  31.5902  34.2648  35.9955  43.4962

          k = 0.1667 0.1667 0.3333 (   943 PWs)   bands (ev):

    15.2565  16.9801  17.0884  17.9762  18.0807  18.6941  21.4309  21.9264
    22.6790  23.0888  23.7137  29.4120  35.2480  37.8554  41.5224

          k = 0.1667 0.1667 0.4167 (   935 PWs)   bands (ev):

    15.8089  16.7332  17.3487  17.8534  18.5164  18.9302  21.1558  21.3558
    22.8944  23.3456  24.2360  27.3971  36.4594  39.5216  39.5944

          k = 0.1667 0.1667-0.5000 (   926 PWs)   bands (ev):

    16.2689  16.2689  17.6538  17.6538  18.9302  18.9303  21.0984  21.0984
    23.0538  23.0539  25.6624  25.6624  37.8500  37.8500  41.0296

          k = 0.1667 0.2500 0.2500 (   936 PWs)   bands (ev):

    15.1258  16.7944  17.4429  17.6425  18.0460  18.2390  21.9799  22.4014
    22.4208  23.0232  23.8603  32.5568  32.6654  36.2939  42.3654

          k = 0.1667 0.2500 0.3333 (   940 PWs)   bands (ev):

    15.5647  16.6698  17.5055  17.6529  18.3124  18.3767  21.8435  21.8997
    22.6604  23.8079  24.0649  30.4350  33.6814  37.5248  40.2708

          k = 0.1667 0.2500 0.4167 (   937 PWs)   bands (ev):

    15.8082  16.3315  17.5079  17.5829  18.8186  18.9648  21.6255  21.6615
    22.9122  23.4934  25.2419  28.4083  34.8873  38.1395  38.9095

          k = 0.1667 0.2500-0.5000 (   942 PWs)   bands (ev):

    16.0257  16.0257  17.5486  17.5486  19.1438  19.1439  21.5833  21.5833
    23.1433  23.1434  26.6666  26.6667  36.3443  36.3443  40.1596

          k = 0.1667 0.3333 0.3333 (   952 PWs)   bands (ev):

    15.6695  16.2412  17.2067  17.6896  18.8992  18.9796  21.7783  22.1102
    22.6466  23.9085  25.1443  30.6327  32.5331  37.9889  38.3290

          k = 0.1667 0.3333 0.4167 (   946 PWs)   bands (ev):

    15.6608  15.9001  17.1293  17.4418  19.6436  19.7358  21.8458  22.0991
    22.8432  23.6710  26.2691  29.1257  33.2726  36.3186  38.8141

          k = 0.1667 0.3333-0.5000 (   946 PWs)   bands (ev):

    15.7094  15.7094  17.2272  17.2272  20.0165  20.0166  22.0106  22.0106
    23.1996  23.1997  27.5619  27.5619  34.6050  34.6050  39.7185

          k = 0.1667 0.4167 0.4167 (   950 PWs)   bands (ev):

    15.5222  15.6109  16.9258  17.1387  20.5383  20.7442  22.0731  22.2995
    22.8135  23.5457  27.2372  29.0521  32.5813  34.5457  39.1076

          k = 0.1667 0.4167-0.5000 (   948 PWs)   bands (ev):

    15.4896  15.4896  16.9375  16.9375  21.0908  21.0909  22.2659  22.2660
    23.0858  23.0860  28.1994  28.1995  33.1872  33.1872  39.5987

          k = 0.1667-0.5000-0.5000 (   944 PWs)   bands (ev):

    15.4134  15.4134  16.8294  16.8294  21.7103  21.7103  22.3446  22.3447
    22.8745  22.8747  28.4428  28.4428  32.6206  32.6206  39.6217

          k = 0.2500 0.2500 0.2500 (   946 PWs)   bands (ev):

    15.7920  17.4253  17.5328  17.5328  17.5640  17.5640  22.2877  22.2877
    23.0258  23.0258  24.1245  32.5868  34.1779  34.1779  42.4029

          k = 0.2500 0.2500 0.3333 (   951 PWs)   bands (ev):

    16.1875  16.8055  17.5183  17.5985  17.6846  18.3237  22.1346  22.3859
    22.6140  23.2575  25.2655  31.4857  33.4791  35.8647  39.7351

          k = 0.2500 0.2500 0.4167 (   945 PWs)   bands (ev):

    16.1650  16.3853  17.5243  17.6079  18.3976  18.9110  21.9843  22.0199
    22.8626  23.1807  26.4825  29.5875  34.2235  37.3809  37.4733

          k = 0.2500 0.2500-0.5000 (   956 PWs)   bands (ev):

    16.1805  16.1805  17.5684  17.5684  18.9511  18.9512  21.9132  21.9133
    23.0204  23.0205  27.8941  27.8941  35.5393  35.5393  38.9279

          k = 0.2500 0.3333 0.3333 (   945 PWs)   bands (ev):

    16.4492  16.4782  17.1938  17.7816  18.0963  18.6856  22.3436  22.3546
    22.6380  23.1968  26.4636  32.2119  32.2914  35.9103  37.9944

          k = 0.2500 0.3333 0.4167 (   948 PWs)   bands (ev):

    16.2037  16.2980  17.2145  17.6105  18.8661  19.2478  22.2522  22.3146
    22.8209  23.1440  27.6627  30.5363  33.0374  35.9259  37.0514

          k = 0.2500 0.3333-0.5000 (   946 PWs)   bands (ev):

    16.1556  16.1556  17.3866  17.3866  19.3632  19.3633  22.2575  22.2576
    22.9846  22.9847  28.9795  28.9795  34.2316  34.2316  38.3980

          k = 0.2500 0.4167 0.4167 (   954 PWs)   bands (ev):

    16.0923  16.2532  16.9772  17.3265  19.6639  19.8577  22.3878  22.4813
    22.8370  23.0931  28.7542  30.8549  32.1097  34.2295  37.5976

          k = 0.2500 0.4167-0.5000 (   950 PWs)   bands (ev):

    16.1277  16.1277  17.0568  17.0568  20.0990  20.0990  22.4748  22.4749
    22.9427  22.9429  29.8513  29.8513  32.8329  32.8329  38.6740

          k = 0.2500-0.5000-0.5000 (   944 PWs)   bands (ev):

    16.1311  16.1311  16.9067  16.9067  20.4630  20.4630  22.5416  22.5417
    22.9014  22.9015  30.3159  30.3159  32.1074  32.1074  39.7093

          k = 0.3333 0.3333 0.3333 (   943 PWs)   bands (ev):

    16.3665  17.2453  17.2453  17.5550  18.3648  18.3648  22.6073  22.6073
    22.7598  22.7598  27.7349  31.9852  34.0044  34.0044  36.9152

          k = 0.3333 0.3333 0.4167 (   950 PWs)   bands (ev):

    16.3184  16.7753  17.3936  17.9927  18.3887  18.8939  22.5613  22.5671
    22.8153  22.9255  28.9374  31.4342  33.0661  35.1696  35.6865

          k = 0.3333 0.3333-0.5000 (   954 PWs)   bands (ev):

    16.4433  16.4433  17.6497  17.6497  18.9383  18.9384  22.5289  22.5291
    22.9207  22.9209  30.1690  30.1690  33.7249  33.7249  37.2833

          k = 0.3333 0.4167 0.4167 (   950 PWs)   bands (ev):

    16.4336  17.0358  17.1153  17.8275  18.7957  19.0816  22.6788  22.6965
    22.8550  22.9181  30.0388  31.6694  32.6956  33.9640  35.9186

          k = 0.3333 0.4167-0.5000 (   952 PWs)   bands (ev):

    16.6784  16.6784  17.4233  17.4233  19.1785  19.1785  22.7017  22.7018
    22.9177  22.9178  31.0382  31.0382  32.9041  32.9041  37.2167

          k = 0.3333-0.5000-0.5000 (   940 PWs)   bands (ev):

    16.9363  16.9363  17.0794  17.0794  19.3989  19.3989  22.7470  22.7471
    22.9283  22.9285  31.5855  31.5855  32.2258  32.2258  37.7945

          k = 0.4167 0.4167 0.4167 (   940 PWs)   bands (ev):

    16.7135  17.3789  17.3789  18.3692  18.3692  18.4490  22.8622  22.8622
    22.8676  22.8676  30.8711  31.3911  33.7392  34.5192  34.5192

          k = 0.4167 0.4167-0.5000 (   942 PWs)   bands (ev):

    17.0628  17.0628  17.7944  17.7945  18.5739  18.5739  22.8613  22.8614
    22.9256  22.9258  31.2347  31.2348  33.7631  33.7631  36.2616

          k = 0.4167-0.5000-0.5000 (   948 PWs)   bands (ev):

    17.3880  17.3880  17.6011  17.6011  18.5324  18.5324  22.9000  22.9002
    22.9482  22.9484  31.1947  31.1947  34.1178  34.1178  36.4226

          k =-0.5000-0.5000-0.5000 (   968 PWs)   bands (ev):

    17.8652  17.8652  17.8652  17.8653  17.8653  17.8653  22.9555  22.9555
    22.9556  22.9556  31.0493  31.0493  35.9193  35.9193  35.9194

     the Fermi energy is    27.1688 ev

!    total energy              =   -1549.94363200 Ry

     total all-electron energy =    -76047.635814 Ry
     estimated scf accuracy    <       0.00000007 Ry
     smearing contrib. (-TS)   =      -0.14658481 Ry
     internal energy E=F+TS    =   -1549.79704720 Ry

     The total energy is F=E-TS. E is the sum of the following terms:
     one-electron contribution =      54.46354858 Ry
     hartree contribution      =       9.39036036 Ry
     xc contribution           =     -65.22446017 Ry
     ewald contribution        =    -163.11520979 Ry
     one-center paw contrib.   =   -1385.31128618 Ry

     convergence has been achieved in   8 iterations

     Forces acting on atoms (cartesian axes, Ry/au):

     atom    1 type  1   force =     0.00000000    0.00000000    0.00000000
     atom    2 type  1   force =     0.00000000    0.00000000    0.00000000

     Total force =     0.000000     Total SCF correction =     0.000000

     Writing all to output data dir ./pwscf.save/
 
     init_run     :      0.25s CPU      0.27s WALL (       1 calls)
     electrons    :      7.63s CPU      7.87s WALL (       1 calls)
     forces       :      0.04s CPU      0.04s WALL (       1 calls)

     Called by init_run:
     wfcinit      :      0.18s CPU      0.18s WALL (       1 calls)
     potinit      :      0.04s CPU      0.04s WALL (       1 calls)
     hinit0       :      0.03s CPU      0.03s WALL (       1 calls)

     Called by electrons:
     c_bands      :      6.85s CPU      7.02s WALL (       9 calls)
     sum_band     :      0.50s CPU      0.51s WALL (       9 calls)
     v_of_rho     :      0.01s CPU      0.01s WALL (       9 calls)
     newd         :      0.01s CPU      0.01s WALL (       9 calls)
     PAW_pot      :      0.29s CPU      0.33s WALL (       9 calls)
     mix_rho      :      0.00s CPU      0.00s WALL (       9 calls)

     Called by c_bands:
     init_us_2    :      0.03s CPU      0.03s WALL (    1680 calls)
     init_us_2:cp :      0.03s CPU      0.03s WALL (    1680 calls)
     cegterg      :      6.72s CPU      6.89s WALL (     756 calls)

     Called by *egterg:
     cdiaghg      :      3.14s CPU      3.21s WALL (    3933 calls)
     h_psi        :      2.33s CPU      2.41s WALL (    4101 calls)
     s_psi        :      0.04s CPU      0.04s WALL (    4101 calls)
     g_psi        :      0.01s CPU      0.01s WALL (    3261 calls)

     Called by h_psi:
     h_psi:calbec :      0.16s CPU      0.16s WALL (    4101 calls)
     vloc_psi     :      2.11s CPU      2.18s WALL (    4101 calls)
     add_vuspsi   :      0.05s CPU      0.05s WALL (    4101 calls)

     General routines
     calbec       :      0.22s CPU      0.23s WALL (    5193 calls)
     fft          :      0.01s CPU      0.01s WALL (     111 calls)
     ffts         :      0.00s CPU      0.00s WALL (       9 calls)
     fftw         :      2.33s CPU      2.40s WALL (   84540 calls)
 
     Parallel routines
 
     PWSCF        :      8.80s CPU     10.15s WALL

 
   This run was terminated on:  11:27:10   6Apr2024            

=------------------------------------------------------------------------------=
   JOB DONE.
=------------------------------------------------------------------------------=
