MPI startup(): Warning: I_MPI_PMI_LIBRARY will be ignored since the hydra process manager was found
MPI startup(): Warning: I_MPI_PMI_LIBRARY will be ignored since the hydra process manager was found
MPI startup(): Warning: I_MPI_PMI_LIBRARY will be ignored since the hydra process manager was found
MPI startup(): Warning: I_MPI_PMI_LIBRARY will be ignored since the hydra process manager was found
MPI startup(): Warning: I_MPI_PMI_LIBRARY will be ignored since the hydra process manager was found
MPI startup(): Warning: I_MPI_PMI_LIBRARY will be ignored since the hydra process manager was found
MPI startup(): Warning: I_MPI_PMI_LIBRARY will be ignored since the hydra process manager was found
MPI startup(): Warning: I_MPI_PMI_LIBRARY will be ignored since the hydra process manager was found
MPI startup(): Warning: I_MPI_PMI_LIBRARY will be ignored since the hydra process manager was found
MPI startup(): Warning: I_MPI_PMI_LIBRARY will be ignored since the hydra process manager was found

     Program PWSCF v.7.0 starts on  6Apr2024 at 11:27:22 

     This program is part of the open-source Quantum ESPRESSO suite
     for quantum simulation of materials; please cite
         "P. Giannozzi et al., J. Phys.:Condens. Matter 21 395502 (2009);
         "P. Giannozzi et al., J. Phys.:Condens. Matter 29 465901 (2017);
         "P. Giannozzi et al., J. Chem. Phys. 152 154105 (2020);
          URL http://www.quantum-espresso.org", 
     in publications or presentations arising from this work. More details at
     http://www.quantum-espresso.org/quote

     Parallel version (MPI), running on    10 processors

     MPI processes distributed on     1 nodes
     R & G space division:  proc/nbgrp/npool/nimage =      10
     186106 MiB available memory on the printing compute node when the environment starts
 
     Reading input from VolumeBCC_9.9.in
Warning: card &CELL ignored
Warning: card / ignored

     Current dimensions of program PWSCF are:
     Max number of different atomic species (ntypx) = 10
     Max number of k-points (npk) =  40000
     Max angular momentum in pseudopotentials (lmaxx) =  4
     file Au.pbe-n-kjpaw_psl.1.0.0.UPF: wavefunction(s)  6S 5D renormalized
     Found identity + (  0.5000  0.5000  0.5000) symmetry
     This is a supercell, fractional translations are disabled
     Message from routine setup:
     using ibrav=0 with symmetry is DISCOURAGED, use correct ibrav instead

     Subspace diagonalization in iterative solution of the eigenvalue problem:
     one sub-group per band group will be used
     scalapack distributed-memory algorithm (size of sub-group:  3*  3 procs)

 
     Parallelization info
     --------------------
     sticks:   dense  smooth     PW     G-vecs:    dense   smooth      PW
     Min         156     156     44                 4628     4628     713
     Max         157     157     45                 4631     4631     716
     Sum        1565    1565    441                46297    46297    7153
 
     Using Slab Decomposition
 


     bravais-lattice index     =            0
     lattice parameter (alat)  =       9.8986  a.u.
     unit-cell volume          =     969.8773 (a.u.)^3
     number of atoms/cell      =            2
     number of atomic types    =            1
     number of electrons       =        22.00
     number of Kohn-Sham states=           15
     kinetic-energy cutoff     =      50.0000  Ry
     charge density cutoff     =     200.0000  Ry
     scf convergence threshold =      1.0E-06
     mixing beta               =       0.7000
     number of iterations used =            8  plain     mixing
     Exchange-correlation= SLA  PW   PBX  PBC
                           (   1   4   3   4   0   0   0)

     celldm(1)=   9.898565  celldm(2)=   0.000000  celldm(3)=   0.000000
     celldm(4)=   0.000000  celldm(5)=   0.000000  celldm(6)=   0.000000

     crystal axes: (cart. coord. in units of alat)
               a(1) = (   1.000000   0.000000   0.000000 )  
               a(2) = (   0.000000   1.000000   0.000000 )  
               a(3) = (   0.000000   0.000000   1.000000 )  

     reciprocal axes: (cart. coord. in units 2 pi/alat)
               b(1) = (  1.000000  0.000000  0.000000 )  
               b(2) = (  0.000000  1.000000  0.000000 )  
               b(3) = (  0.000000  0.000000  1.000000 )  


     PseudoPot. # 1 for Au read from file:
     ./Au.pbe-n-kjpaw_psl.1.0.0.UPF
     MD5 check sum: 4db85c736373c707a97ce4c36c2a9d23
     Pseudo is Projector augmented-wave + core cor, Zval = 11.0
     Generated using &quot;atomic&quot; code by A. Dal Corso  v.6.3
     Shape of augmentation charge: PSQ
     Using radial grid of 1279 points,  6 beta functions with: 
                l(1) =   0
                l(2) =   0
                l(3) =   1
                l(4) =   1
                l(5) =   2
                l(6) =   2
     Q(r) pseudized with 0 coefficients 


     atomic species   valence    mass     pseudopotential
        Au            11.00   196.96657     Au( 1.00)

     48 Sym. Ops., with inversion, found



   Cartesian axes

     site n.     atom                  positions (alat units)
         1           Au  tau(   1) = (   0.0000000   0.0000000   0.0000000  )
         2           Au  tau(   2) = (   0.5000000   0.5000000   0.5000000  )

     number of k points=    84  Gaussian smearing, width (Ry)=  0.2000
                       cart. coord. in units 2pi/alat
        k(    1) = (   0.0000000   0.0000000   0.0000000), wk =   0.0011574
        k(    2) = (   0.0000000   0.0000000   0.0833333), wk =   0.0069444
        k(    3) = (   0.0000000   0.0000000   0.1666667), wk =   0.0069444
        k(    4) = (   0.0000000   0.0000000   0.2500000), wk =   0.0069444
        k(    5) = (   0.0000000   0.0000000   0.3333333), wk =   0.0069444
        k(    6) = (   0.0000000   0.0000000   0.4166667), wk =   0.0069444
        k(    7) = (   0.0000000   0.0000000  -0.5000000), wk =   0.0034722
        k(    8) = (   0.0000000   0.0833333   0.0833333), wk =   0.0138889
        k(    9) = (   0.0000000   0.0833333   0.1666667), wk =   0.0277778
        k(   10) = (   0.0000000   0.0833333   0.2500000), wk =   0.0277778
        k(   11) = (   0.0000000   0.0833333   0.3333333), wk =   0.0277778
        k(   12) = (   0.0000000   0.0833333   0.4166667), wk =   0.0277778
        k(   13) = (   0.0000000   0.0833333  -0.5000000), wk =   0.0138889
        k(   14) = (   0.0000000   0.1666667   0.1666667), wk =   0.0138889
        k(   15) = (   0.0000000   0.1666667   0.2500000), wk =   0.0277778
        k(   16) = (   0.0000000   0.1666667   0.3333333), wk =   0.0277778
        k(   17) = (   0.0000000   0.1666667   0.4166667), wk =   0.0277778
        k(   18) = (   0.0000000   0.1666667  -0.5000000), wk =   0.0138889
        k(   19) = (   0.0000000   0.2500000   0.2500000), wk =   0.0138889
        k(   20) = (   0.0000000   0.2500000   0.3333333), wk =   0.0277778
        k(   21) = (   0.0000000   0.2500000   0.4166667), wk =   0.0277778
        k(   22) = (   0.0000000   0.2500000  -0.5000000), wk =   0.0138889
        k(   23) = (   0.0000000   0.3333333   0.3333333), wk =   0.0138889
        k(   24) = (   0.0000000   0.3333333   0.4166667), wk =   0.0277778
        k(   25) = (   0.0000000   0.3333333  -0.5000000), wk =   0.0138889
        k(   26) = (   0.0000000   0.4166667   0.4166667), wk =   0.0138889
        k(   27) = (   0.0000000   0.4166667  -0.5000000), wk =   0.0138889
        k(   28) = (   0.0000000  -0.5000000  -0.5000000), wk =   0.0034722
        k(   29) = (   0.0833333   0.0833333   0.0833333), wk =   0.0092593
        k(   30) = (   0.0833333   0.0833333   0.1666667), wk =   0.0277778
        k(   31) = (   0.0833333   0.0833333   0.2500000), wk =   0.0277778
        k(   32) = (   0.0833333   0.0833333   0.3333333), wk =   0.0277778
        k(   33) = (   0.0833333   0.0833333   0.4166667), wk =   0.0277778
        k(   34) = (   0.0833333   0.0833333  -0.5000000), wk =   0.0138889
        k(   35) = (   0.0833333   0.1666667   0.1666667), wk =   0.0277778
        k(   36) = (   0.0833333   0.1666667   0.2500000), wk =   0.0555556
        k(   37) = (   0.0833333   0.1666667   0.3333333), wk =   0.0555556
        k(   38) = (   0.0833333   0.1666667   0.4166667), wk =   0.0555556
        k(   39) = (   0.0833333   0.1666667  -0.5000000), wk =   0.0277778
        k(   40) = (   0.0833333   0.2500000   0.2500000), wk =   0.0277778
        k(   41) = (   0.0833333   0.2500000   0.3333333), wk =   0.0555556
        k(   42) = (   0.0833333   0.2500000   0.4166667), wk =   0.0555556
        k(   43) = (   0.0833333   0.2500000  -0.5000000), wk =   0.0277778
        k(   44) = (   0.0833333   0.3333333   0.3333333), wk =   0.0277778
        k(   45) = (   0.0833333   0.3333333   0.4166667), wk =   0.0555556
        k(   46) = (   0.0833333   0.3333333  -0.5000000), wk =   0.0277778
        k(   47) = (   0.0833333   0.4166667   0.4166667), wk =   0.0277778
        k(   48) = (   0.0833333   0.4166667  -0.5000000), wk =   0.0277778
        k(   49) = (   0.0833333  -0.5000000  -0.5000000), wk =   0.0069444
        k(   50) = (   0.1666667   0.1666667   0.1666667), wk =   0.0092593
        k(   51) = (   0.1666667   0.1666667   0.2500000), wk =   0.0277778
        k(   52) = (   0.1666667   0.1666667   0.3333333), wk =   0.0277778
        k(   53) = (   0.1666667   0.1666667   0.4166667), wk =   0.0277778
        k(   54) = (   0.1666667   0.1666667  -0.5000000), wk =   0.0138889
        k(   55) = (   0.1666667   0.2500000   0.2500000), wk =   0.0277778
        k(   56) = (   0.1666667   0.2500000   0.3333333), wk =   0.0555556
        k(   57) = (   0.1666667   0.2500000   0.4166667), wk =   0.0555556
        k(   58) = (   0.1666667   0.2500000  -0.5000000), wk =   0.0277778
        k(   59) = (   0.1666667   0.3333333   0.3333333), wk =   0.0277778
        k(   60) = (   0.1666667   0.3333333   0.4166667), wk =   0.0555556
        k(   61) = (   0.1666667   0.3333333  -0.5000000), wk =   0.0277778
        k(   62) = (   0.1666667   0.4166667   0.4166667), wk =   0.0277778
        k(   63) = (   0.1666667   0.4166667  -0.5000000), wk =   0.0277778
        k(   64) = (   0.1666667  -0.5000000  -0.5000000), wk =   0.0069444
        k(   65) = (   0.2500000   0.2500000   0.2500000), wk =   0.0092593
        k(   66) = (   0.2500000   0.2500000   0.3333333), wk =   0.0277778
        k(   67) = (   0.2500000   0.2500000   0.4166667), wk =   0.0277778
        k(   68) = (   0.2500000   0.2500000  -0.5000000), wk =   0.0138889
        k(   69) = (   0.2500000   0.3333333   0.3333333), wk =   0.0277778
        k(   70) = (   0.2500000   0.3333333   0.4166667), wk =   0.0555556
        k(   71) = (   0.2500000   0.3333333  -0.5000000), wk =   0.0277778
        k(   72) = (   0.2500000   0.4166667   0.4166667), wk =   0.0277778
        k(   73) = (   0.2500000   0.4166667  -0.5000000), wk =   0.0277778
        k(   74) = (   0.2500000  -0.5000000  -0.5000000), wk =   0.0069444
        k(   75) = (   0.3333333   0.3333333   0.3333333), wk =   0.0092593
        k(   76) = (   0.3333333   0.3333333   0.4166667), wk =   0.0277778
        k(   77) = (   0.3333333   0.3333333  -0.5000000), wk =   0.0138889
        k(   78) = (   0.3333333   0.4166667   0.4166667), wk =   0.0277778
        k(   79) = (   0.3333333   0.4166667  -0.5000000), wk =   0.0277778
        k(   80) = (   0.3333333  -0.5000000  -0.5000000), wk =   0.0069444
        k(   81) = (   0.4166667   0.4166667   0.4166667), wk =   0.0092593
        k(   82) = (   0.4166667   0.4166667  -0.5000000), wk =   0.0138889
        k(   83) = (   0.4166667  -0.5000000  -0.5000000), wk =   0.0069444
        k(   84) = (  -0.5000000  -0.5000000  -0.5000000), wk =   0.0011574

     Dense  grid:    46297 G-vectors     FFT dimensions: (  45,  45,  45)

     Estimated max dynamical RAM per process >      28.81 MB

     Estimated total dynamical RAM >     288.05 MB

     Initial potential from superposition of free atoms

     starting charge      21.9998, renormalised to      22.0000
     Starting wfcs are   18 randomized atomic wfcs
     Checking if some PAW data can be deallocated... 

     total cpu time spent up to now is        1.5 secs

     Self-consistent Calculation

     iteration #  1     ecut=    50.00 Ry     beta= 0.70
     Davidson diagonalization with overlap
     ethr =  1.00E-02,  avg # of iterations =  2.4

     Threshold (ethr) on eigenvalues was too large:
     Diagonalizing with lowered threshold

     Davidson diagonalization with overlap
     ethr =  7.93E-04,  avg # of iterations =  2.3

     total cpu time spent up to now is        4.5 secs

     total energy              =   -1550.11157736 Ry
     estimated scf accuracy    <       0.17386831 Ry

     iteration #  2     ecut=    50.00 Ry     beta= 0.70
     Davidson diagonalization with overlap
     ethr =  7.90E-04,  avg # of iterations =  2.1

     total cpu time spent up to now is        6.3 secs

     total energy              =   -1550.18125367 Ry
     estimated scf accuracy    <       0.16666059 Ry

     iteration #  3     ecut=    50.00 Ry     beta= 0.70
     Davidson diagonalization with overlap
     ethr =  7.58E-04,  avg # of iterations =  1.0

     total cpu time spent up to now is        7.6 secs

     total energy              =   -1550.20172189 Ry
     estimated scf accuracy    <       0.00894919 Ry

     iteration #  4     ecut=    50.00 Ry     beta= 0.70
     Davidson diagonalization with overlap
     ethr =  4.07E-05,  avg # of iterations =  2.5

     total cpu time spent up to now is        9.3 secs

     total energy              =   -1550.20149402 Ry
     estimated scf accuracy    <       0.00291977 Ry

     iteration #  5     ecut=    50.00 Ry     beta= 0.70
     Davidson diagonalization with overlap
     ethr =  1.33E-05,  avg # of iterations =  5.5

     total cpu time spent up to now is       12.2 secs

     total energy              =   -1550.19996455 Ry
     estimated scf accuracy    <       0.02116979 Ry

     iteration #  6     ecut=    50.00 Ry     beta= 0.70
     Davidson diagonalization with overlap
     ethr =  1.33E-05,  avg # of iterations =  2.9

     total cpu time spent up to now is       14.1 secs

     total energy              =   -1550.20388138 Ry
     estimated scf accuracy    <       0.00013063 Ry

     iteration #  7     ecut=    50.00 Ry     beta= 0.70
     Davidson diagonalization with overlap
     ethr =  5.94E-07,  avg # of iterations =  5.1

     total cpu time spent up to now is       16.8 secs

     total energy              =   -1550.20389372 Ry
     estimated scf accuracy    <       0.00013641 Ry

     iteration #  8     ecut=    50.00 Ry     beta= 0.70
     Davidson diagonalization with overlap
     ethr =  5.94E-07,  avg # of iterations =  4.9

     total cpu time spent up to now is       19.4 secs

     total energy              =   -1550.20400906 Ry
     estimated scf accuracy    <       0.00039263 Ry

     iteration #  9     ecut=    50.00 Ry     beta= 0.70
     Davidson diagonalization with overlap
     ethr =  5.94E-07,  avg # of iterations =  1.1

     total cpu time spent up to now is       20.7 secs

     total energy              =   -1550.20396767 Ry
     estimated scf accuracy    <       0.00019730 Ry

     iteration # 10     ecut=    50.00 Ry     beta= 0.70
     Davidson diagonalization with overlap
     ethr =  5.94E-07,  avg # of iterations =  1.0

     total cpu time spent up to now is       21.9 secs

     total energy              =   -1550.20392677 Ry
     estimated scf accuracy    <       0.00007625 Ry

     iteration # 11     ecut=    50.00 Ry     beta= 0.70
     Davidson diagonalization with overlap
     ethr =  3.47E-07,  avg # of iterations =  2.1

     total cpu time spent up to now is       23.6 secs

     total energy              =   -1550.20395633 Ry
     estimated scf accuracy    <       0.00000524 Ry

     iteration # 12     ecut=    50.00 Ry     beta= 0.70
     Davidson diagonalization with overlap
     ethr =  2.38E-08,  avg # of iterations =  4.9

     total cpu time spent up to now is       25.9 secs

     total energy              =   -1550.20395868 Ry
     estimated scf accuracy    <       0.00000303 Ry

     iteration # 13     ecut=    50.00 Ry     beta= 0.70
     Davidson diagonalization with overlap
     ethr =  1.38E-08,  avg # of iterations =  1.9

     total cpu time spent up to now is       27.2 secs

     total energy              =   -1550.20395760 Ry
     estimated scf accuracy    <       0.00000275 Ry

     iteration # 14     ecut=    50.00 Ry     beta= 0.70
     Davidson diagonalization with overlap
     ethr =  1.25E-08,  avg # of iterations =  1.7

     total cpu time spent up to now is       28.5 secs

     End of self-consistent calculation

          k = 0.0000 0.0000 0.0000 (  5743 PWs)   bands (ev):

    -3.2957  -3.2957  -3.2535  -3.2535  -3.2535  -3.1466  -3.1466  -3.0931
    -3.0931  -3.0931  -2.7178  -0.2539   4.1174   4.1174   4.1174

          k = 0.0000 0.0000 0.0833 (  5763 PWs)   bands (ev):

    -3.2930  -3.2905  -3.2519  -3.2519  -3.2507  -3.1490  -3.1460  -3.0972
    -3.0972  -3.0958  -2.6847  -0.3004   4.0409   4.1616   4.1616

          k = 0.0000 0.0000 0.1667 (  5790 PWs)   bands (ev):

    -3.2852  -3.2759  -3.2472  -3.2472  -3.2426  -3.1561  -3.1455  -3.1090
    -3.1090  -3.1037  -2.5854  -0.4389   3.8922   4.2931   4.2931

          k = 0.0000 0.0000 0.2500 (  5790 PWs)   bands (ev):

    -3.2729  -3.2543  -3.2391  -3.2391  -3.2298  -3.1674  -3.1473  -3.1267
    -3.1267  -3.1164  -2.4215  -0.6622   3.7970   4.5081   4.5081

          k = 0.0000 0.0000 0.3333 (  5774 PWs)   bands (ev):

    -3.2570  -3.2291  -3.2273  -3.2273  -3.2131  -3.1823  -3.1533  -3.1481
    -3.1481  -3.1329  -2.1978  -0.9513   3.8230   4.8004   4.8009

          k = 0.0000 0.0000 0.4167 (  5794 PWs)   bands (ev):

    -3.2387  -3.2116  -3.2116  -3.2039  -3.1999  -3.1937  -3.1708  -3.1708
    -3.1646  -3.1521  -1.9227  -1.2772   3.9888   4.7168   5.1617

          k = 0.0000 0.0000-0.5000 (  5750 PWs)   bands (ev):

    -3.2208  -3.2175  -3.1936  -3.1936  -3.1913  -3.1913  -3.1834  -3.1801
    -3.1740  -3.1717  -1.6096  -1.6094   4.2902   4.2906   5.5808

          k = 0.0000 0.0833 0.0833 (  5783 PWs)   bands (ev):

    -3.2893  -3.2867  -3.2564  -3.2510  -3.2421  -3.1497  -3.1467  -3.1076
    -3.1013  -3.0919  -2.6514  -0.3415   3.9007   4.2053   4.2709

          k = 0.0000 0.0833 0.1667 (  5771 PWs)   bands (ev):

    -3.2814  -3.2727  -3.2570  -3.2479  -3.2292  -3.1557  -3.1462  -3.1244
    -3.1129  -3.0941  -2.5519  -0.4660   3.7115   4.3351   4.4398

          k = 0.0000 0.0833 0.2500 (  5777 PWs)   bands (ev):

    -3.2697  -3.2530  -3.2515  -3.2419  -3.2129  -3.1660  -3.1471  -3.1454
    -3.1302  -3.1024  -2.3882  -0.6718   3.5947   4.5472   4.6658

          k = 0.0000 0.0833 0.3333 (  5788 PWs)   bands (ev):

    -3.2549  -3.2442  -3.2328  -3.2272  -3.1941  -3.1792  -3.1686  -3.1520
    -3.1505  -3.1158  -2.1655  -0.9451   3.6066   4.8354   4.9598

          k = 0.0000 0.0833 0.4167 (  5783 PWs)   bands (ev):

    -3.2383  -3.2308  -3.2224  -3.2042  -3.1927  -3.1918  -3.1736  -3.1701
    -3.1616  -3.1331  -1.8929  -1.2594   3.7628   4.4739   5.1916

          k = 0.0000 0.0833-0.5000 (  5806 PWs)   bands (ev):

    -3.2249  -3.2218  -3.2133  -3.2126  -3.1969  -3.1941  -3.1762  -3.1731
    -3.1532  -3.1525  -1.5843  -1.5841   4.0565   4.0567   5.6024

          k = 0.0000 0.1667 0.1667 (  5792 PWs)   bands (ev):

    -3.2729  -3.2643  -3.2613  -3.2488  -3.2108  -3.1569  -3.1471  -3.1466
    -3.1239  -3.0889  -2.4523  -0.5525   3.4389   4.4598   4.6726

          k = 0.0000 0.1667 0.2500 (  5790 PWs)   bands (ev):

    -3.2665  -3.2629  -3.2484  -3.2421  -3.1904  -3.1713  -3.1629  -3.1472
    -3.1395  -3.0903  -2.2898  -0.7083   3.2474   4.6633   4.9342

          k = 0.0000 0.1667 0.3333 (  5780 PWs)   bands (ev):

    -3.2632  -3.2520  -3.2454  -3.2198  -3.1965  -3.1720  -3.1689  -3.1563
    -3.1496  -3.0979  -2.0710  -0.9337   3.2001   4.4719   4.9389

          k = 0.0000 0.1667 0.4167 (  5785 PWs)   bands (ev):

    -3.2541  -3.2428  -3.2401  -3.2197  -3.2002  -3.1817  -3.1682  -3.1562
    -3.1477  -3.1108  -1.8064  -1.2115   3.3137   3.9711   5.2772

          k = 0.0000 0.1667-0.5000 (  5794 PWs)   bands (ev):

    -3.2395  -3.2394  -3.2392  -3.2366  -3.1911  -3.1880  -3.1675  -3.1644
    -3.1280  -3.1277  -1.5123  -1.5121   3.5774   3.5775   5.6638

          k = 0.0000 0.2500 0.2500 (  5764 PWs)   bands (ev):

    -3.2750  -3.2571  -3.2547  -3.2253  -3.1983  -3.1671  -3.1616  -3.1516
    -3.1474  -3.0846  -2.1312  -0.7908   2.9624   4.4570   4.8516

          k = 0.0000 0.2500 0.3333 (  5791 PWs)   bands (ev):

    -3.2775  -3.2593  -3.2531  -3.2238  -3.2053  -3.1648  -3.1617  -3.1480
    -3.1444  -3.0858  -1.9208  -0.9380   2.8236   3.9011   5.1050

          k = 0.0000 0.2500 0.4167 (  5802 PWs)   bands (ev):

    -3.2735  -3.2596  -3.2533  -3.2458  -3.1878  -3.1702  -3.1653  -3.1517
    -3.1238  -3.0933  -1.6721  -1.1504   2.8627   3.4292   5.4108

          k = 0.0000 0.2500-0.5000 (  5778 PWs)   bands (ev):

    -3.2628  -3.2627  -3.2579  -3.2552  -3.1787  -3.1756  -3.1610  -3.1578
    -3.1064  -3.1062  -1.4059  -1.4057   3.0730   3.0731   5.7525

          k = 0.0000 0.3333 0.3333 (  5788 PWs)   bands (ev):

    -3.2858  -3.2695  -3.2594  -3.2482  -3.1876  -3.1649  -3.1598  -3.1476
    -3.1222  -3.0804  -1.7263  -0.9877   2.5768   3.3749   5.3236

          k = 0.0000 0.3333 0.4167 (  5794 PWs)   bands (ev):

    -3.2870  -3.2745  -3.2677  -3.2672  -3.1724  -3.1629  -3.1601  -3.1489
    -3.1037  -3.0819  -1.5061  -1.1054   2.5127   2.9420   5.5797

          k = 0.0000 0.3333-0.5000 (  5806 PWs)   bands (ev):

    -3.2810  -3.2809  -3.2745  -3.2719  -3.1661  -3.1630  -3.1563  -3.1530
    -3.0899  -3.0899  -1.2878  -1.2875   2.6422   2.6422   5.8495

          k = 0.0000 0.4167 0.4167 (  5802 PWs)   bands (ev):

    -3.2936  -3.2837  -3.2835  -3.2785  -3.1599  -3.1589  -3.1560  -3.1475
    -3.0887  -3.0773  -1.3342  -1.1117   2.3298   2.5660   5.7614

          k = 0.0000 0.4167-0.5000 (  5810 PWs)   bands (ev):

    -3.2925  -3.2925  -3.2858  -3.2833  -3.1584  -3.1554  -3.1519  -3.1486
    -3.0797  -3.0797  -1.1915  -1.1912   2.3495   2.3495   5.9267

          k = 0.0000-0.5000-0.5000 (  5824 PWs)   bands (ev):

    -3.2965  -3.2965  -3.2898  -3.2873  -3.1566  -3.1535  -3.1495  -3.1461
    -3.0762  -3.0762  -1.1537  -1.1534   2.2449   2.2449   5.9566

          k = 0.0833 0.0833 0.0833 (  5800 PWs)   bands (ev):

    -3.2842  -3.2842  -3.2550  -3.2550  -3.2351  -3.1488  -3.1488  -3.1191
    -3.0961  -3.0961  -2.6180  -0.3782   3.9447   3.9447   4.5039

          k = 0.0833 0.0833 0.1667 (  5778 PWs)   bands (ev):

    -3.2772  -3.2700  -3.2585  -3.2506  -3.2221  -3.1549  -3.1472  -3.1381
    -3.1078  -3.0950  -2.5184  -0.4906   3.6813   4.0755   4.7471

          k = 0.0833 0.0833 0.2500 (  5777 PWs)   bands (ev):

    -3.2662  -3.2584  -3.2492  -3.2432  -3.2058  -3.1646  -3.1604  -3.1472
    -3.1254  -3.1003  -2.3551  -0.6808   3.5178   4.2895   5.0091

          k = 0.0833 0.0833 0.3333 (  5775 PWs)   bands (ev):

    -3.2536  -3.2522  -3.2330  -3.2260  -3.1878  -3.1829  -3.1765  -3.1505
    -3.1463  -3.1110  -2.1337  -0.9393   3.4989   4.5813   4.8292

          k = 0.0833 0.0833 0.4167 (  5788 PWs)   bands (ev):

    -3.2438  -3.2369  -3.2226  -3.2142  -3.1939  -3.1873  -3.1722  -3.1675
    -3.1551  -3.1261  -1.8637  -1.2423   3.6342   4.3181   4.9433

          k = 0.0833 0.0833-0.5000 (  5794 PWs)   bands (ev):

    -3.2297  -3.2288  -3.2251  -3.2220  -3.1860  -3.1835  -3.1800  -3.1773
    -3.1435  -3.1432  -1.5597  -1.5595   3.9131   3.9133   5.3660

          k = 0.0833 0.1667 0.1667 (  5791 PWs)   bands (ev):

    -3.2681  -3.2630  -3.2596  -3.2517  -3.2071  -3.1604  -3.1556  -3.1484
    -3.1147  -3.0930  -2.4190  -0.5699   3.4829   4.0516   5.0678

          k = 0.0833 0.1667 0.2500 (  5781 PWs)   bands (ev):

    -3.2669  -3.2585  -3.2489  -3.2408  -3.1891  -3.1842  -3.1615  -3.1476
    -3.1306  -3.0936  -2.2575  -0.7149   3.2736   4.2308   4.9624

          k = 0.0833 0.1667 0.3333 (  5779 PWs)   bands (ev):

    -3.2670  -3.2481  -3.2427  -3.2219  -3.2047  -3.1704  -3.1700  -3.1492
    -3.1478  -3.0998  -2.0405  -0.9287   3.2009   4.4023   4.5083

          k = 0.0833 0.1667 0.4167 (  5788 PWs)   bands (ev):

    -3.2618  -3.2409  -3.2352  -3.2299  -3.1944  -3.1786  -3.1653  -3.1617
    -3.1424  -3.1111  -1.7790  -1.1964   3.2926   3.9174   4.8612

          k = 0.0833 0.1667-0.5000 (  5782 PWs)   bands (ev):

    -3.2515  -3.2507  -3.2324  -3.2298  -3.1849  -3.1821  -3.1700  -3.1671
    -3.1264  -3.1263  -1.4898  -1.4895   3.5388   3.5390   5.2767

          k = 0.0833 0.2500 0.2500 (  5788 PWs)   bands (ev):

    -3.2737  -3.2549  -3.2520  -3.2245  -3.2091  -3.1686  -3.1597  -3.1480
    -3.1431  -3.0889  -2.1003  -0.7929   3.0072   4.3702   4.4125

          k = 0.0833 0.2500 0.3333 (  5791 PWs)   bands (ev):

    -3.2775  -3.2564  -3.2506  -3.2300  -3.2042  -3.1636  -3.1558  -3.1513
    -3.1437  -3.0898  -1.8924  -0.9332   2.8617   3.8816   4.6211

          k = 0.0833 0.2500 0.4167 (  5790 PWs)   bands (ev):

    -3.2768  -3.2593  -3.2532  -3.2407  -3.1860  -3.1686  -3.1630  -3.1534
    -3.1255  -3.0967  -1.6475  -1.1379   2.8876   3.4261   4.9505

          k = 0.0833 0.2500-0.5000 (  5782 PWs)   bands (ev):

    -3.2707  -3.2700  -3.2483  -3.2461  -3.1762  -3.1731  -3.1618  -3.1587
    -3.1090  -3.1089  -1.3866  -1.3863   3.0841   3.0841   5.3391

          k = 0.0833 0.3333 0.3333 (  5802 PWs)   bands (ev):

    -3.2842  -3.2666  -3.2628  -3.2438  -3.1875  -3.1615  -3.1586  -3.1478
    -3.1260  -3.0851  -1.7012  -0.9813   2.6227   3.3807   4.8439

          k = 0.0833 0.3333 0.4167 (  5793 PWs)   bands (ev):

    -3.2868  -3.2763  -3.2692  -3.2553  -3.1719  -3.1615  -3.1590  -3.1492
    -3.1081  -3.0867  -1.4854  -1.0951   2.5549   2.9635   5.1388

          k = 0.0833 0.3333-0.5000 (  5792 PWs)   bands (ev):

    -3.2848  -3.2843  -3.2658  -3.2637  -3.1648  -3.1617  -3.1565  -3.1533
    -3.0946  -3.0946  -1.2722  -1.2719   2.6755   2.6755   5.4768

          k = 0.0833 0.4167 0.4167 (  5805 PWs)   bands (ev):

    -3.2917  -3.2876  -3.2787  -3.2692  -3.1589  -3.1588  -3.1552  -3.1475
    -3.0941  -3.0828  -1.3178  -1.1017   2.3765   2.6015   5.3797

          k = 0.0833 0.4167-0.5000 (  5794 PWs)   bands (ev):

    -3.2925  -3.2922  -3.2794  -3.2771  -3.1576  -3.1545  -3.1520  -3.1486
    -3.0853  -3.0853  -1.1792  -1.1789   2.3933   2.3933   5.6216

          k = 0.0833-0.5000-0.5000 (  5796 PWs)   bands (ev):

    -3.2944  -3.2944  -3.2849  -3.2824  -3.1559  -3.1529  -3.1494  -3.1460
    -3.0821  -3.0821  -1.1427  -1.1424   2.2920   2.2920   5.6887

          k = 0.1667 0.1667 0.1667 (  5809 PWs)   bands (ev):

    -3.2591  -3.2591  -3.2547  -3.2547  -3.1966  -3.1837  -3.1524  -3.1524
    -3.1047  -3.1047  -2.3208  -0.6282   3.6141   3.6141   5.1772

          k = 0.1667 0.1667 0.2500 (  5796 PWs)   bands (ev):

    -3.2673  -3.2526  -3.2472  -3.2361  -3.2074  -3.1815  -3.1585  -3.1491
    -3.1219  -3.1004  -2.1623  -0.7413   3.2989   3.8291   4.6797

          k = 0.1667 0.1667 0.3333 (  5782 PWs)   bands (ev):

    -3.2725  -3.2437  -3.2384  -3.2350  -3.2093  -3.1674  -3.1657  -3.1455
    -3.1416  -3.1023  -1.9511  -0.9195   3.1516   4.1231   4.1726

          k = 0.1667 0.1667 0.4167 (  5787 PWs)   bands (ev):

    -3.2724  -3.2527  -3.2344  -3.2305  -3.1896  -3.1716  -3.1642  -3.1597
    -3.1358  -3.1099  -1.6994  -1.1557   3.1854   3.7270   4.4898

          k = 0.1667 0.1667-0.5000 (  5770 PWs)   bands (ev):

    -3.2660  -3.2654  -3.2298  -3.2270  -3.1746  -3.1723  -3.1720  -3.1695
    -3.1220  -3.1219  -1.4258  -1.4256   3.3865   3.3866   4.9212

          k = 0.1667 0.2500 0.2500 (  5791 PWs)   bands (ev):

    -3.2696  -3.2560  -3.2407  -3.2282  -3.2223  -3.1682  -3.1565  -3.1500
    -3.1290  -3.1009  -2.0100  -0.8045   3.1406   3.8090   4.2563

          k = 0.1667 0.2500 0.3333 (  5786 PWs)   bands (ev):

    -3.2761  -3.2547  -3.2519  -3.2303  -3.2024  -3.1610  -3.1557  -3.1442
    -3.1437  -3.1006  -1.8098  -0.9234   2.9661   3.7997   4.0491

          k = 0.1667 0.2500 0.4167 (  5786 PWs)   bands (ev):

    -3.2802  -3.2695  -3.2438  -3.2301  -3.1834  -3.1644  -3.1578  -3.1564
    -3.1288  -3.1052  -1.5764  -1.1043   2.9459   3.3950   4.3956

          k = 0.1667 0.2500-0.5000 (  5778 PWs)   bands (ev):

    -3.2786  -3.2780  -3.2364  -3.2338  -3.1709  -3.1680  -3.1632  -3.1603
    -3.1150  -3.1149  -1.3318  -1.3315   3.0970   3.0971   4.8147

          k = 0.1667 0.3333 0.3333 (  5795 PWs)   bands (ev):

    -3.2792  -3.2712  -3.2594  -3.2312  -3.1875  -3.1581  -3.1512  -3.1484
    -3.1348  -3.0982  -1.6284  -0.9656   2.7592   3.3831   4.2227

          k = 0.1667 0.3333 0.4167 (  5793 PWs)   bands (ev):

    -3.2841  -3.2821  -3.2578  -3.2389  -3.1716  -3.1583  -3.1551  -3.1504
    -3.1194  -3.0999  -1.4255  -1.0670   2.6782   3.0182   4.5245

          k = 0.1667 0.3333-0.5000 (  5802 PWs)   bands (ev):

    -3.2865  -3.2860  -3.2505  -3.2482  -3.1620  -3.1589  -3.1570  -3.1539
    -3.1072  -3.1071  -1.2280  -1.2278   2.7690   2.7690   4.9005

          k = 0.1667 0.4167 0.4167 (  5785 PWs)   bands (ev):

    -3.2886  -3.2858  -3.2668  -3.2522  -3.1593  -3.1560  -3.1530  -3.1475
    -3.1090  -3.0980  -1.2708  -1.0739   2.5156   2.7034   4.7730

          k = 0.1667 0.4167-0.5000 (  5800 PWs)   bands (ev):

    -3.2889  -3.2886  -3.2647  -3.2624  -3.1555  -3.1524  -3.1521  -3.1487
    -3.1012  -3.1012  -1.1443  -1.1440   2.5226   2.5226   5.0630

          k = 0.1667-0.5000-0.5000 (  5812 PWs)   bands (ev):

    -3.2881  -3.2881  -3.2715  -3.2690  -3.1542  -3.1511  -3.1492  -3.1458
    -3.0990  -3.0990  -1.1117  -1.1114   2.4320   2.4320   5.1561

          k = 0.2500 0.2500 0.2500 (  5809 PWs)   bands (ev):

    -3.2626  -3.2626  -3.2516  -3.2196  -3.2196  -3.1614  -3.1530  -3.1530
    -3.1181  -3.1181  -1.8663  -0.8410   3.3595   3.3595   3.9698

          k = 0.2500 0.2500 0.3333 (  5796 PWs)   bands (ev):

    -3.2725  -3.2682  -3.2527  -3.2178  -3.1994  -3.1564  -3.1557  -3.1447
    -3.1366  -3.1128  -1.6799  -0.9225   3.0705   3.6130   3.6591

          k = 0.2500 0.2500 0.4167 (  5781 PWs)   bands (ev):

    -3.2806  -3.2791  -3.2405  -3.2199  -3.1808  -3.1593  -3.1581  -3.1513
    -3.1314  -3.1136  -1.4670  -1.0617   2.9679   3.2810   4.0336

          k = 0.2500 0.2500-0.5000 (  5784 PWs)   bands (ev):

    -3.2835  -3.2830  -3.2295  -3.2269  -3.1678  -3.1653  -3.1602  -3.1572
    -3.1203  -3.1200  -1.2514  -1.2512   3.0485   3.0486   4.4762

          k = 0.2500 0.3333 0.3333 (  5796 PWs)   bands (ev):

    -3.2794  -3.2707  -3.2549  -3.2131  -3.1886  -3.1552  -3.1494  -3.1432
    -3.1415  -3.1165  -1.5150  -0.9516   2.9830   3.3401   3.6881

          k = 0.2500 0.3333 0.4167 (  5794 PWs)   bands (ev):

    -3.2849  -3.2776  -3.2465  -3.2202  -3.1731  -3.1552  -3.1523  -3.1496
    -3.1322  -3.1174  -1.3342  -1.0304   2.8675   3.0720   3.9970

          k = 0.2500 0.3333-0.5000 (  5806 PWs)   bands (ev):

    -3.2842  -3.2838  -3.2342  -3.2318  -3.1616  -3.1590  -3.1555  -3.1524
    -3.1228  -3.1224  -1.1635  -1.1633   2.8966   2.8967   4.4094

          k = 0.2500 0.4167 0.4167 (  5797 PWs)   bands (ev):

    -3.2853  -3.2756  -3.2520  -3.2313  -3.1613  -3.1532  -3.1497  -3.1476
    -3.1296  -3.1194  -1.2003  -1.0353   2.7433   2.8555   4.2114

          k = 0.2500 0.4167-0.5000 (  5798 PWs)   bands (ev):

    -3.2807  -3.2805  -3.2460  -3.2437  -3.1530  -3.1528  -3.1499  -3.1496
    -3.1237  -3.1235  -1.0933  -1.0930   2.7301   2.7301   4.5283

          k = 0.2500-0.5000-0.5000 (  5812 PWs)   bands (ev):

    -3.2772  -3.2772  -3.2531  -3.2506  -3.1519  -3.1490  -3.1488  -3.1456
    -3.1241  -3.1241  -1.0661  -1.0658   2.6613   2.6613   4.6260

          k = 0.3333 0.3333 0.3333 (  5794 PWs)   bands (ev):

    -3.2841  -3.2582  -3.2582  -3.1935  -3.1935  -3.1506  -3.1506  -3.1475
    -3.1346  -3.1346  -1.3741  -0.9569   3.2211   3.2892   3.2892

          k = 0.3333 0.3333 0.4167 (  5798 PWs)   bands (ev):

    -3.2836  -3.2678  -3.2421  -3.2055  -3.1759  -3.1539  -3.1518  -3.1460
    -3.1414  -3.1321  -1.2252  -1.0009   3.0558   3.0738   3.6719

          k = 0.3333 0.3333-0.5000 (  5782 PWs)   bands (ev):

    -3.2778  -3.2774  -3.2247  -3.2222  -3.1633  -3.1615  -3.1524  -3.1492
    -3.1353  -3.1341  -1.0934  -1.0931   2.9942   2.9942   4.1246

          k = 0.3333 0.4167 0.4167 (  5793 PWs)   bands (ev):

    -3.2776  -3.2608  -3.2411  -3.2100  -3.1700  -3.1533  -3.1484  -3.1479
    -3.1460  -3.1383  -1.1187  -0.9983   3.0212   3.0547   3.7592

          k = 0.3333 0.4167-0.5000 (  5802 PWs)   bands (ev):

    -3.2681  -3.2679  -3.2283  -3.2260  -3.1597  -3.1586  -3.1505  -3.1472
    -3.1434  -3.1413  -1.0377  -1.0375   2.9968   2.9968   4.1152

          k = 0.3333-0.5000-0.5000 (  5808 PWs)   bands (ev):

    -3.2614  -3.2614  -3.2346  -3.2322  -3.1540  -3.1540  -3.1500  -3.1487
    -3.1467  -3.1453  -1.0163  -1.0161   2.9746   2.9746   4.1988

          k = 0.4167 0.4167 0.4167 (  5812 PWs)   bands (ev):

    -3.2659  -3.2412  -3.2412  -3.1916  -3.1916  -3.1664  -3.1487  -3.1487
    -3.1449  -3.1449  -1.0436  -0.9797   3.1508   3.4436   3.4436

          k = 0.4167 0.4167-0.5000 (  5802 PWs)   bands (ev):

    -3.2521  -3.2518  -3.2186  -3.2162  -3.1778  -3.1777  -3.1491  -3.1480
    -3.1458  -3.1447  -0.9938  -0.9936   3.2604   3.2605   3.9033

          k = 0.4167-0.5000-0.5000 (  5812 PWs)   bands (ev):

    -3.2404  -3.2404  -3.2209  -3.2185  -3.1851  -3.1851  -3.1488  -3.1486
    -3.1455  -3.1452  -0.9769  -0.9767   3.3658   3.3658   3.9235

          k =-0.5000-0.5000-0.5000 (  5832 PWs)   bands (ev):

    -3.2158  -3.2158  -3.2158  -3.2135  -3.2135  -3.2135  -3.1485  -3.1485
    -3.1451  -3.1451  -0.9618  -0.9616   3.8278   3.8281   3.8283

     the Fermi energy is    -0.1267 ev

!    total energy              =   -1550.20395775 Ry

     total all-electron energy =    -76047.896140 Ry
     estimated scf accuracy    <       0.00000022 Ry
     smearing contrib. (-TS)   =      -0.55443759 Ry
     internal energy E=F+TS    =   -1549.64952016 Ry

     The total energy is F=E-TS. E is the sum of the following terms:
     one-electron contribution =     -57.79318689 Ry
     hartree contribution      =      45.50617291 Ry
     xc contribution           =     -63.42892015 Ry
     ewald contribution        =     -88.97193263 Ry
     one-center paw contrib.   =   -1384.96165340 Ry

     convergence has been achieved in  14 iterations

     Forces acting on atoms (cartesian axes, Ry/au):

     atom    1 type  1   force =     0.00000000    0.00000000    0.00000000
     atom    2 type  1   force =     0.00000000    0.00000000    0.00000000

     Total force =     0.000000     Total SCF correction =     0.000000

     Writing all to output data dir ./pwscf.save/
 
     init_run     :      0.71s CPU      1.03s WALL (       1 calls)
     electrons    :     26.21s CPU     27.09s WALL (       1 calls)
     forces       :      0.11s CPU      0.19s WALL (       1 calls)

     Called by init_run:
     wfcinit      :      0.49s CPU      0.51s WALL (       1 calls)
     potinit      :      0.06s CPU      0.20s WALL (       1 calls)
     hinit0       :      0.12s CPU      0.19s WALL (       1 calls)

     Called by electrons:
     c_bands      :     22.40s CPU     22.77s WALL (      15 calls)
     sum_band     :      2.95s CPU      3.08s WALL (      15 calls)
     v_of_rho     :      0.09s CPU      0.47s WALL (      15 calls)
     newd         :      0.15s CPU      0.22s WALL (      15 calls)
     PAW_pot      :      0.61s CPU      0.61s WALL (      15 calls)
     mix_rho      :      0.01s CPU      0.01s WALL (      15 calls)

     Called by c_bands:
     init_us_2    :      0.31s CPU      0.32s WALL (    2688 calls)
     init_us_2:cp :      0.31s CPU      0.31s WALL (    2688 calls)
     cegterg      :     20.92s CPU     21.24s WALL (    1260 calls)

     Called by *egterg:
     cdiaghg      :      3.55s CPU      3.60s WALL (    4642 calls)
     h_psi        :     13.59s CPU     13.81s WALL (    4810 calls)
     s_psi        :      0.46s CPU      0.47s WALL (    4810 calls)
     g_psi        :      0.07s CPU      0.07s WALL (    3466 calls)

     Called by h_psi:
     h_psi:calbec :      0.64s CPU      0.65s WALL (    4810 calls)
     vloc_psi     :     12.43s CPU     12.63s WALL (    4810 calls)
     add_vuspsi   :      0.47s CPU      0.48s WALL (    4810 calls)

     General routines
     calbec       :      0.86s CPU      0.88s WALL (    6406 calls)
     fft          :      0.09s CPU      0.70s WALL (     177 calls)
     ffts         :      0.00s CPU      0.05s WALL (      15 calls)
     fftw         :     13.69s CPU     13.92s WALL (  130150 calls)
 
     Parallel routines
 
     PWSCF        :     28.09s CPU     34.47s WALL

 
   This run was terminated on:  11:27:57   6Apr2024            

=------------------------------------------------------------------------------=
   JOB DONE.
=------------------------------------------------------------------------------=
