MPI startup(): Warning: I_MPI_PMI_LIBRARY will be ignored since the hydra process manager was found
MPI startup(): Warning: I_MPI_PMI_LIBRARY will be ignored since the hydra process manager was found
MPI startup(): Warning: I_MPI_PMI_LIBRARY will be ignored since the hydra process manager was found
MPI startup(): Warning: I_MPI_PMI_LIBRARY will be ignored since the hydra process manager was found
MPI startup(): Warning: I_MPI_PMI_LIBRARY will be ignored since the hydra process manager was found
MPI startup(): Warning: I_MPI_PMI_LIBRARY will be ignored since the hydra process manager was found
MPI startup(): Warning: I_MPI_PMI_LIBRARY will be ignored since the hydra process manager was found
MPI startup(): Warning: I_MPI_PMI_LIBRARY will be ignored since the hydra process manager was found
MPI startup(): Warning: I_MPI_PMI_LIBRARY will be ignored since the hydra process manager was found
MPI startup(): Warning: I_MPI_PMI_LIBRARY will be ignored since the hydra process manager was found

     Program PWSCF v.7.0 starts on  6Apr2024 at 11:26:56 

     This program is part of the open-source Quantum ESPRESSO suite
     for quantum simulation of materials; please cite
         "P. Giannozzi et al., J. Phys.:Condens. Matter 21 395502 (2009);
         "P. Giannozzi et al., J. Phys.:Condens. Matter 29 465901 (2017);
         "P. Giannozzi et al., J. Chem. Phys. 152 154105 (2020);
          URL http://www.quantum-espresso.org", 
     in publications or presentations arising from this work. More details at
     http://www.quantum-espresso.org/quote

     Parallel version (MPI), running on    10 processors

     MPI processes distributed on     1 nodes
     R & G space division:  proc/nbgrp/npool/nimage =      10
     237700 MiB available memory on the printing compute node when the environment starts
 
     Reading input from VolumeBCC_5.6.in
Warning: card &CELL ignored
Warning: card / ignored

     Current dimensions of program PWSCF are:
     Max number of different atomic species (ntypx) = 10
     Max number of k-points (npk) =  40000
     Max angular momentum in pseudopotentials (lmaxx) =  4
     file Au.pbe-n-kjpaw_psl.1.0.0.UPF: wavefunction(s)  6S 5D renormalized
     Found identity + ( -0.5000 -0.5000 -0.5000) symmetry
     This is a supercell, fractional translations are disabled
     Message from routine setup:
     using ibrav=0 with symmetry is DISCOURAGED, use correct ibrav instead

     Subspace diagonalization in iterative solution of the eigenvalue problem:
     one sub-group per band group will be used
     scalapack distributed-memory algorithm (size of sub-group:  3*  3 procs)

 
     Parallelization info
     --------------------
     sticks:   dense  smooth     PW     G-vecs:    dense   smooth      PW
     Min          49      49     16                  837      837     154
     Max          50      50     17                  840      840     157
     Sum         497     497    161                 8385     8385    1551
 
     Using Slab Decomposition
 


     bravais-lattice index     =            0
     lattice parameter (alat)  =       5.5992  a.u.
     unit-cell volume          =     175.5397 (a.u.)^3
     number of atoms/cell      =            2
     number of atomic types    =            1
     number of electrons       =        22.00
     number of Kohn-Sham states=           15
     kinetic-energy cutoff     =      50.0000  Ry
     charge density cutoff     =     200.0000  Ry
     scf convergence threshold =      1.0E-06
     mixing beta               =       0.7000
     number of iterations used =            8  plain     mixing
     Exchange-correlation= SLA  PW   PBX  PBC
                           (   1   4   3   4   0   0   0)

     celldm(1)=   5.599189  celldm(2)=   0.000000  celldm(3)=   0.000000
     celldm(4)=   0.000000  celldm(5)=   0.000000  celldm(6)=   0.000000

     crystal axes: (cart. coord. in units of alat)
               a(1) = (   1.000000   0.000000   0.000000 )  
               a(2) = (   0.000000   1.000000   0.000000 )  
               a(3) = (   0.000000   0.000000   1.000000 )  

     reciprocal axes: (cart. coord. in units 2 pi/alat)
               b(1) = (  1.000000  0.000000  0.000000 )  
               b(2) = (  0.000000  1.000000  0.000000 )  
               b(3) = (  0.000000  0.000000  1.000000 )  


     PseudoPot. # 1 for Au read from file:
     ./Au.pbe-n-kjpaw_psl.1.0.0.UPF
     MD5 check sum: 4db85c736373c707a97ce4c36c2a9d23
     Pseudo is Projector augmented-wave + core cor, Zval = 11.0
     Generated using &quot;atomic&quot; code by A. Dal Corso  v.6.3
     Shape of augmentation charge: PSQ
     Using radial grid of 1279 points,  6 beta functions with: 
                l(1) =   0
                l(2) =   0
                l(3) =   1
                l(4) =   1
                l(5) =   2
                l(6) =   2
     Q(r) pseudized with 0 coefficients 


     atomic species   valence    mass     pseudopotential
        Au            11.00   196.96657     Au( 1.00)

     48 Sym. Ops., with inversion, found



   Cartesian axes

     site n.     atom                  positions (alat units)
         1           Au  tau(   1) = (   0.0000000   0.0000000   0.0000000  )
         2           Au  tau(   2) = (   0.5000000   0.5000000   0.5000000  )

     number of k points=    84  Gaussian smearing, width (Ry)=  0.2000
                       cart. coord. in units 2pi/alat
        k(    1) = (   0.0000000   0.0000000   0.0000000), wk =   0.0011574
        k(    2) = (   0.0000000   0.0000000   0.0833333), wk =   0.0069444
        k(    3) = (   0.0000000   0.0000000   0.1666667), wk =   0.0069444
        k(    4) = (   0.0000000   0.0000000   0.2500000), wk =   0.0069444
        k(    5) = (   0.0000000   0.0000000   0.3333333), wk =   0.0069444
        k(    6) = (   0.0000000   0.0000000   0.4166667), wk =   0.0069444
        k(    7) = (   0.0000000   0.0000000  -0.5000000), wk =   0.0034722
        k(    8) = (   0.0000000   0.0833333   0.0833333), wk =   0.0138889
        k(    9) = (   0.0000000   0.0833333   0.1666667), wk =   0.0277778
        k(   10) = (   0.0000000   0.0833333   0.2500000), wk =   0.0277778
        k(   11) = (   0.0000000   0.0833333   0.3333333), wk =   0.0277778
        k(   12) = (   0.0000000   0.0833333   0.4166667), wk =   0.0277778
        k(   13) = (   0.0000000   0.0833333  -0.5000000), wk =   0.0138889
        k(   14) = (   0.0000000   0.1666667   0.1666667), wk =   0.0138889
        k(   15) = (   0.0000000   0.1666667   0.2500000), wk =   0.0277778
        k(   16) = (   0.0000000   0.1666667   0.3333333), wk =   0.0277778
        k(   17) = (   0.0000000   0.1666667   0.4166667), wk =   0.0277778
        k(   18) = (   0.0000000   0.1666667  -0.5000000), wk =   0.0138889
        k(   19) = (   0.0000000   0.2500000   0.2500000), wk =   0.0138889
        k(   20) = (   0.0000000   0.2500000   0.3333333), wk =   0.0277778
        k(   21) = (   0.0000000   0.2500000   0.4166667), wk =   0.0277778
        k(   22) = (   0.0000000   0.2500000  -0.5000000), wk =   0.0138889
        k(   23) = (   0.0000000   0.3333333   0.3333333), wk =   0.0138889
        k(   24) = (   0.0000000   0.3333333   0.4166667), wk =   0.0277778
        k(   25) = (   0.0000000   0.3333333  -0.5000000), wk =   0.0138889
        k(   26) = (   0.0000000   0.4166667   0.4166667), wk =   0.0138889
        k(   27) = (   0.0000000   0.4166667  -0.5000000), wk =   0.0138889
        k(   28) = (   0.0000000  -0.5000000  -0.5000000), wk =   0.0034722
        k(   29) = (   0.0833333   0.0833333   0.0833333), wk =   0.0092593
        k(   30) = (   0.0833333   0.0833333   0.1666667), wk =   0.0277778
        k(   31) = (   0.0833333   0.0833333   0.2500000), wk =   0.0277778
        k(   32) = (   0.0833333   0.0833333   0.3333333), wk =   0.0277778
        k(   33) = (   0.0833333   0.0833333   0.4166667), wk =   0.0277778
        k(   34) = (   0.0833333   0.0833333  -0.5000000), wk =   0.0138889
        k(   35) = (   0.0833333   0.1666667   0.1666667), wk =   0.0277778
        k(   36) = (   0.0833333   0.1666667   0.2500000), wk =   0.0555556
        k(   37) = (   0.0833333   0.1666667   0.3333333), wk =   0.0555556
        k(   38) = (   0.0833333   0.1666667   0.4166667), wk =   0.0555556
        k(   39) = (   0.0833333   0.1666667  -0.5000000), wk =   0.0277778
        k(   40) = (   0.0833333   0.2500000   0.2500000), wk =   0.0277778
        k(   41) = (   0.0833333   0.2500000   0.3333333), wk =   0.0555556
        k(   42) = (   0.0833333   0.2500000   0.4166667), wk =   0.0555556
        k(   43) = (   0.0833333   0.2500000  -0.5000000), wk =   0.0277778
        k(   44) = (   0.0833333   0.3333333   0.3333333), wk =   0.0277778
        k(   45) = (   0.0833333   0.3333333   0.4166667), wk =   0.0555556
        k(   46) = (   0.0833333   0.3333333  -0.5000000), wk =   0.0277778
        k(   47) = (   0.0833333   0.4166667   0.4166667), wk =   0.0277778
        k(   48) = (   0.0833333   0.4166667  -0.5000000), wk =   0.0277778
        k(   49) = (   0.0833333  -0.5000000  -0.5000000), wk =   0.0069444
        k(   50) = (   0.1666667   0.1666667   0.1666667), wk =   0.0092593
        k(   51) = (   0.1666667   0.1666667   0.2500000), wk =   0.0277778
        k(   52) = (   0.1666667   0.1666667   0.3333333), wk =   0.0277778
        k(   53) = (   0.1666667   0.1666667   0.4166667), wk =   0.0277778
        k(   54) = (   0.1666667   0.1666667  -0.5000000), wk =   0.0138889
        k(   55) = (   0.1666667   0.2500000   0.2500000), wk =   0.0277778
        k(   56) = (   0.1666667   0.2500000   0.3333333), wk =   0.0555556
        k(   57) = (   0.1666667   0.2500000   0.4166667), wk =   0.0555556
        k(   58) = (   0.1666667   0.2500000  -0.5000000), wk =   0.0277778
        k(   59) = (   0.1666667   0.3333333   0.3333333), wk =   0.0277778
        k(   60) = (   0.1666667   0.3333333   0.4166667), wk =   0.0555556
        k(   61) = (   0.1666667   0.3333333  -0.5000000), wk =   0.0277778
        k(   62) = (   0.1666667   0.4166667   0.4166667), wk =   0.0277778
        k(   63) = (   0.1666667   0.4166667  -0.5000000), wk =   0.0277778
        k(   64) = (   0.1666667  -0.5000000  -0.5000000), wk =   0.0069444
        k(   65) = (   0.2500000   0.2500000   0.2500000), wk =   0.0092593
        k(   66) = (   0.2500000   0.2500000   0.3333333), wk =   0.0277778
        k(   67) = (   0.2500000   0.2500000   0.4166667), wk =   0.0277778
        k(   68) = (   0.2500000   0.2500000  -0.5000000), wk =   0.0138889
        k(   69) = (   0.2500000   0.3333333   0.3333333), wk =   0.0277778
        k(   70) = (   0.2500000   0.3333333   0.4166667), wk =   0.0555556
        k(   71) = (   0.2500000   0.3333333  -0.5000000), wk =   0.0277778
        k(   72) = (   0.2500000   0.4166667   0.4166667), wk =   0.0277778
        k(   73) = (   0.2500000   0.4166667  -0.5000000), wk =   0.0277778
        k(   74) = (   0.2500000  -0.5000000  -0.5000000), wk =   0.0069444
        k(   75) = (   0.3333333   0.3333333   0.3333333), wk =   0.0092593
        k(   76) = (   0.3333333   0.3333333   0.4166667), wk =   0.0277778
        k(   77) = (   0.3333333   0.3333333  -0.5000000), wk =   0.0138889
        k(   78) = (   0.3333333   0.4166667   0.4166667), wk =   0.0277778
        k(   79) = (   0.3333333   0.4166667  -0.5000000), wk =   0.0277778
        k(   80) = (   0.3333333  -0.5000000  -0.5000000), wk =   0.0069444
        k(   81) = (   0.4166667   0.4166667   0.4166667), wk =   0.0092593
        k(   82) = (   0.4166667   0.4166667  -0.5000000), wk =   0.0138889
        k(   83) = (   0.4166667  -0.5000000  -0.5000000), wk =   0.0069444
        k(   84) = (  -0.5000000  -0.5000000  -0.5000000), wk =   0.0011574

     Dense  grid:     8385 G-vectors     FFT dimensions: (  25,  25,  25)

     Estimated max dynamical RAM per process >       6.14 MB

     Estimated total dynamical RAM >      61.44 MB

     Initial potential from superposition of free atoms

     starting charge      21.9998, renormalised to      22.0000
     Starting wfcs are   18 randomized atomic wfcs
     Checking if some PAW data can be deallocated... 

     total cpu time spent up to now is        1.6 secs

     Self-consistent Calculation

     iteration #  1     ecut=    50.00 Ry     beta= 0.70
     Davidson diagonalization with overlap
     ethr =  1.00E-02,  avg # of iterations =  5.0

     Threshold (ethr) on eigenvalues was too large:
     Diagonalizing with lowered threshold

     Davidson diagonalization with overlap
     ethr =  2.68E-04,  avg # of iterations =  5.4

     total cpu time spent up to now is        3.8 secs

     total energy              =   -1550.12880616 Ry
     estimated scf accuracy    <       0.08490957 Ry

     iteration #  2     ecut=    50.00 Ry     beta= 0.70
     Davidson diagonalization with overlap
     ethr =  3.86E-04,  avg # of iterations =  2.0

     total cpu time spent up to now is        4.5 secs

     total energy              =   -1550.15167661 Ry
     estimated scf accuracy    <       0.00469665 Ry

     iteration #  3     ecut=    50.00 Ry     beta= 0.70
     Davidson diagonalization with overlap
     ethr =  2.13E-05,  avg # of iterations =  5.4

     total cpu time spent up to now is        5.5 secs

     total energy              =   -1550.15345785 Ry
     estimated scf accuracy    <       0.00065863 Ry

     iteration #  4     ecut=    50.00 Ry     beta= 0.70
     Davidson diagonalization with overlap
     ethr =  2.99E-06,  avg # of iterations =  4.8

     total cpu time spent up to now is        6.4 secs

     total energy              =   -1550.15366524 Ry
     estimated scf accuracy    <       0.00043573 Ry

     iteration #  5     ecut=    50.00 Ry     beta= 0.70
     Davidson diagonalization with overlap
     ethr =  1.98E-06,  avg # of iterations =  2.2

     total cpu time spent up to now is        7.0 secs

     total energy              =   -1550.15369197 Ry
     estimated scf accuracy    <       0.00006465 Ry

     iteration #  6     ecut=    50.00 Ry     beta= 0.70
     Davidson diagonalization with overlap
     ethr =  2.94E-07,  avg # of iterations =  5.0

     total cpu time spent up to now is        8.0 secs

     total energy              =   -1550.15374100 Ry
     estimated scf accuracy    <       0.00001306 Ry

     iteration #  7     ecut=    50.00 Ry     beta= 0.70
     Davidson diagonalization with overlap
     ethr =  5.93E-08,  avg # of iterations =  2.6

     total cpu time spent up to now is        8.6 secs

     total energy              =   -1550.15373862 Ry
     estimated scf accuracy    <       0.00000602 Ry

     iteration #  8     ecut=    50.00 Ry     beta= 0.70
     Davidson diagonalization with overlap
     ethr =  2.73E-08,  avg # of iterations =  2.1

     total cpu time spent up to now is        9.2 secs

     End of self-consistent calculation

          k = 0.0000 0.0000 0.0000 (  1021 PWs)   bands (ev):

     9.9524  13.1198  13.1198  16.2876  16.2876  16.2876  19.2288  19.2288
    21.1555  21.1555  21.1555  29.8857  29.8857  29.8857  36.5551

          k = 0.0000 0.0000 0.0833 (  1029 PWs)   bands (ev):

    10.1189  13.2004  13.2392  16.2917  16.2917  16.3557  19.0886  19.2821
    20.8669  20.8669  21.0516  28.9742  30.3644  30.3645  37.3026

          k = 0.0000 0.0000 0.1667 (  1049 PWs)   bands (ev):

    10.6060  13.4400  13.5709  16.3144  16.3144  16.5573  18.6887  19.4318
    20.1618  20.1618  20.7528  27.0796  31.6345  31.6345  38.2822

          k = 0.0000 0.0000 0.2500 (  1049 PWs)   bands (ev):

    11.3742  13.8314  14.0297  16.3831  16.3831  16.8851  18.0840  19.3093
    19.3093  19.6505  20.2946  25.0249  33.4101  33.4101  38.2999

          k = 0.0000 0.0000 0.3333 (  1048 PWs)   bands (ev):

    12.3451  14.3619  14.4517  16.5336  16.5336  17.3260  17.3464  18.4844
    18.4844  19.7257  19.9084  23.1458  35.4841  35.4841  37.8516

          k = 0.0000 0.0000 0.4167 (  1056 PWs)   bands (ev):

    13.3742  14.5888  15.0117  16.5485  16.8003  16.8003  17.7727  17.7727
    17.8607  19.0988  20.2189  21.6635  37.5649  37.7141  37.7142

          k = 0.0000 0.0000-0.5000 (  1044 PWs)   bands (ev):

    14.2150  14.2150  15.7534  15.7534  17.2092  17.2092  17.2093  17.2093
    18.4629  18.4631  20.7209  20.7209  37.8040  37.8042  39.9549

          k = 0.0000 0.0833 0.0833 (  1041 PWs)   bands (ev):

    10.2814  13.2953  13.3418  16.1558  16.2900  16.5644  19.0641  19.2398
    20.3862  20.5764  21.1971  29.3312  29.5507  30.7827  38.0917

          k = 0.0000 0.0833 0.1667 (  1049 PWs)   bands (ev):

    10.7553  13.5290  13.6702  16.0648  16.2977  16.8814  18.7458  19.3640
    19.6095  19.8794  21.0859  27.5167  30.6440  31.9284  39.1171

          k = 0.0000 0.0833 0.2500 (  1041 PWs)   bands (ev):

    11.4967  13.8957  14.1313  16.0576  16.3403  17.2856  18.2214  18.7644
    19.0674  19.5926  20.7254  25.4215  32.2421  33.5862  39.1450

          k = 0.0000 0.0833 0.3333 (  1049 PWs)   bands (ev):

    12.4205  14.3509  14.5768  16.1560  16.4066  17.6399  17.7755  17.9690
    18.3461  19.8633  20.2029  23.4691  33.9418  35.5698  38.8881

          k = 0.0000 0.0833 0.4167 (  1055 PWs)   bands (ev):

    13.3819  14.5454  15.0733  16.2614  16.3835  17.2900  17.3259  17.8296
    18.3401  19.5936  20.2023  21.8669  35.4188  37.7387  37.8370

          k = 0.0000 0.0833-0.5000 (  1050 PWs)   bands (ev):

    14.1686  14.1686  15.7086  15.7087  16.7589  16.7590  17.4908  17.4909
    18.9573  18.9574  20.7866  20.7866  36.5736  36.5737  39.9533

          k = 0.0000 0.1667 0.1667 (  1041 PWs)   bands (ev):

    11.1843  13.7294  13.9999  15.8105  16.2786  17.3644  18.7592  18.7821
    19.2321  19.2806  21.3120  28.5380  28.6971  32.7858  39.9925

          k = 0.0000 0.1667 0.2500 (  1045 PWs)   bands (ev):

    11.8331  13.9872  14.4966  15.6594  16.3140  17.9084  17.9111  18.5218
    18.5530  19.4468  21.2318  26.3770  30.0719  34.1311  39.7850

          k = 0.0000 0.1667 0.3333 (  1050 PWs)   bands (ev):

    12.5943  14.2165  15.0236  15.6378  16.3966  17.1466  18.0970  18.1735
    18.5084  19.7357  20.8940  24.2485  31.5999  35.8513  37.7464

          k = 0.0000 0.1667 0.4167 (  1059 PWs)   bands (ev):

    13.3274  14.2274  15.5109  15.7664  16.3329  16.5222  17.9815  18.0200
    19.1399  20.1524  20.3836  22.3862  33.0714  36.0220  37.8265

          k = 0.0000 0.1667-0.5000 (  1068 PWs)   bands (ev):

    13.9063  13.9063  15.9804  15.9804  16.0596  16.0596  18.0263  18.0264
    19.7789  19.7789  20.9750  20.9750  34.4930  34.4931  39.0578

          k = 0.0000 0.2500 0.2500 (  1057 PWs)   bands (ev):

    12.2924  14.0322  15.0699  15.3691  16.4614  17.0839  18.1118  18.5858
    18.7303  19.3633  21.4718  26.9162  28.4660  35.0690  37.7366

          k = 0.0000 0.2500 0.3333 (  1054 PWs)   bands (ev):

    12.7552  13.9715  15.2225  15.7086  16.3736  16.7954  17.9819  18.6687
    19.2762  19.5619  21.4062  25.0526  29.4509  35.8634  36.3854

          k = 0.0000 0.2500 0.4167 (  1054 PWs)   bands (ev):

    13.1528  13.7773  15.2412  15.8182  16.2820  16.9737  18.1981  18.6451
    19.9516  20.0696  21.0809  22.9900  30.8634  34.0233  38.0168

          k = 0.0000 0.2500-0.5000 (  1060 PWs)   bands (ev):

    13.4911  13.4912  15.4384  15.4384  16.7368  16.7368  18.5197  18.5198
    20.5719  20.5720  21.2368  21.2368  32.3662  32.3662  38.0425

          k = 0.0000 0.3333 0.3333 (  1057 PWs)   bands (ev):

    12.8573  13.6598  14.9576  15.7309  16.5077  17.5717  18.1059  18.9632
    19.4798  20.0188  21.6349  24.8933  28.4666  33.9124  37.2215

          k = 0.0000 0.3333 0.4167 (  1051 PWs)   bands (ev):

    12.9551  13.3542  14.8675  15.2554  17.2470  18.0486  18.4549  19.0982
    19.9484  20.6868  21.5609  23.2916  29.1552  32.0659  37.1664

          k = 0.0000 0.3333-0.5000 (  1058 PWs)   bands (ev):

    13.1127  13.1127  14.9654  14.9654  17.7940  17.7940  18.8800  18.8801
    21.2230  21.2230  21.4363  21.4363  30.4587  30.4587  37.0548

          k = 0.0000 0.4167 0.4167 (  1047 PWs)   bands (ev):

    12.8403  13.0367  14.6728  14.8674  18.2288  18.7343  18.8781  19.5889
    19.9526  21.2759  21.7566  22.7396  28.5322  30.3486  36.5173

          k = 0.0000 0.4167-0.5000 (  1048 PWs)   bands (ev):

    12.8620  12.8621  14.6713  14.6713  18.8319  18.8320  19.1754  19.1754
    21.3783  21.3783  21.6517  21.6517  29.0778  29.0779  36.3474

          k = 0.0000-0.5000-0.5000 (  1056 PWs)   bands (ev):

    12.7751  12.7752  14.5715  14.5715  19.0657  19.0657  19.6345  19.6345
    21.1764  21.1764  21.8016  21.8016  28.5653  28.5653  36.0906

          k = 0.0833 0.0833 0.0833 (  1048 PWs)   bands (ev):

    10.4408  13.4163  13.4163  16.1491  16.1491  16.7805  19.1266  19.1266
    19.7629  20.9102  20.9102  29.5285  30.0181  30.0181  38.9359

          k = 0.0833 0.0833 0.1667 (  1046 PWs)   bands (ev):

    10.9041  13.6366  13.7507  16.0069  16.1362  17.1615  18.8057  18.9183
    19.2985  20.2145  20.9717  27.9024  30.6663  31.2472  40.0346

          k = 0.0833 0.0833 0.2500 (  1047 PWs)   bands (ev):

    11.6236  13.9927  14.2022  15.9730  16.1306  17.6301  18.0918  18.3335
    19.3842  19.5415  20.7285  25.8054  31.9786  32.9374  40.0265

          k = 0.0833 0.0833 0.3333 (  1051 PWs)   bands (ev):

    12.5077  14.4648  14.5752  16.0869  16.1189  17.4245  17.8188  18.1741
    18.5996  19.8253  20.2858  23.8225  33.4292  34.8541  39.0137

          k = 0.0833 0.0833 0.4167 (  1057 PWs)   bands (ev):

    13.4123  14.5960  15.0169  15.9835  16.3569  17.0049  17.4779  17.9601
    18.7491  19.7668  20.2068  22.1424  34.7643  36.7879  37.3185

          k = 0.0833 0.0833-0.5000 (  1052 PWs)   bands (ev):

    14.1633  14.1633  15.5756  15.5756  16.6986  16.6986  17.5448  17.5449
    19.2693  19.2694  20.9176  20.9176  35.9622  35.9622  38.4507

          k = 0.0833 0.1667 0.1667 (  1048 PWs)   bands (ev):

    11.3310  13.8597  14.0557  15.7880  16.0580  17.6721  18.0472  18.8535
    19.2213  19.8269  21.0256  28.7968  28.9853  31.8700  41.0360

          k = 0.0833 0.1667 0.2500 (  1047 PWs)   bands (ev):

    11.9724  14.1256  14.5309  15.6337  16.0538  17.2666  18.2649  18.5977
    19.1177  19.4126  20.9720  26.7272  30.1516  33.1620  39.4005

          k = 0.0833 0.1667 0.3333 (  1048 PWs)   bands (ev):

    12.7136  14.3663  14.9748  15.6106  16.1212  16.7324  18.2395  18.4975
    18.9123  19.7220  20.6658  24.6393  31.5210  34.7493  37.6510

          k = 0.0833 0.1667 0.4167 (  1053 PWs)   bands (ev):

    13.4128  14.3438  15.3047  15.6538  16.2381  16.5021  18.0141  18.1349
    19.4295  20.2102  20.2796  22.7983  32.8923  35.8522  36.3744

          k = 0.0833 0.1667-0.5000 (  1052 PWs)   bands (ev):

    13.9771  13.9771  15.5731  15.5732  16.3612  16.3612  18.0083  18.0084
    19.7780  19.7780  21.3220  21.3220  34.2890  34.2890  37.7265

          k = 0.0833 0.2500 0.2500 (  1047 PWs)   bands (ev):

    12.4455  14.1789  15.0928  15.3450  16.1618  16.5645  18.6164  18.7680
    18.9994  19.3458  21.1680  27.3741  28.4453  33.9749  37.7578

          k = 0.0833 0.2500 0.3333 (  1049 PWs)   bands (ev):

    12.9072  14.1082  15.2020  15.6293  16.1461  16.4688  18.3051  18.6799
    19.5017  19.7969  21.0791  25.4938  29.4362  35.0888  35.8401

          k = 0.0833 0.2500 0.4167 (  1050 PWs)   bands (ev):

    13.2828  13.8919  15.2091  15.5631  16.4019  16.7688  18.3284  18.5832
    19.7574  20.7086  20.7185  23.5330  30.7966  33.9543  36.2712

          k = 0.0833 0.2500-0.5000 (  1058 PWs)   bands (ev):

    13.6011  13.6011  15.3441  15.3441  16.7255  16.7255  18.5102  18.5103
    20.1808  20.1808  21.9209  21.9209  32.2785  32.2786  37.1976

          k = 0.0833 0.3333 0.3333 (  1047 PWs)   bands (ev):

    13.0181  13.7817  14.9437  15.5813  16.4789  17.1697  18.3156  18.9414
    19.4813  20.5747  21.2435  25.4638  28.3910  33.8811  35.6471

          k = 0.0833 0.3333 0.4167 (  1053 PWs)   bands (ev):

    13.1035  13.4733  14.8569  15.1963  17.1990  17.7720  18.5571  19.0016
    19.7233  21.0375  21.4314  24.0049  29.0889  32.0139  36.2455

          k = 0.0833 0.3333-0.5000 (  1052 PWs)   bands (ev):

    13.2429  13.2430  14.9448  14.9448  17.6969  17.6969  18.8791  18.8791
    20.4246  20.4246  22.5126  22.5126  30.3951  30.3952  36.6713

          k = 0.0833 0.4167 0.4167 (  1051 PWs)   bands (ev):

    12.9900  13.1665  14.6702  14.8534  18.1240  18.7772  18.8095  19.3146
    19.5946  20.9917  22.1508  23.7466  28.4365  30.2866  36.2228

          k = 0.0833 0.4167-0.5000 (  1042 PWs)   bands (ev):

    13.0039  13.0039  14.6694  14.6694  18.7780  18.7781  19.1194  19.1195
    20.3822  20.3822  22.9250  22.9250  28.9959  28.9959  36.2474

          k = 0.0833-0.5000-0.5000 (  1044 PWs)   bands (ev):

    12.9209  12.9209  14.5737  14.5737  19.1067  19.1068  19.6400  19.6400
    20.0370  20.0370  23.0690  23.0690  28.4649  28.4650  36.0832

          k = 0.1667 0.1667 0.1667 (  1057 PWs)   bands (ev):

    11.7480  14.2175  14.2175  15.7301  15.7301  17.1647  18.2793  19.0500
    19.0500  20.3503  20.3503  28.9611  30.1334  30.1335  40.3858

          k = 0.1667 0.1667 0.2500 (  1048 PWs)   bands (ev):

    12.3580  14.4678  14.6658  15.5515  15.6572  16.4417  18.7917  18.9853
    19.3233  19.5795  20.5288  27.5276  30.0830  31.6591  39.5140

          k = 0.1667 0.1667 0.3333 (  1044 PWs)   bands (ev):

    13.0168  14.7735  14.8079  15.5821  15.6390  16.1930  18.5006  18.9019
    19.5051  19.8708  20.3826  25.4987  30.9794  33.3207  37.1570

          k = 0.1667 0.1667 0.4167 (  1048 PWs)   bands (ev):

    13.5750  14.4674  15.0823  15.4890  15.9997  16.3877  18.2690  18.4261
    19.6762  20.0701  20.8538  23.6506  32.1280  34.9361  35.1633

          k = 0.1667 0.1667-0.5000 (  1064 PWs)   bands (ev):

    14.0311  14.0311  15.3318  15.3318  16.3658  16.3658  18.2154  18.2155
    19.8142  19.8142  22.0977  22.0977  33.4984  33.4985  36.3655

          k = 0.1667 0.2500 0.2500 (  1050 PWs)   bands (ev):

    12.8774  14.5963  15.1526  15.2855  15.6249  15.7957  18.9455  19.2903
    19.3137  19.8119  20.5005  28.4180  28.4993  31.9470  37.8224

          k = 0.1667 0.2500 0.3333 (  1050 PWs)   bands (ev):

    13.3319  14.4585  15.1694  15.3151  15.8341  15.9318  18.8310  18.8783
    19.4922  20.4553  20.7027  26.4274  29.4369  33.0859  35.7334

          k = 0.1667 0.2500 0.4167 (  1044 PWs)   bands (ev):

    13.6153  14.1392  15.1768  15.2556  16.2593  16.4205  18.6494  18.6798
    19.6903  20.1894  21.7228  24.5540  30.5834  33.7007  34.4084

          k = 0.1667 0.2500-0.5000 (  1048 PWs)   bands (ev):

    13.8476  13.8477  15.2194  15.2194  16.5543  16.5544  18.6141  18.6142
    19.8864  19.8864  22.9802  22.9802  31.9810  31.9810  35.6963

          k = 0.1667 0.3333 0.3333 (  1048 PWs)   bands (ev):

    13.4832  14.0763  14.9143  15.3356  16.3801  16.3921  18.7760  19.0398
    19.4815  20.5346  21.6303  26.7133  28.1999  33.6203  33.7797

          k = 0.1667 0.3333 0.4167 (  1047 PWs)   bands (ev):

    13.5194  13.7696  14.8480  15.1187  17.0063  17.0519  18.8278  19.0294
    19.6358  20.3356  22.6207  25.2597  28.9389  31.8643  34.5051

          k = 0.1667 0.3333-0.5000 (  1042 PWs)   bands (ev):

    13.5879  13.5880  14.9325  14.9325  17.3124  17.3125  18.9590  18.9590
    19.9355  19.9355  23.7951  23.7951  30.2301  30.2301  35.5400

          k = 0.1667 0.4167 0.4167 (  1041 PWs)   bands (ev):

    13.4180  13.5155  14.6736  14.8551  17.7687  17.9338  19.0082  19.1870
    19.6092  20.2328  23.5018  25.2665  28.1781  30.1308  34.9899

          k = 0.1667 0.4167-0.5000 (  1040 PWs)   bands (ev):

    13.4021  13.4022  14.6829  14.6829  18.2398  18.2398  19.1607  19.1608
    19.8423  19.8423  24.4297  24.4297  28.7890  28.7890  35.7221

          k = 0.1667-0.5000-0.5000 (  1032 PWs)   bands (ev):

    13.3368  13.3369  14.5907  14.5907  18.7825  18.7825  19.2214  19.2214
    19.6552  19.6552  24.7040  24.7040  28.1897  28.1897  35.9663

          k = 0.2500 0.2500 0.2500 (  1060 PWs)   bands (ev):

    13.4728  15.0930  15.2213  15.2213  15.2245  15.2245  19.1937  19.1937
    19.8090  19.8090  20.7499  28.3871  29.9373  29.9373  37.6061

          k = 0.2500 0.2500 0.3333 (  1038 PWs)   bands (ev):

    13.8921  14.5588  15.1843  15.2734  15.2899  15.8839  19.0663  19.2759
    19.4527  19.9952  21.7320  27.3387  29.3345  31.4795  35.1716

          k = 0.2500 0.2500 0.4167 (  1043 PWs)   bands (ev):

    13.9484  14.1876  15.1913  15.2731  15.8788  16.3650  18.9423  18.9717
    19.6485  19.9235  22.7979  25.5915  30.0446  32.9997  33.0051

          k = 0.2500 0.2500-0.5000 (  1042 PWs)   bands (ev):

    13.9944  13.9944  15.2327  15.2328  16.3734  16.3735  18.8837  18.8837
    19.7803  19.7803  24.0563  24.0564  31.2818  31.2818  34.4472

          k = 0.2500 0.3333 0.3333 (  1040 PWs)   bands (ev):

    14.1952  14.2522  14.9012  15.4135  15.6270  16.1869  19.2311  19.2458
    19.4707  19.9388  22.7712  27.9882  28.2099  31.5921  33.4911

          k = 0.2500 0.3333 0.4167 (  1048 PWs)   bands (ev):

    14.0343  14.0837  14.9153  15.2580  16.2866  16.6532  19.1582  19.2061
    19.6144  19.8882  23.8361  26.4827  28.8678  31.5852  32.7111

          k = 0.2500 0.3333-0.5000 (  1040 PWs)   bands (ev):

    13.9811  13.9812  15.0626  15.0627  16.7324  16.7324  19.1603  19.1604
    19.7490  19.7490  25.0367  25.0367  30.0079  30.0079  34.0512

          k = 0.2500 0.4167 0.4167 (  1043 PWs)   bands (ev):

    13.9341  14.0529  14.7121  15.0070  16.9831  17.1713  19.2641  19.3366
    19.6263  19.8415  24.8342  26.9121  27.8363  29.9618  33.3350

          k = 0.2500 0.4167-0.5000 (  1040 PWs)   bands (ev):

    13.9554  13.9554  14.7769  14.7769  17.3689  17.3689  19.3316  19.3317
    19.7125  19.7125  25.8919  25.8919  28.6020  28.6021  34.4369

          k = 0.2500-0.5000-0.5000 (  1036 PWs)   bands (ev):

    13.9548  13.9549  14.6502  14.6502  17.6828  17.6828  19.3836  19.3837
    19.6761  19.6761  26.4261  26.4261  27.8107  27.8107  35.2272

          k = 0.3333 0.3333 0.3333 (  1045 PWs)   bands (ev):

    14.1810  14.9413  14.9413  15.0964  15.9012  15.9012  19.4432  19.4432
    19.5730  19.5730  23.8807  27.8314  29.7946  29.7946  32.5067

          k = 0.3333 0.3333 0.4167 (  1036 PWs)   bands (ev):

    14.1354  14.5164  15.0640  15.5756  15.8614  16.3385  19.4049  19.4120
    19.6081  19.7024  24.9568  27.2735  28.9976  30.9439  31.3907

          k = 0.3333 0.3333-0.5000 (  1042 PWs)   bands (ev):

    14.2363  14.2364  15.2804  15.2805  16.3569  16.3570  19.3791  19.3792
    19.6935  19.6936  26.0894  26.0894  29.6267  29.6268  32.9479

          k = 0.3333 0.4167 0.4167 (  1040 PWs)   bands (ev):

    14.2314  14.7358  14.8227  15.4242  16.2249  16.4937  19.4990  19.5116
    19.6392  19.6926  25.9575  27.5206  28.6177  29.8426  31.6665

          k = 0.3333 0.4167-0.5000 (  1042 PWs)   bands (ev):

    14.4367  14.4368  15.0774  15.0774  16.5666  16.5666  19.5157  19.5158
    19.6894  19.6894  26.9042  26.9042  28.8452  28.8452  32.9253

          k = 0.3333-0.5000-0.5000 (  1048 PWs)   bands (ev):

    14.6472  14.6473  14.7891  14.7891  16.7569  16.7569  19.5510  19.5510
    19.6970  19.6970  27.4278  27.4278  28.1954  28.1954  33.4335

          k = 0.4167 0.4167 0.4167 (  1052 PWs)   bands (ev):

    14.4692  15.0401  15.0401  15.8789  15.8789  15.9237  19.6442  19.6442
    19.6495  19.6495  26.7279  27.3158  29.6820  30.3352  30.3352

          k = 0.4167 0.4167-0.5000 (  1046 PWs)   bands (ev):

    14.7659  14.7660  15.3891  15.3892  16.0444  16.0444  19.6434  19.6435
    19.6947  19.6947  27.1394  27.1394  29.6625  29.6625  32.0121

          k = 0.4167-0.5000-0.5000 (  1064 PWs)   bands (ev):

    15.0437  15.0437  15.2178  15.2179  16.0115  16.0115  19.6739  19.6739
    19.7124  19.7124  27.1459  27.1459  29.9710  29.9710  32.1621

          k =-0.5000-0.5000-0.5000 (  1064 PWs)   bands (ev):

    15.4442  15.4442  15.4442  15.4443  15.4443  15.4443  19.7180  19.7180
    19.7180  19.7180  27.0429  27.0429  31.6969  31.6969  31.6970

     the Fermi energy is    23.6063 ev

!    total energy              =   -1550.15374025 Ry

     total all-electron energy =    -76047.845922 Ry
     estimated scf accuracy    <          6.8E-09 Ry
     smearing contrib. (-TS)   =      -0.17130061 Ry
     internal energy E=F+TS    =   -1549.98243964 Ry

     The total energy is F=E-TS. E is the sum of the following terms:
     one-electron contribution =      46.50497979 Ry
     hartree contribution      =      10.84818649 Ry
     xc contribution           =     -64.83973863 Ry
     ewald contribution        =    -157.28966658 Ry
     one-center paw contrib.   =   -1385.20620071 Ry

     convergence has been achieved in   8 iterations

     Forces acting on atoms (cartesian axes, Ry/au):

     atom    1 type  1   force =     0.00000000    0.00000000    0.00000000
     atom    2 type  1   force =     0.00000000    0.00000000   -0.00000000

     Total force =     0.000000     Total SCF correction =     0.000000

     Writing all to output data dir ./pwscf.save/
 
     init_run     :      0.41s CPU      1.05s WALL (       1 calls)
     electrons    :      7.38s CPU      7.65s WALL (       1 calls)
     forces       :      0.03s CPU      0.03s WALL (       1 calls)

     Called by init_run:
     wfcinit      :      0.34s CPU      0.55s WALL (       1 calls)
     potinit      :      0.03s CPU      0.13s WALL (       1 calls)
     hinit0       :      0.03s CPU      0.31s WALL (       1 calls)

     Called by electrons:
     c_bands      :      6.60s CPU      6.76s WALL (       9 calls)
     sum_band     :      0.49s CPU      0.51s WALL (       9 calls)
     v_of_rho     :      0.01s CPU      0.01s WALL (       9 calls)
     newd         :      0.01s CPU      0.04s WALL (       9 calls)
     PAW_pot      :      0.27s CPU      0.40s WALL (       9 calls)
     mix_rho      :      0.00s CPU      0.02s WALL (       9 calls)

     Called by c_bands:
     init_us_2    :      0.03s CPU      0.03s WALL (    1680 calls)
     init_us_2:cp :      0.03s CPU      0.03s WALL (    1680 calls)
     cegterg      :      6.47s CPU      6.62s WALL (     756 calls)

     Called by *egterg:
     cdiaghg      :      3.05s CPU      3.29s WALL (    3576 calls)
     h_psi        :      2.40s CPU      2.49s WALL (    3744 calls)
     s_psi        :      0.04s CPU      0.04s WALL (    3744 calls)
     g_psi        :      0.01s CPU      0.01s WALL (    2904 calls)

     Called by h_psi:
     h_psi:calbec :      0.19s CPU      0.21s WALL (    3744 calls)
     vloc_psi     :      2.14s CPU      2.21s WALL (    3744 calls)
     add_vuspsi   :      0.05s CPU      0.05s WALL (    3744 calls)

     General routines
     calbec       :      0.25s CPU      0.27s WALL (    4836 calls)
     fft          :      0.01s CPU      0.26s WALL (     111 calls)
     ffts         :      0.00s CPU      0.00s WALL (       9 calls)
     fftw         :      2.35s CPU      2.42s WALL (   81706 calls)
 
     Parallel routines
 
     PWSCF        :      8.28s CPU     10.55s WALL

 
   This run was terminated on:  11:27: 6   6Apr2024            

=------------------------------------------------------------------------------=
   JOB DONE.
=------------------------------------------------------------------------------=
