MPI startup(): Warning: I_MPI_PMI_LIBRARY will be ignored since the hydra process manager was found
MPI startup(): Warning: I_MPI_PMI_LIBRARY will be ignored since the hydra process manager was found
MPI startup(): Warning: I_MPI_PMI_LIBRARY will be ignored since the hydra process manager was found
MPI startup(): Warning: I_MPI_PMI_LIBRARY will be ignored since the hydra process manager was found
MPI startup(): Warning: I_MPI_PMI_LIBRARY will be ignored since the hydra process manager was found
MPI startup(): Warning: I_MPI_PMI_LIBRARY will be ignored since the hydra process manager was found
MPI startup(): Warning: I_MPI_PMI_LIBRARY will be ignored since the hydra process manager was found
MPI startup(): Warning: I_MPI_PMI_LIBRARY will be ignored since the hydra process manager was found
MPI startup(): Warning: I_MPI_PMI_LIBRARY will be ignored since the hydra process manager was found
MPI startup(): Warning: I_MPI_PMI_LIBRARY will be ignored since the hydra process manager was found

     Program PWSCF v.7.0 starts on  6Apr2024 at 11:27:22 

     This program is part of the open-source Quantum ESPRESSO suite
     for quantum simulation of materials; please cite
         "P. Giannozzi et al., J. Phys.:Condens. Matter 21 395502 (2009);
         "P. Giannozzi et al., J. Phys.:Condens. Matter 29 465901 (2017);
         "P. Giannozzi et al., J. Chem. Phys. 152 154105 (2020);
          URL http://www.quantum-espresso.org", 
     in publications or presentations arising from this work. More details at
     http://www.quantum-espresso.org/quote

     Parallel version (MPI), running on    10 processors

     MPI processes distributed on     1 nodes
     R & G space division:  proc/nbgrp/npool/nimage =      10
     185969 MiB available memory on the printing compute node when the environment starts
 
     Reading input from VolumeBCC_10.1.in
Warning: card &CELL ignored
Warning: card / ignored

     Current dimensions of program PWSCF are:
     Max number of different atomic species (ntypx) = 10
     Max number of k-points (npk) =  40000
     Max angular momentum in pseudopotentials (lmaxx) =  4
     file Au.pbe-n-kjpaw_psl.1.0.0.UPF: wavefunction(s)  6S 5D renormalized
     Found identity + ( -0.5000 -0.5000 -0.5000) symmetry
     This is a supercell, fractional translations are disabled
     Message from routine setup:
     using ibrav=0 with symmetry is DISCOURAGED, use correct ibrav instead

     Subspace diagonalization in iterative solution of the eigenvalue problem:
     one sub-group per band group will be used
     scalapack distributed-memory algorithm (size of sub-group:  3*  3 procs)

 
     Parallelization info
     --------------------
     sticks:   dense  smooth     PW     G-vecs:    dense   smooth      PW
     Min         161     161     47                 4915     4915     768
     Max         162     162     49                 4918     4918     770
     Sum        1617    1617    481                49173    49173    7689
 
     Using Slab Decomposition
 


     bravais-lattice index     =            0
     lattice parameter (alat)  =      10.0985  a.u.
     unit-cell volume          =    1029.8532 (a.u.)^3
     number of atoms/cell      =            2
     number of atomic types    =            1
     number of electrons       =        22.00
     number of Kohn-Sham states=           15
     kinetic-energy cutoff     =      50.0000  Ry
     charge density cutoff     =     200.0000  Ry
     scf convergence threshold =      1.0E-06
     mixing beta               =       0.7000
     number of iterations used =            8  plain     mixing
     Exchange-correlation= SLA  PW   PBX  PBC
                           (   1   4   3   4   0   0   0)

     celldm(1)=  10.098536  celldm(2)=   0.000000  celldm(3)=   0.000000
     celldm(4)=   0.000000  celldm(5)=   0.000000  celldm(6)=   0.000000

     crystal axes: (cart. coord. in units of alat)
               a(1) = (   1.000000   0.000000   0.000000 )  
               a(2) = (   0.000000   1.000000   0.000000 )  
               a(3) = (   0.000000   0.000000   1.000000 )  

     reciprocal axes: (cart. coord. in units 2 pi/alat)
               b(1) = (  1.000000  0.000000  0.000000 )  
               b(2) = (  0.000000  1.000000  0.000000 )  
               b(3) = (  0.000000  0.000000  1.000000 )  


     PseudoPot. # 1 for Au read from file:
     ./Au.pbe-n-kjpaw_psl.1.0.0.UPF
     MD5 check sum: 4db85c736373c707a97ce4c36c2a9d23
     Pseudo is Projector augmented-wave + core cor, Zval = 11.0
     Generated using &quot;atomic&quot; code by A. Dal Corso  v.6.3
     Shape of augmentation charge: PSQ
     Using radial grid of 1279 points,  6 beta functions with: 
                l(1) =   0
                l(2) =   0
                l(3) =   1
                l(4) =   1
                l(5) =   2
                l(6) =   2
     Q(r) pseudized with 0 coefficients 


     atomic species   valence    mass     pseudopotential
        Au            11.00   196.96657     Au( 1.00)

     48 Sym. Ops., with inversion, found



   Cartesian axes

     site n.     atom                  positions (alat units)
         1           Au  tau(   1) = (   0.0000000   0.0000000   0.0000000  )
         2           Au  tau(   2) = (   0.5000000   0.5000000   0.5000000  )

     number of k points=    84  Gaussian smearing, width (Ry)=  0.2000
                       cart. coord. in units 2pi/alat
        k(    1) = (   0.0000000   0.0000000   0.0000000), wk =   0.0011574
        k(    2) = (   0.0000000   0.0000000   0.0833333), wk =   0.0069444
        k(    3) = (   0.0000000   0.0000000   0.1666667), wk =   0.0069444
        k(    4) = (   0.0000000   0.0000000   0.2500000), wk =   0.0069444
        k(    5) = (   0.0000000   0.0000000   0.3333333), wk =   0.0069444
        k(    6) = (   0.0000000   0.0000000   0.4166667), wk =   0.0069444
        k(    7) = (   0.0000000   0.0000000  -0.5000000), wk =   0.0034722
        k(    8) = (   0.0000000   0.0833333   0.0833333), wk =   0.0138889
        k(    9) = (   0.0000000   0.0833333   0.1666667), wk =   0.0277778
        k(   10) = (   0.0000000   0.0833333   0.2500000), wk =   0.0277778
        k(   11) = (   0.0000000   0.0833333   0.3333333), wk =   0.0277778
        k(   12) = (   0.0000000   0.0833333   0.4166667), wk =   0.0277778
        k(   13) = (   0.0000000   0.0833333  -0.5000000), wk =   0.0138889
        k(   14) = (   0.0000000   0.1666667   0.1666667), wk =   0.0138889
        k(   15) = (   0.0000000   0.1666667   0.2500000), wk =   0.0277778
        k(   16) = (   0.0000000   0.1666667   0.3333333), wk =   0.0277778
        k(   17) = (   0.0000000   0.1666667   0.4166667), wk =   0.0277778
        k(   18) = (   0.0000000   0.1666667  -0.5000000), wk =   0.0138889
        k(   19) = (   0.0000000   0.2500000   0.2500000), wk =   0.0138889
        k(   20) = (   0.0000000   0.2500000   0.3333333), wk =   0.0277778
        k(   21) = (   0.0000000   0.2500000   0.4166667), wk =   0.0277778
        k(   22) = (   0.0000000   0.2500000  -0.5000000), wk =   0.0138889
        k(   23) = (   0.0000000   0.3333333   0.3333333), wk =   0.0138889
        k(   24) = (   0.0000000   0.3333333   0.4166667), wk =   0.0277778
        k(   25) = (   0.0000000   0.3333333  -0.5000000), wk =   0.0138889
        k(   26) = (   0.0000000   0.4166667   0.4166667), wk =   0.0138889
        k(   27) = (   0.0000000   0.4166667  -0.5000000), wk =   0.0138889
        k(   28) = (   0.0000000  -0.5000000  -0.5000000), wk =   0.0034722
        k(   29) = (   0.0833333   0.0833333   0.0833333), wk =   0.0092593
        k(   30) = (   0.0833333   0.0833333   0.1666667), wk =   0.0277778
        k(   31) = (   0.0833333   0.0833333   0.2500000), wk =   0.0277778
        k(   32) = (   0.0833333   0.0833333   0.3333333), wk =   0.0277778
        k(   33) = (   0.0833333   0.0833333   0.4166667), wk =   0.0277778
        k(   34) = (   0.0833333   0.0833333  -0.5000000), wk =   0.0138889
        k(   35) = (   0.0833333   0.1666667   0.1666667), wk =   0.0277778
        k(   36) = (   0.0833333   0.1666667   0.2500000), wk =   0.0555556
        k(   37) = (   0.0833333   0.1666667   0.3333333), wk =   0.0555556
        k(   38) = (   0.0833333   0.1666667   0.4166667), wk =   0.0555556
        k(   39) = (   0.0833333   0.1666667  -0.5000000), wk =   0.0277778
        k(   40) = (   0.0833333   0.2500000   0.2500000), wk =   0.0277778
        k(   41) = (   0.0833333   0.2500000   0.3333333), wk =   0.0555556
        k(   42) = (   0.0833333   0.2500000   0.4166667), wk =   0.0555556
        k(   43) = (   0.0833333   0.2500000  -0.5000000), wk =   0.0277778
        k(   44) = (   0.0833333   0.3333333   0.3333333), wk =   0.0277778
        k(   45) = (   0.0833333   0.3333333   0.4166667), wk =   0.0555556
        k(   46) = (   0.0833333   0.3333333  -0.5000000), wk =   0.0277778
        k(   47) = (   0.0833333   0.4166667   0.4166667), wk =   0.0277778
        k(   48) = (   0.0833333   0.4166667  -0.5000000), wk =   0.0277778
        k(   49) = (   0.0833333  -0.5000000  -0.5000000), wk =   0.0069444
        k(   50) = (   0.1666667   0.1666667   0.1666667), wk =   0.0092593
        k(   51) = (   0.1666667   0.1666667   0.2500000), wk =   0.0277778
        k(   52) = (   0.1666667   0.1666667   0.3333333), wk =   0.0277778
        k(   53) = (   0.1666667   0.1666667   0.4166667), wk =   0.0277778
        k(   54) = (   0.1666667   0.1666667  -0.5000000), wk =   0.0138889
        k(   55) = (   0.1666667   0.2500000   0.2500000), wk =   0.0277778
        k(   56) = (   0.1666667   0.2500000   0.3333333), wk =   0.0555556
        k(   57) = (   0.1666667   0.2500000   0.4166667), wk =   0.0555556
        k(   58) = (   0.1666667   0.2500000  -0.5000000), wk =   0.0277778
        k(   59) = (   0.1666667   0.3333333   0.3333333), wk =   0.0277778
        k(   60) = (   0.1666667   0.3333333   0.4166667), wk =   0.0555556
        k(   61) = (   0.1666667   0.3333333  -0.5000000), wk =   0.0277778
        k(   62) = (   0.1666667   0.4166667   0.4166667), wk =   0.0277778
        k(   63) = (   0.1666667   0.4166667  -0.5000000), wk =   0.0277778
        k(   64) = (   0.1666667  -0.5000000  -0.5000000), wk =   0.0069444
        k(   65) = (   0.2500000   0.2500000   0.2500000), wk =   0.0092593
        k(   66) = (   0.2500000   0.2500000   0.3333333), wk =   0.0277778
        k(   67) = (   0.2500000   0.2500000   0.4166667), wk =   0.0277778
        k(   68) = (   0.2500000   0.2500000  -0.5000000), wk =   0.0138889
        k(   69) = (   0.2500000   0.3333333   0.3333333), wk =   0.0277778
        k(   70) = (   0.2500000   0.3333333   0.4166667), wk =   0.0555556
        k(   71) = (   0.2500000   0.3333333  -0.5000000), wk =   0.0277778
        k(   72) = (   0.2500000   0.4166667   0.4166667), wk =   0.0277778
        k(   73) = (   0.2500000   0.4166667  -0.5000000), wk =   0.0277778
        k(   74) = (   0.2500000  -0.5000000  -0.5000000), wk =   0.0069444
        k(   75) = (   0.3333333   0.3333333   0.3333333), wk =   0.0092593
        k(   76) = (   0.3333333   0.3333333   0.4166667), wk =   0.0277778
        k(   77) = (   0.3333333   0.3333333  -0.5000000), wk =   0.0138889
        k(   78) = (   0.3333333   0.4166667   0.4166667), wk =   0.0277778
        k(   79) = (   0.3333333   0.4166667  -0.5000000), wk =   0.0277778
        k(   80) = (   0.3333333  -0.5000000  -0.5000000), wk =   0.0069444
        k(   81) = (   0.4166667   0.4166667   0.4166667), wk =   0.0092593
        k(   82) = (   0.4166667   0.4166667  -0.5000000), wk =   0.0138889
        k(   83) = (   0.4166667  -0.5000000  -0.5000000), wk =   0.0069444
        k(   84) = (  -0.5000000  -0.5000000  -0.5000000), wk =   0.0011574

     Dense  grid:    49173 G-vectors     FFT dimensions: (  45,  45,  45)

     Estimated max dynamical RAM per process >      30.46 MB

     Estimated total dynamical RAM >     304.59 MB

     Initial potential from superposition of free atoms

     starting charge      21.9998, renormalised to      22.0000
     Starting wfcs are   18 randomized atomic wfcs
     Checking if some PAW data can be deallocated... 

     total cpu time spent up to now is        1.8 secs

     Self-consistent Calculation

     iteration #  1     ecut=    50.00 Ry     beta= 0.70
     Davidson diagonalization with overlap
     ethr =  1.00E-02,  avg # of iterations =  2.3

     Threshold (ethr) on eigenvalues was too large:
     Diagonalizing with lowered threshold

     Davidson diagonalization with overlap
     ethr =  7.93E-04,  avg # of iterations =  2.2

     total cpu time spent up to now is        4.7 secs

     total energy              =   -1550.10862265 Ry
     estimated scf accuracy    <       0.17378842 Ry

     iteration #  2     ecut=    50.00 Ry     beta= 0.70
     Davidson diagonalization with overlap
     ethr =  7.90E-04,  avg # of iterations =  2.1

     total cpu time spent up to now is        6.4 secs

     total energy              =   -1550.17869740 Ry
     estimated scf accuracy    <       0.16961430 Ry

     iteration #  3     ecut=    50.00 Ry     beta= 0.70
     Davidson diagonalization with overlap
     ethr =  7.71E-04,  avg # of iterations =  1.0

     total cpu time spent up to now is        7.8 secs

     total energy              =   -1550.19933348 Ry
     estimated scf accuracy    <       0.00924400 Ry

     iteration #  4     ecut=    50.00 Ry     beta= 0.70
     Davidson diagonalization with overlap
     ethr =  4.20E-05,  avg # of iterations =  2.4

     total cpu time spent up to now is        9.5 secs

     total energy              =   -1550.19897057 Ry
     estimated scf accuracy    <       0.00306033 Ry

     iteration #  5     ecut=    50.00 Ry     beta= 0.70
     Davidson diagonalization with overlap
     ethr =  1.39E-05,  avg # of iterations =  5.3

     total cpu time spent up to now is       12.3 secs

     total energy              =   -1550.19778718 Ry
     estimated scf accuracy    <       0.01961950 Ry

     iteration #  6     ecut=    50.00 Ry     beta= 0.70
     Davidson diagonalization with overlap
     ethr =  1.39E-05,  avg # of iterations =  2.8

     total cpu time spent up to now is       14.2 secs

     total energy              =   -1550.20153069 Ry
     estimated scf accuracy    <       0.00008527 Ry

     iteration #  7     ecut=    50.00 Ry     beta= 0.70
     Davidson diagonalization with overlap
     ethr =  3.88E-07,  avg # of iterations =  6.1

     total cpu time spent up to now is       17.1 secs

     total energy              =   -1550.20161338 Ry
     estimated scf accuracy    <       0.00008118 Ry

     iteration #  8     ecut=    50.00 Ry     beta= 0.70
     Davidson diagonalization with overlap
     ethr =  3.69E-07,  avg # of iterations =  5.9

     total cpu time spent up to now is       20.1 secs

     total energy              =   -1550.20171844 Ry
     estimated scf accuracy    <       0.00073097 Ry

     iteration #  9     ecut=    50.00 Ry     beta= 0.70
     Davidson diagonalization with overlap
     ethr =  3.69E-07,  avg # of iterations =  1.5

     total cpu time spent up to now is       21.4 secs

     total energy              =   -1550.20158998 Ry
     estimated scf accuracy    <       0.00039321 Ry

     iteration # 10     ecut=    50.00 Ry     beta= 0.70
     Davidson diagonalization with overlap
     ethr =  3.69E-07,  avg # of iterations =  2.0

     total cpu time spent up to now is       23.1 secs

     total energy              =   -1550.20156764 Ry
     estimated scf accuracy    <       0.00006709 Ry

     iteration # 11     ecut=    50.00 Ry     beta= 0.70
     Davidson diagonalization with overlap
     ethr =  3.05E-07,  avg # of iterations =  4.1

     total cpu time spent up to now is       25.6 secs

     total energy              =   -1550.20155971 Ry
     estimated scf accuracy    <       0.00026778 Ry

     iteration # 12     ecut=    50.00 Ry     beta= 0.70
     Davidson diagonalization with overlap
     ethr =  3.05E-07,  avg # of iterations =  2.1

     total cpu time spent up to now is       27.2 secs

     End of self-consistent calculation

          k = 0.0000 0.0000 0.0000 (  6187 PWs)   bands (ev):

    -3.5662  -3.5662  -3.5326  -3.5326  -3.5326  -3.4404  -3.4404  -3.3947
    -3.3947  -3.3947  -2.8727  -0.6643   3.8003   3.8003   3.8003

          k = 0.0000 0.0000 0.0833 (  6123 PWs)   bands (ev):

    -3.5640  -3.5618  -3.5312  -3.5312  -3.5302  -3.4424  -3.4399  -3.3981
    -3.3981  -3.3970  -2.8420  -0.7043   3.7251   3.8416   3.8416

          k = 0.0000 0.0000 0.1667 (  6143 PWs)   bands (ev):

    -3.5574  -3.5494  -3.5271  -3.5271  -3.5232  -3.4484  -3.4393  -3.4081
    -3.4081  -3.4038  -2.7504  -0.8236   3.5753   3.9646   3.9646

          k = 0.0000 0.0000 0.2500 (  6159 PWs)   bands (ev):

    -3.5470  -3.5309  -3.5199  -3.5199  -3.5122  -3.4580  -3.4405  -3.4231
    -3.4231  -3.4146  -2.5997  -1.0173   3.4712   4.1657   4.1657

          k = 0.0000 0.0000 0.3333 (  6151 PWs)   bands (ev):

    -3.5336  -3.5095  -3.5095  -3.5094  -3.4978  -3.4705  -3.4453  -3.4413
    -3.4413  -3.4288  -2.3945  -1.2709   3.4800   4.4394   4.4395

          k = 0.0000 0.0000 0.4167 (  6170 PWs)   bands (ev):

    -3.5182  -3.4959  -3.4959  -3.4881  -3.4853  -3.4812  -3.4606  -3.4606
    -3.4546  -3.4453  -2.1434  -1.5605   3.6226   4.2929   4.7777

          k = 0.0000 0.0000-0.5000 (  6126 PWs)   bands (ev):

    -3.5037  -3.4995  -3.4809  -3.4809  -3.4777  -3.4777  -3.4713  -3.4670
    -3.4648  -3.4616  -1.8594  -1.8592   3.8968   3.8971   5.1701

          k = 0.0000 0.0833 0.0833 (  6148 PWs)   bands (ev):

    -3.5608  -3.5585  -3.5350  -3.5303  -3.5228  -3.4431  -3.4406  -3.4070
    -3.4016  -3.3937  -2.8113  -0.7399   3.5966   3.8825   3.9382

          k = 0.0000 0.0833 0.1667 (  6152 PWs)   bands (ev):

    -3.5542  -3.5466  -3.5355  -3.5273  -3.5116  -3.4481  -3.4400  -3.4213
    -3.4114  -3.3955  -2.7197  -0.8479   3.4139   4.0039   4.0931

          k = 0.0000 0.0833 0.2500 (  6149 PWs)   bands (ev):

    -3.5443  -3.5319  -3.5286  -3.5218  -3.4976  -3.4568  -3.4406  -3.4392
    -3.4260  -3.4026  -2.5694  -1.0270   3.2922   4.2024   4.3041

          k = 0.0000 0.0833 0.3333 (  6155 PWs)   bands (ev):

    -3.5318  -3.5242  -3.5137  -3.5079  -3.4814  -3.4679  -3.4589  -3.4445
    -3.4431  -3.4141  -2.3655  -1.2668   3.2886   4.4723   4.5640

          k = 0.0000 0.0833 0.4167 (  6154 PWs)   bands (ev):

    -3.5179  -3.5125  -3.5044  -3.4883  -3.4793  -3.4790  -3.4636  -3.4601
    -3.4525  -3.4289  -2.1170  -1.5458   3.4216   4.0734   4.8054

          k = 0.0000 0.0833-0.5000 (  6160 PWs)   bands (ev):

    -3.5070  -3.5030  -3.4976  -3.4967  -3.4830  -3.4794  -3.4659  -3.4618
    -3.4463  -3.4453  -1.8374  -1.8372   3.6873   3.6876   5.1903

          k = 0.0000 0.1667 0.1667 (  6156 PWs)   bands (ev):

    -3.5469  -3.5417  -3.5370  -3.5274  -3.4958  -3.4492  -3.4409  -3.4402
    -3.4205  -3.3910  -2.6285  -0.9248   3.1612   4.1207   4.3051

          k = 0.0000 0.1667 0.2500 (  6160 PWs)   bands (ev):

    -3.5435  -3.5384  -3.5263  -3.5207  -3.4783  -3.4613  -3.4542  -3.4409
    -3.4337  -3.3922  -2.4800  -1.0621   2.9764   4.3114   4.6203

          k = 0.0000 0.1667 0.3333 (  6167 PWs)   bands (ev):

    -3.5405  -3.5291  -3.5231  -3.5017  -3.4830  -3.4620  -3.4596  -3.4480
    -3.4428  -3.3987  -2.2805  -1.2605   2.9211   4.0782   4.5696

          k = 0.0000 0.1667 0.4167 (  6159 PWs)   bands (ev):

    -3.5326  -3.5214  -3.5180  -3.5029  -3.4850  -3.4700  -3.4585  -3.4483
    -3.4414  -3.4098  -2.0403  -1.5064   3.0147   3.6127   4.8858

          k = 0.0000 0.1667-0.5000 (  6154 PWs)   bands (ev):

    -3.5200  -3.5196  -3.5185  -3.5148  -3.4782  -3.4743  -3.4588  -3.4548
    -3.4246  -3.4242  -1.7751  -1.7749   3.2510   3.2512   5.2476

          k = 0.0000 0.2500 0.2500 (  6182 PWs)   bands (ev):

    -3.5508  -3.5334  -3.5305  -3.5067  -3.4845  -3.4580  -3.4533  -3.4438
    -3.4412  -3.3874  -2.3360  -1.1380   2.7118   4.0663   4.4878

          k = 0.0000 0.2500 0.3333 (  6140 PWs)   bands (ev):

    -3.5528  -3.5343  -3.5292  -3.5063  -3.4898  -3.4562  -3.4523  -3.4418
    -3.4386  -3.3884  -2.1455  -1.2695   2.5770   3.5495   4.7253

          k = 0.0000 0.2500 0.4167 (  6154 PWs)   bands (ev):

    -3.5492  -3.5343  -3.5288  -3.5252  -3.4750  -3.4605  -3.4560  -3.4448
    -3.4209  -3.3948  -1.9216  -1.4572   2.6035   3.1136   5.0117

          k = 0.0000 0.2500-0.5000 (  6158 PWs)   bands (ev):

    -3.5399  -3.5398  -3.5333  -3.5297  -3.4680  -3.4640  -3.4535  -3.4494
    -3.4060  -3.4058  -1.6837  -1.6836   2.7893   2.7894   5.3309

          k = 0.0000 0.3333 0.3333 (  6138 PWs)   bands (ev):

    -3.5598  -3.5423  -3.5339  -3.5273  -3.4750  -3.4559  -3.4513  -3.4414
    -3.4196  -3.3838  -1.9716  -1.3176   2.3487   3.0631   4.9302

          k = 0.0000 0.3333 0.4167 (  6147 PWs)   bands (ev):

    -3.5608  -3.5463  -3.5441  -3.5399  -3.4623  -3.4546  -3.4514  -3.4425
    -3.4037  -3.3851  -1.7759  -1.4230   2.2845   2.6664   5.1698

          k = 0.0000 0.3333-0.5000 (  6158 PWs)   bands (ev):

    -3.5555  -3.5555  -3.5467  -3.5432  -3.4575  -3.4535  -3.4496  -3.4454
    -3.3919  -3.3919  -1.5834  -1.5833   2.3962   2.3962   5.4213

          k = 0.0000 0.4167 0.4167 (  6146 PWs)   bands (ev):

    -3.5664  -3.5578  -3.5537  -3.5488  -3.4522  -3.4513  -3.4478  -3.4412
    -3.3908  -3.3812  -1.6263  -1.4324   2.1166   2.3246   5.3401

          k = 0.0000 0.4167-0.5000 (  6162 PWs)   bands (ev):

    -3.5655  -3.5654  -3.5559  -3.5525  -3.4511  -3.4471  -3.4460  -3.4417
    -3.3832  -3.3831  -1.5028  -1.5027   2.1311   2.1311   5.4933

          k = 0.0000-0.5000-0.5000 (  6152 PWs)   bands (ev):

    -3.5688  -3.5688  -3.5591  -3.5557  -3.4495  -3.4456  -3.4440  -3.4396
    -3.3802  -3.3802  -1.4714  -1.4713   2.0370   2.0370   5.5210

          k = 0.0833 0.0833 0.0833 (  6163 PWs)   bands (ev):

    -3.5565  -3.5565  -3.5337  -3.5337  -3.5165  -3.4423  -3.4423  -3.4167
    -3.3972  -3.3972  -2.7806  -0.7719   3.6378   3.6378   4.1542

          k = 0.0833 0.0833 0.1667 (  6147 PWs)   bands (ev):

    -3.5506  -3.5444  -3.5366  -3.5298  -3.5051  -3.4475  -3.4409  -3.4329
    -3.4071  -3.3963  -2.6891  -0.8700   3.3866   3.7604   4.3788

          k = 0.0833 0.0833 0.2500 (  6156 PWs)   bands (ev):

    -3.5413  -3.5363  -3.5267  -3.5233  -3.4909  -3.4556  -3.4519  -3.4408
    -3.4219  -3.4007  -2.5393  -1.0360   3.2228   3.9613   4.6234

          k = 0.0833 0.0833 0.3333 (  6159 PWs)   bands (ev):

    -3.5319  -3.5295  -3.5142  -3.5069  -3.4756  -3.4708  -3.4658  -3.4435
    -3.4397  -3.4099  -2.3369  -1.2629   3.1913   4.2353   4.4068

          k = 0.0833 0.0833 0.4167 (  6146 PWs)   bands (ev):

    -3.5232  -3.5167  -3.5048  -3.4970  -3.4804  -3.4750  -3.4614  -3.4579
    -3.4476  -3.4228  -2.0910  -1.5316   3.3049   3.9300   4.5755

          k = 0.0833 0.0833-0.5000 (  6156 PWs)   bands (ev):

    -3.5110  -3.5100  -3.5073  -3.5033  -3.4745  -3.4711  -3.4687  -3.4651
    -3.4378  -3.4375  -1.8161  -1.8159   3.5563   3.5565   4.9724

          k = 0.0833 0.1667 0.1667 (  6153 PWs)   bands (ev):

    -3.5428  -3.5405  -3.5356  -3.5303  -3.4919  -3.4518  -3.4480  -3.4420
    -3.4129  -3.3945  -2.5983  -0.9408   3.2027   3.7362   4.6758

          k = 0.0833 0.1667 0.2500 (  6153 PWs)   bands (ev):

    -3.5436  -3.5347  -3.5273  -3.5196  -3.4766  -3.4718  -3.4531  -3.4414
    -3.4263  -3.3950  -2.4507  -1.0688   3.0011   3.9040   4.5350

          k = 0.0833 0.1667 0.3333 (  6152 PWs)   bands (ev):

    -3.5433  -3.5260  -3.5216  -3.5035  -3.4898  -3.4606  -3.4598  -3.4422
    -3.4414  -3.4003  -2.2530  -1.2570   2.9221   4.0119   4.1652

          k = 0.0833 0.1667 0.4167 (  6151 PWs)   bands (ev):

    -3.5385  -3.5198  -3.5149  -3.5110  -3.4805  -3.4676  -3.4561  -3.4525
    -3.4369  -3.4099  -2.0159  -1.4937   2.9954   3.5619   4.4976

          k = 0.0833 0.1667-0.5000 (  6164 PWs)   bands (ev):

    -3.5294  -3.5285  -3.5133  -3.5098  -3.4731  -3.4694  -3.4608  -3.4570
    -3.4231  -3.4228  -1.7555  -1.7553   3.2149   3.2151   4.8888

          k = 0.0833 0.2500 0.2500 (  6147 PWs)   bands (ev):

    -3.5495  -3.5316  -3.5287  -3.5060  -3.4934  -3.4587  -3.4516  -3.4418
    -3.4368  -3.3910  -2.3082  -1.1404   2.7540   4.0232   4.0334

          k = 0.0833 0.2500 0.3333 (  6135 PWs)   bands (ev):

    -3.5525  -3.5324  -3.5272  -3.5113  -3.4889  -3.4551  -3.4476  -3.4442
    -3.4378  -3.3918  -2.1201  -1.2657   2.6129   3.5303   4.2694

          k = 0.0833 0.2500 0.4167 (  6152 PWs)   bands (ev):

    -3.5514  -3.5354  -3.5294  -3.5196  -3.4735  -3.4592  -3.4540  -3.4461
    -3.4221  -3.3976  -1.8998  -1.4465   2.6272   3.1105   4.5800

          k = 0.0833 0.2500-0.5000 (  6168 PWs)   bands (ev):

    -3.5458  -3.5451  -3.5261  -3.5230  -3.4659  -3.4620  -3.4541  -3.4501
    -3.4081  -3.4079  -1.6668  -1.6666   2.7997   2.7998   4.9462

          k = 0.0833 0.3333 0.3333 (  6142 PWs)   bands (ev):

    -3.5584  -3.5403  -3.5376  -3.5224  -3.4749  -3.4534  -3.4500  -3.4416
    -3.4223  -3.3878  -1.9491  -1.3121   2.3918   3.0683   4.4787

          k = 0.0833 0.3333 0.4167 (  6154 PWs)   bands (ev):

    -3.5603  -3.5501  -3.5421  -3.5313  -3.4619  -3.4536  -3.4503  -3.4428
    -3.4072  -3.3891  -1.7574  -1.4139   2.3242   2.6867   4.7566

          k = 0.0833 0.3333-0.5000 (  6148 PWs)   bands (ev):

    -3.5580  -3.5575  -3.5402  -3.5372  -3.4565  -3.4525  -3.4497  -3.4456
    -3.3958  -3.3957  -1.5695  -1.5694   2.4276   2.4277   5.0744

          k = 0.0833 0.4167 0.4167 (  6140 PWs)   bands (ev):

    -3.5647  -3.5601  -3.5497  -3.5422  -3.4513  -3.4513  -3.4471  -3.4412
    -3.3953  -3.3857  -1.6116  -1.4232   2.1605   2.3580   4.9828

          k = 0.0833 0.4167-0.5000 (  6162 PWs)   bands (ev):

    -3.5649  -3.5647  -3.5510  -3.5477  -3.4504  -3.4465  -3.4460  -3.4417
    -3.3879  -3.3878  -1.4916  -1.4915   2.1723   2.1723   5.2092

          k = 0.0833-0.5000-0.5000 (  6148 PWs)   bands (ev):

    -3.5670  -3.5670  -3.5551  -3.5517  -3.4490  -3.4451  -3.4439  -3.4395
    -3.3851  -3.3851  -1.4613  -1.4612   2.0811   2.0811   5.2709

          k = 0.1667 0.1667 0.1667 (  6148 PWs)   bands (ev):

    -3.5370  -3.5370  -3.5314  -3.5314  -3.4820  -3.4713  -3.4454  -3.4454
    -3.4044  -3.4044  -2.5089  -0.9935   3.3260   3.3260   4.7337

          k = 0.1667 0.1667 0.2500 (  6144 PWs)   bands (ev):

    -3.5437  -3.5312  -3.5251  -3.5156  -3.4918  -3.4685  -3.4506  -3.4426
    -3.4190  -3.4007  -2.3646  -1.0942   3.0261   3.5284   4.2685

          k = 0.1667 0.1667 0.3333 (  6130 PWs)   bands (ev):

    -3.5477  -3.5233  -3.5176  -3.5149  -3.4932  -3.4568  -3.4565  -3.4396
    -3.4358  -3.4023  -2.1728  -1.2514   2.8788   3.7968   3.8055

          k = 0.1667 0.1667 0.4167 (  6144 PWs)   bands (ev):

    -3.5473  -3.5300  -3.5151  -3.5107  -3.4765  -3.4619  -3.4543  -3.4512
    -3.4309  -3.4087  -1.9454  -1.4599   2.8984   3.3852   4.1513

          k = 0.1667 0.1667-0.5000 (  6166 PWs)   bands (ev):

    -3.5417  -3.5409  -3.5112  -3.5074  -3.4642  -3.4630  -3.4607  -3.4593
    -3.4189  -3.4189  -1.7000  -1.6998   3.0751   3.0753   4.5584

          k = 0.1667 0.2500 0.2500 (  6149 PWs)   bands (ev):

    -3.5459  -3.5334  -3.5194  -3.5095  -3.5041  -3.4570  -3.4489  -3.4435
    -3.4250  -3.4012  -2.2267  -1.1523   2.8795   3.5078   3.8744

          k = 0.1667 0.2500 0.3333 (  6150 PWs)   bands (ev):

    -3.5510  -3.5316  -3.5294  -3.5108  -3.4874  -3.4528  -3.4471  -3.4380
    -3.4374  -3.4008  -2.0461  -1.2584   2.7114   3.4524   3.7338

          k = 0.1667 0.2500 0.4167 (  6145 PWs)   bands (ev):

    -3.5540  -3.5443  -3.5223  -3.5103  -3.4713  -3.4559  -3.4497  -3.4482
    -3.4244  -3.4046  -1.8367  -1.4180   2.6827   3.0813   4.0610

          k = 0.1667 0.2500-0.5000 (  6152 PWs)   bands (ev):

    -3.5524  -3.5517  -3.5164  -3.5130  -3.4614  -3.4576  -3.4553  -3.4515
    -3.4128  -3.4127  -1.6189  -1.6187   2.8126   2.8127   4.4570

          k = 0.1667 0.3333 0.3333 (  6145 PWs)   bands (ev):

    -3.5539  -3.5457  -3.5347  -3.5113  -3.4749  -3.4506  -3.4438  -3.4422
    -3.4288  -3.3988  -1.8841  -1.2987   2.5201   3.0702   3.8958

          k = 0.1667 0.3333 0.4167 (  6159 PWs)   bands (ev):

    -3.5577  -3.5551  -3.5332  -3.5175  -3.4617  -3.4511  -3.4471  -3.4436
    -3.4162  -3.4002  -1.7042  -1.3891   2.4401   2.7384   4.1802

          k = 0.1667 0.3333-0.5000 (  6158 PWs)   bands (ev):

    -3.5592  -3.5586  -3.5277  -3.5246  -3.4541  -3.4501  -3.4501  -3.4461
    -3.4061  -3.4060  -1.5304  -1.5303   2.5159   2.5160   4.5351

          k = 0.1667 0.4167 0.4167 (  6141 PWs)   bands (ev):

    -3.5608  -3.5594  -3.5400  -3.5282  -3.4516  -3.4492  -3.4452  -3.4413
    -3.4075  -3.3985  -1.5696  -1.3979   2.2909   2.4543   4.4133

          k = 0.1667 0.4167-0.5000 (  6144 PWs)   bands (ev):

    -3.5616  -3.5613  -3.5390  -3.5358  -3.4487  -3.4461  -3.4447  -3.4418
    -3.4010  -3.4010  -1.4599  -1.4598   2.2938   2.2939   4.6856

          k = 0.1667-0.5000-0.5000 (  6104 PWs)   bands (ev):

    -3.5614  -3.5614  -3.5441  -3.5408  -3.4476  -3.4438  -3.4436  -3.4394
    -3.3992  -3.3992  -1.4326  -1.4325   2.2124   2.2124   4.7718

          k = 0.2500 0.2500 0.2500 (  6130 PWs)   bands (ev):

    -3.5395  -3.5395  -3.5291  -3.5017  -3.5017  -3.4502  -3.4460  -3.4460
    -3.4157  -3.4157  -2.0973  -1.1865   3.0857   3.0857   3.6076

          k = 0.2500 0.2500 0.3333 (  6146 PWs)   bands (ev):

    -3.5477  -3.5432  -3.5306  -3.5001  -3.4848  -3.4490  -3.4469  -3.4376
    -3.4316  -3.4111  -1.9299  -1.2597   2.8108   3.2795   3.3683

          k = 0.2500 0.2500 0.4167 (  6152 PWs)   bands (ev):

    -3.5542  -3.5525  -3.5199  -3.5018  -3.4691  -3.4517  -3.4495  -3.4442
    -3.4262  -3.4116  -1.7400  -1.3823   2.7065   2.9777   3.7221

          k = 0.2500 0.2500-0.5000 (  6138 PWs)   bands (ev):

    -3.5565  -3.5559  -3.5107  -3.5072  -3.4585  -3.4552  -3.4528  -3.4489
    -3.4171  -3.4167  -1.5492  -1.5491   2.7709   2.7711   4.1405

          k = 0.2500 0.3333 0.3333 (  6150 PWs)   bands (ev):

    -3.5527  -3.5463  -3.5319  -3.4960  -3.4757  -3.4479  -3.4430  -3.4358
    -3.4350  -3.4143  -1.7832  -1.2871   2.7307   3.0312   3.3943

          k = 0.2500 0.3333 0.4167 (  6147 PWs)   bands (ev):

    -3.5575  -3.5518  -3.5244  -3.5017  -3.4627  -3.4483  -3.4450  -3.4427
    -3.4266  -3.4150  -1.6234  -1.3571   2.6186   2.7905   3.6857

          k = 0.2500 0.3333-0.5000 (  6154 PWs)   bands (ev):

    -3.5572  -3.5566  -3.5144  -3.5111  -3.4536  -3.4500  -3.4489  -3.4449
    -3.4192  -3.4188  -1.4736  -1.4735   2.6371   2.6372   4.0758

          k = 0.2500 0.4167 0.4167 (  6142 PWs)   bands (ev):

    -3.5579  -3.5504  -3.5282  -3.5108  -3.4530  -3.4469  -3.4426  -3.4414
    -3.4243  -3.4166  -1.5068  -1.3630   2.5050   2.5981   3.8862

          k = 0.2500 0.4167-0.5000 (  6136 PWs)   bands (ev):

    -3.5544  -3.5541  -3.5237  -3.5205  -3.4467  -3.4466  -3.4427  -3.4425
    -3.4199  -3.4197  -1.4139  -1.4138   2.4891   2.4891   4.1848

          k = 0.2500-0.5000-0.5000 (  6136 PWs)   bands (ev):

    -3.5518  -3.5518  -3.5292  -3.5259  -3.4458  -3.4435  -3.4418  -3.4392
    -3.4202  -3.4202  -1.3910  -1.3908   2.4279   2.4279   4.2746

          k = 0.3333 0.3333 0.3333 (  6169 PWs)   bands (ev):

    -3.5567  -3.5353  -3.5353  -3.4795  -3.4795  -3.4442  -3.4442  -3.4384
    -3.4299  -3.4299  -1.6584  -1.2927   2.9255   3.0194   3.0194

          k = 0.3333 0.3333 0.4167 (  6132 PWs)   bands (ev):

    -3.5563  -3.5432  -3.5211  -3.4894  -3.4647  -3.4459  -3.4455  -3.4397
    -3.4347  -3.4276  -1.5276  -1.3318   2.7969   2.7971   3.3809

          k = 0.3333 0.3333-0.5000 (  6154 PWs)   bands (ev):

    -3.5516  -3.5511  -3.5065  -3.5031  -3.4544  -3.4520  -3.4464  -3.4422
    -3.4302  -3.4289  -1.4124  -1.4123   2.7322   2.7323   3.8091

          k = 0.3333 0.4167 0.4167 (  6133 PWs)   bands (ev):

    -3.5512  -3.5373  -3.5198  -3.4930  -3.4596  -3.4458  -3.4419  -3.4415
    -3.4392  -3.4330  -1.4346  -1.3300   2.7560   2.7983   3.4621

          k = 0.3333 0.4167-0.5000 (  6116 PWs)   bands (ev):

    -3.5434  -3.5431  -3.5092  -3.5060  -3.4511  -3.4494  -3.4447  -3.4405
    -3.4377  -3.4353  -1.3644  -1.3642   2.7407   2.7408   3.7986

          k = 0.3333-0.5000-0.5000 (  6104 PWs)   bands (ev):

    -3.5378  -3.5378  -3.5141  -3.5109  -3.4454  -3.4454  -3.4443  -3.4433
    -3.4401  -3.4390  -1.3460  -1.3458   2.7229   2.7229   3.8750

          k = 0.4167 0.4167 0.4167 (  6106 PWs)   bands (ev):

    -3.5411  -3.5202  -3.5202  -3.4775  -3.4775  -3.4553  -3.4431  -3.4431
    -3.4386  -3.4386  -1.3689  -1.3134   2.8824   3.1654   3.1654

          k = 0.4167 0.4167-0.5000 (  6116 PWs)   bands (ev):

    -3.5295  -3.5292  -3.5012  -3.4980  -3.4655  -3.4654  -3.4436  -3.4426
    -3.4394  -3.4385  -1.3255  -1.3253   2.9906   2.9907   3.6004

          k = 0.4167-0.5000-0.5000 (  6096 PWs)   bands (ev):

    -3.5195  -3.5195  -3.5029  -3.4998  -3.4719  -3.4719  -3.4434  -3.4432
    -3.4391  -3.4388  -1.3107  -1.3105   3.0920   3.0920   3.6179

          k =-0.5000-0.5000-0.5000 (  6152 PWs)   bands (ev):

    -3.4988  -3.4988  -3.4988  -3.4957  -3.4957  -3.4957  -3.4431  -3.4431
    -3.4388  -3.4388  -1.2972  -1.2971   3.5290   3.5291   3.5293

     the Fermi energy is    -0.4156 ev

!    total energy              =   -1550.20161412 Ry

     total all-electron energy =    -76047.893796 Ry
     estimated scf accuracy    <       0.00000027 Ry
     smearing contrib. (-TS)   =      -0.55542685 Ry
     internal energy E=F+TS    =   -1549.64618727 Ry

     The total energy is F=E-TS. E is the sum of the following terms:
     one-electron contribution =     -60.85178708 Ry
     hartree contribution      =      46.80284350 Ry
     xc contribution           =     -63.42653751 Ry
     ewald contribution        =     -87.21011218 Ry
     one-center paw contrib.   =   -1384.96059400 Ry

     convergence has been achieved in  12 iterations

     Forces acting on atoms (cartesian axes, Ry/au):

     atom    1 type  1   force =     0.00000000    0.00000000    0.00000000
     atom    2 type  1   force =     0.00000000    0.00000000    0.00000000

     Total force =     0.000000     Total SCF correction =     0.000000

     Writing all to output data dir ./pwscf.save/
 
     init_run     :      0.76s CPU      1.07s WALL (       1 calls)
     electrons    :     24.72s CPU     25.72s WALL (       1 calls)
     forces       :      0.15s CPU      0.20s WALL (       1 calls)

     Called by init_run:
     wfcinit      :      0.52s CPU      0.53s WALL (       1 calls)
     potinit      :      0.06s CPU      0.17s WALL (       1 calls)
     hinit0       :      0.14s CPU      0.23s WALL (       1 calls)

     Called by electrons:
     c_bands      :     21.36s CPU     21.69s WALL (      13 calls)
     sum_band     :      2.54s CPU      2.60s WALL (      13 calls)
     v_of_rho     :      0.14s CPU      0.48s WALL (      13 calls)
     newd         :      0.16s CPU      0.24s WALL (      13 calls)
     PAW_pot      :      0.54s CPU      0.56s WALL (      13 calls)
     mix_rho      :      0.01s CPU      0.01s WALL (      13 calls)

     Called by c_bands:
     init_us_2    :      0.28s CPU      0.29s WALL (    2352 calls)
     init_us_2:cp :      0.28s CPU      0.29s WALL (    2352 calls)
     cegterg      :     19.99s CPU     20.29s WALL (    1092 calls)

     Called by *egterg:
     cdiaghg      :      3.17s CPU      3.21s WALL (    4353 calls)
     h_psi        :     12.95s CPU     13.16s WALL (    4521 calls)
     s_psi        :      0.50s CPU      0.50s WALL (    4521 calls)
     g_psi        :      0.08s CPU      0.08s WALL (    3345 calls)

     Called by h_psi:
     h_psi:calbec :      0.63s CPU      0.64s WALL (    4521 calls)
     vloc_psi     :     11.76s CPU     11.96s WALL (    4521 calls)
     add_vuspsi   :      0.50s CPU      0.51s WALL (    4521 calls)

     General routines
     calbec       :      0.83s CPU      0.84s WALL (    5949 calls)
     fft          :      0.17s CPU      0.74s WALL (     155 calls)
     ffts         :      0.01s CPU      0.03s WALL (      13 calls)
     fftw         :     12.70s CPU     12.91s WALL (  124364 calls)
 
     Parallel routines
 
     PWSCF        :     26.57s CPU     32.75s WALL

 
   This run was terminated on:  11:27:55   6Apr2024            

=------------------------------------------------------------------------------=
   JOB DONE.
=------------------------------------------------------------------------------=
