MPI startup(): Warning: I_MPI_PMI_LIBRARY will be ignored since the hydra process manager was found
MPI startup(): Warning: I_MPI_PMI_LIBRARY will be ignored since the hydra process manager was found
MPI startup(): Warning: I_MPI_PMI_LIBRARY will be ignored since the hydra process manager was found
MPI startup(): Warning: I_MPI_PMI_LIBRARY will be ignored since the hydra process manager was found
MPI startup(): Warning: I_MPI_PMI_LIBRARY will be ignored since the hydra process manager was found
MPI startup(): Warning: I_MPI_PMI_LIBRARY will be ignored since the hydra process manager was found
MPI startup(): Warning: I_MPI_PMI_LIBRARY will be ignored since the hydra process manager was found
MPI startup(): Warning: I_MPI_PMI_LIBRARY will be ignored since the hydra process manager was found
MPI startup(): Warning: I_MPI_PMI_LIBRARY will be ignored since the hydra process manager was found
MPI startup(): Warning: I_MPI_PMI_LIBRARY will be ignored since the hydra process manager was found

     Program PWSCF v.7.0 starts on  6Apr2024 at 11:27:20 

     This program is part of the open-source Quantum ESPRESSO suite
     for quantum simulation of materials; please cite
         "P. Giannozzi et al., J. Phys.:Condens. Matter 21 395502 (2009);
         "P. Giannozzi et al., J. Phys.:Condens. Matter 29 465901 (2017);
         "P. Giannozzi et al., J. Chem. Phys. 152 154105 (2020);
          URL http://www.quantum-espresso.org", 
     in publications or presentations arising from this work. More details at
     http://www.quantum-espresso.org/quote

     Parallel version (MPI), running on    10 processors

     MPI processes distributed on     1 nodes
     R & G space division:  proc/nbgrp/npool/nimage =      10
     219077 MiB available memory on the printing compute node when the environment starts
 
     Reading input from VolumeBCC_10.3.in
Warning: card &CELL ignored
Warning: card / ignored

     Current dimensions of program PWSCF are:
     Max number of different atomic species (ntypx) = 10
     Max number of k-points (npk) =  40000
     Max angular momentum in pseudopotentials (lmaxx) =  4
     file Au.pbe-n-kjpaw_psl.1.0.0.UPF: wavefunction(s)  6S 5D renormalized
     Found identity + ( -0.5000 -0.5000 -0.5000) symmetry
     This is a supercell, fractional translations are disabled
     Message from routine setup:
     using ibrav=0 with symmetry is DISCOURAGED, use correct ibrav instead

     Subspace diagonalization in iterative solution of the eigenvalue problem:
     one sub-group per band group will be used
     scalapack distributed-memory algorithm (size of sub-group:  3*  3 procs)

 
     Parallelization info
     --------------------
     sticks:   dense  smooth     PW     G-vecs:    dense   smooth      PW
     Min         168     168     48                 5216     5216     820
     Max         169     169     49                 5221     5221     823
     Sum        1685    1685    489                52179    52179    8217
 
     Using Slab Decomposition
 


     bravais-lattice index     =            0
     lattice parameter (alat)  =      10.2985  a.u.
     unit-cell volume          =    1092.2520 (a.u.)^3
     number of atoms/cell      =            2
     number of atomic types    =            1
     number of electrons       =        22.00
     number of Kohn-Sham states=           15
     kinetic-energy cutoff     =      50.0000  Ry
     charge density cutoff     =     200.0000  Ry
     scf convergence threshold =      1.0E-06
     mixing beta               =       0.7000
     number of iterations used =            8  plain     mixing
     Exchange-correlation= SLA  PW   PBX  PBC
                           (   1   4   3   4   0   0   0)

     celldm(1)=  10.298507  celldm(2)=   0.000000  celldm(3)=   0.000000
     celldm(4)=   0.000000  celldm(5)=   0.000000  celldm(6)=   0.000000

     crystal axes: (cart. coord. in units of alat)
               a(1) = (   1.000000   0.000000   0.000000 )  
               a(2) = (   0.000000   1.000000   0.000000 )  
               a(3) = (   0.000000   0.000000   1.000000 )  

     reciprocal axes: (cart. coord. in units 2 pi/alat)
               b(1) = (  1.000000  0.000000  0.000000 )  
               b(2) = (  0.000000  1.000000  0.000000 )  
               b(3) = (  0.000000  0.000000  1.000000 )  


     PseudoPot. # 1 for Au read from file:
     ./Au.pbe-n-kjpaw_psl.1.0.0.UPF
     MD5 check sum: 4db85c736373c707a97ce4c36c2a9d23
     Pseudo is Projector augmented-wave + core cor, Zval = 11.0
     Generated using &quot;atomic&quot; code by A. Dal Corso  v.6.3
     Shape of augmentation charge: PSQ
     Using radial grid of 1279 points,  6 beta functions with: 
                l(1) =   0
                l(2) =   0
                l(3) =   1
                l(4) =   1
                l(5) =   2
                l(6) =   2
     Q(r) pseudized with 0 coefficients 


     atomic species   valence    mass     pseudopotential
        Au            11.00   196.96657     Au( 1.00)

     48 Sym. Ops., with inversion, found



   Cartesian axes

     site n.     atom                  positions (alat units)
         1           Au  tau(   1) = (   0.0000000   0.0000000   0.0000000  )
         2           Au  tau(   2) = (   0.5000000   0.5000000   0.5000000  )

     number of k points=    84  Gaussian smearing, width (Ry)=  0.2000
                       cart. coord. in units 2pi/alat
        k(    1) = (   0.0000000   0.0000000   0.0000000), wk =   0.0011574
        k(    2) = (   0.0000000   0.0000000   0.0833333), wk =   0.0069444
        k(    3) = (   0.0000000   0.0000000   0.1666667), wk =   0.0069444
        k(    4) = (   0.0000000   0.0000000   0.2500000), wk =   0.0069444
        k(    5) = (   0.0000000   0.0000000   0.3333333), wk =   0.0069444
        k(    6) = (   0.0000000   0.0000000   0.4166667), wk =   0.0069444
        k(    7) = (   0.0000000   0.0000000  -0.5000000), wk =   0.0034722
        k(    8) = (   0.0000000   0.0833333   0.0833333), wk =   0.0138889
        k(    9) = (   0.0000000   0.0833333   0.1666667), wk =   0.0277778
        k(   10) = (   0.0000000   0.0833333   0.2500000), wk =   0.0277778
        k(   11) = (   0.0000000   0.0833333   0.3333333), wk =   0.0277778
        k(   12) = (   0.0000000   0.0833333   0.4166667), wk =   0.0277778
        k(   13) = (   0.0000000   0.0833333  -0.5000000), wk =   0.0138889
        k(   14) = (   0.0000000   0.1666667   0.1666667), wk =   0.0138889
        k(   15) = (   0.0000000   0.1666667   0.2500000), wk =   0.0277778
        k(   16) = (   0.0000000   0.1666667   0.3333333), wk =   0.0277778
        k(   17) = (   0.0000000   0.1666667   0.4166667), wk =   0.0277778
        k(   18) = (   0.0000000   0.1666667  -0.5000000), wk =   0.0138889
        k(   19) = (   0.0000000   0.2500000   0.2500000), wk =   0.0138889
        k(   20) = (   0.0000000   0.2500000   0.3333333), wk =   0.0277778
        k(   21) = (   0.0000000   0.2500000   0.4166667), wk =   0.0277778
        k(   22) = (   0.0000000   0.2500000  -0.5000000), wk =   0.0138889
        k(   23) = (   0.0000000   0.3333333   0.3333333), wk =   0.0138889
        k(   24) = (   0.0000000   0.3333333   0.4166667), wk =   0.0277778
        k(   25) = (   0.0000000   0.3333333  -0.5000000), wk =   0.0138889
        k(   26) = (   0.0000000   0.4166667   0.4166667), wk =   0.0138889
        k(   27) = (   0.0000000   0.4166667  -0.5000000), wk =   0.0138889
        k(   28) = (   0.0000000  -0.5000000  -0.5000000), wk =   0.0034722
        k(   29) = (   0.0833333   0.0833333   0.0833333), wk =   0.0092593
        k(   30) = (   0.0833333   0.0833333   0.1666667), wk =   0.0277778
        k(   31) = (   0.0833333   0.0833333   0.2500000), wk =   0.0277778
        k(   32) = (   0.0833333   0.0833333   0.3333333), wk =   0.0277778
        k(   33) = (   0.0833333   0.0833333   0.4166667), wk =   0.0277778
        k(   34) = (   0.0833333   0.0833333  -0.5000000), wk =   0.0138889
        k(   35) = (   0.0833333   0.1666667   0.1666667), wk =   0.0277778
        k(   36) = (   0.0833333   0.1666667   0.2500000), wk =   0.0555556
        k(   37) = (   0.0833333   0.1666667   0.3333333), wk =   0.0555556
        k(   38) = (   0.0833333   0.1666667   0.4166667), wk =   0.0555556
        k(   39) = (   0.0833333   0.1666667  -0.5000000), wk =   0.0277778
        k(   40) = (   0.0833333   0.2500000   0.2500000), wk =   0.0277778
        k(   41) = (   0.0833333   0.2500000   0.3333333), wk =   0.0555556
        k(   42) = (   0.0833333   0.2500000   0.4166667), wk =   0.0555556
        k(   43) = (   0.0833333   0.2500000  -0.5000000), wk =   0.0277778
        k(   44) = (   0.0833333   0.3333333   0.3333333), wk =   0.0277778
        k(   45) = (   0.0833333   0.3333333   0.4166667), wk =   0.0555556
        k(   46) = (   0.0833333   0.3333333  -0.5000000), wk =   0.0277778
        k(   47) = (   0.0833333   0.4166667   0.4166667), wk =   0.0277778
        k(   48) = (   0.0833333   0.4166667  -0.5000000), wk =   0.0277778
        k(   49) = (   0.0833333  -0.5000000  -0.5000000), wk =   0.0069444
        k(   50) = (   0.1666667   0.1666667   0.1666667), wk =   0.0092593
        k(   51) = (   0.1666667   0.1666667   0.2500000), wk =   0.0277778
        k(   52) = (   0.1666667   0.1666667   0.3333333), wk =   0.0277778
        k(   53) = (   0.1666667   0.1666667   0.4166667), wk =   0.0277778
        k(   54) = (   0.1666667   0.1666667  -0.5000000), wk =   0.0138889
        k(   55) = (   0.1666667   0.2500000   0.2500000), wk =   0.0277778
        k(   56) = (   0.1666667   0.2500000   0.3333333), wk =   0.0555556
        k(   57) = (   0.1666667   0.2500000   0.4166667), wk =   0.0555556
        k(   58) = (   0.1666667   0.2500000  -0.5000000), wk =   0.0277778
        k(   59) = (   0.1666667   0.3333333   0.3333333), wk =   0.0277778
        k(   60) = (   0.1666667   0.3333333   0.4166667), wk =   0.0555556
        k(   61) = (   0.1666667   0.3333333  -0.5000000), wk =   0.0277778
        k(   62) = (   0.1666667   0.4166667   0.4166667), wk =   0.0277778
        k(   63) = (   0.1666667   0.4166667  -0.5000000), wk =   0.0277778
        k(   64) = (   0.1666667  -0.5000000  -0.5000000), wk =   0.0069444
        k(   65) = (   0.2500000   0.2500000   0.2500000), wk =   0.0092593
        k(   66) = (   0.2500000   0.2500000   0.3333333), wk =   0.0277778
        k(   67) = (   0.2500000   0.2500000   0.4166667), wk =   0.0277778
        k(   68) = (   0.2500000   0.2500000  -0.5000000), wk =   0.0138889
        k(   69) = (   0.2500000   0.3333333   0.3333333), wk =   0.0277778
        k(   70) = (   0.2500000   0.3333333   0.4166667), wk =   0.0555556
        k(   71) = (   0.2500000   0.3333333  -0.5000000), wk =   0.0277778
        k(   72) = (   0.2500000   0.4166667   0.4166667), wk =   0.0277778
        k(   73) = (   0.2500000   0.4166667  -0.5000000), wk =   0.0277778
        k(   74) = (   0.2500000  -0.5000000  -0.5000000), wk =   0.0069444
        k(   75) = (   0.3333333   0.3333333   0.3333333), wk =   0.0092593
        k(   76) = (   0.3333333   0.3333333   0.4166667), wk =   0.0277778
        k(   77) = (   0.3333333   0.3333333  -0.5000000), wk =   0.0138889
        k(   78) = (   0.3333333   0.4166667   0.4166667), wk =   0.0277778
        k(   79) = (   0.3333333   0.4166667  -0.5000000), wk =   0.0277778
        k(   80) = (   0.3333333  -0.5000000  -0.5000000), wk =   0.0069444
        k(   81) = (   0.4166667   0.4166667   0.4166667), wk =   0.0092593
        k(   82) = (   0.4166667   0.4166667  -0.5000000), wk =   0.0138889
        k(   83) = (   0.4166667  -0.5000000  -0.5000000), wk =   0.0069444
        k(   84) = (  -0.5000000  -0.5000000  -0.5000000), wk =   0.0011574

     Dense  grid:    52179 G-vectors     FFT dimensions: (  48,  48,  48)

     Estimated max dynamical RAM per process >      32.32 MB

     Estimated total dynamical RAM >     323.25 MB

     Initial potential from superposition of free atoms

     starting charge      21.9998, renormalised to      22.0000
     Starting wfcs are   18 randomized atomic wfcs
     Checking if some PAW data can be deallocated... 

     total cpu time spent up to now is        1.0 secs

     Self-consistent Calculation

     iteration #  1     ecut=    50.00 Ry     beta= 0.70
     Davidson diagonalization with overlap
     ethr =  1.00E-02,  avg # of iterations =  2.0

     Threshold (ethr) on eigenvalues was too large:
     Diagonalizing with lowered threshold

     Davidson diagonalization with overlap
     ethr =  7.97E-04,  avg # of iterations =  2.0

     total cpu time spent up to now is        3.6 secs

     total energy              =   -1550.10560754 Ry
     estimated scf accuracy    <       0.17433516 Ry

     iteration #  2     ecut=    50.00 Ry     beta= 0.70
     Davidson diagonalization with overlap
     ethr =  7.92E-04,  avg # of iterations =  2.2

     total cpu time spent up to now is        5.2 secs

     total energy              =   -1550.17639457 Ry
     estimated scf accuracy    <       0.17308207 Ry

     iteration #  3     ecut=    50.00 Ry     beta= 0.70
     Davidson diagonalization with overlap
     ethr =  7.87E-04,  avg # of iterations =  1.0

     total cpu time spent up to now is        6.4 secs

     total energy              =   -1550.19730175 Ry
     estimated scf accuracy    <       0.00953440 Ry

     iteration #  4     ecut=    50.00 Ry     beta= 0.70
     Davidson diagonalization with overlap
     ethr =  4.33E-05,  avg # of iterations =  2.5

     total cpu time spent up to now is        8.0 secs

     total energy              =   -1550.19686952 Ry
     estimated scf accuracy    <       0.00319292 Ry

     iteration #  5     ecut=    50.00 Ry     beta= 0.70
     Davidson diagonalization with overlap
     ethr =  1.45E-05,  avg # of iterations =  5.0

     total cpu time spent up to now is       10.5 secs

     total energy              =   -1550.19605442 Ry
     estimated scf accuracy    <       0.01777574 Ry

     iteration #  6     ecut=    50.00 Ry     beta= 0.70
     Davidson diagonalization with overlap
     ethr =  1.45E-05,  avg # of iterations =  2.6

     total cpu time spent up to now is       12.2 secs

     total energy              =   -1550.19959000 Ry
     estimated scf accuracy    <       0.00004598 Ry

     iteration #  7     ecut=    50.00 Ry     beta= 0.70
     Davidson diagonalization with overlap
     ethr =  2.09E-07,  avg # of iterations =  7.4

     total cpu time spent up to now is       15.4 secs

     total energy              =   -1550.19969358 Ry
     estimated scf accuracy    <       0.00006961 Ry

     iteration #  8     ecut=    50.00 Ry     beta= 0.70
     Davidson diagonalization with overlap
     ethr =  2.09E-07,  avg # of iterations =  6.7

     total cpu time spent up to now is       18.3 secs

     total energy              =   -1550.19970933 Ry
     estimated scf accuracy    <       0.00076280 Ry

     iteration #  9     ecut=    50.00 Ry     beta= 0.70
     Davidson diagonalization with overlap
     ethr =  2.09E-07,  avg # of iterations =  2.0

     total cpu time spent up to now is       19.8 secs

     total energy              =   -1550.19964063 Ry
     estimated scf accuracy    <       0.00027975 Ry

     iteration # 10     ecut=    50.00 Ry     beta= 0.70
     Davidson diagonalization with overlap
     ethr =  2.09E-07,  avg # of iterations =  2.9

     total cpu time spent up to now is       21.4 secs

     total energy              =   -1550.19963212 Ry
     estimated scf accuracy    <       0.00004790 Ry

     iteration # 11     ecut=    50.00 Ry     beta= 0.70
     Davidson diagonalization with overlap
     ethr =  2.09E-07,  avg # of iterations =  3.0

     total cpu time spent up to now is       23.3 secs

     total energy              =   -1550.19965606 Ry
     estimated scf accuracy    <       0.00001788 Ry

     iteration # 12     ecut=    50.00 Ry     beta= 0.70
     Davidson diagonalization with overlap
     ethr =  8.13E-08,  avg # of iterations =  2.0

     total cpu time spent up to now is       24.7 secs

     End of self-consistent calculation

          k = 0.0000 0.0000 0.0000 (  6619 PWs)   bands (ev):

    -3.8132  -3.8132  -3.7846  -3.7846  -3.7846  -3.7070  -3.7070  -3.6658
    -3.6658  -3.6658  -3.0175  -1.0378   3.5079   3.5079   3.5079

          k = 0.0000 0.0000 0.0833 (  6527 PWs)   bands (ev):

    -3.8113  -3.8095  -3.7834  -3.7834  -3.7825  -3.7086  -3.7065  -3.6687
    -3.6687  -3.6678  -2.9892  -1.0723   3.4344   3.5466   3.5466

          k = 0.0000 0.0000 0.1667 (  6523 PWs)   bands (ev):

    -3.8057  -3.7988  -3.7797  -3.7797  -3.7765  -3.7137  -3.7059  -3.6771
    -3.6771  -3.6736  -2.9046  -1.1754   3.2853   3.6618   3.6618

          k = 0.0000 0.0000 0.2500 (  6527 PWs)   bands (ev):

    -3.7969  -3.7831  -3.7734  -3.7734  -3.7670  -3.7218  -3.7068  -3.6899
    -3.6899  -3.6830  -2.7660  -1.3439   3.1747   3.8503   3.8504

          k = 0.0000 0.0000 0.3333 (  6515 PWs)   bands (ev):

    -3.7856  -3.7648  -3.7642  -3.7642  -3.7546  -3.7324  -3.7106  -3.7054
    -3.7054  -3.6952  -2.5781  -1.5666   3.1690   4.1070   4.1072

          k = 0.0000 0.0000 0.4167 (  6512 PWs)   bands (ev):

    -3.7725  -3.7524  -3.7524  -3.7466  -3.7450  -3.7402  -3.7220  -3.7220
    -3.7184  -3.7094  -2.3491  -1.8237   3.2907   3.9066   4.4243

          k = 0.0000 0.0000-0.5000 (  6528 PWs)   bands (ev):

    -3.7587  -3.7586  -3.7381  -3.7381  -3.7380  -3.7380  -3.7307  -3.7306
    -3.7249  -3.7247  -2.0920  -2.0918   3.5396   3.5397   4.7921

          k = 0.0000 0.0833 0.0833 (  6535 PWs)   bands (ev):

    -3.8086  -3.8067  -3.7866  -3.7825  -3.7761  -3.7092  -3.7070  -3.6763
    -3.6716  -3.6649  -2.9608  -1.1033   3.3162   3.5849   3.6323

          k = 0.0000 0.0833 0.1667 (  6535 PWs)   bands (ev):

    -3.8030  -3.7965  -3.7870  -3.7797  -3.7664  -3.7134  -3.7066  -3.6885
    -3.6799  -3.6665  -2.8765  -1.1972   3.1403   3.6987   3.7750

          k = 0.0000 0.0833 0.2500 (  6529 PWs)   bands (ev):

    -3.7946  -3.7838  -3.7812  -3.7747  -3.7543  -3.7208  -3.7069  -3.7038
    -3.6923  -3.6726  -2.7385  -1.3534   3.0154   3.8848   3.9724

          k = 0.0000 0.0833 0.3333 (  6542 PWs)   bands (ev):

    -3.7840  -3.7771  -3.7675  -3.7635  -3.7403  -3.7302  -3.7208  -3.7100
    -3.7071  -3.6824  -2.5519  -1.5640   2.9988   4.1379   4.1666

          k = 0.0000 0.0833 0.4167 (  6515 PWs)   bands (ev):

    -3.7721  -3.7668  -3.7596  -3.7466  -3.7396  -3.7378  -3.7251  -3.7217
    -3.7168  -3.6951  -2.3257  -1.8115   3.1112   3.7081   4.4504

          k = 0.0000 0.0833-0.5000 (  6498 PWs)   bands (ev):

    -3.7611  -3.7610  -3.7535  -3.7535  -3.7399  -3.7399  -3.7262  -3.7261
    -3.7097  -3.7097  -2.0729  -2.0727   3.3513   3.3514   4.8115

          k = 0.0000 0.1667 0.1667 (  6541 PWs)   bands (ev):

    -3.7968  -3.7923  -3.7884  -3.7793  -3.7528  -3.7143  -3.7074  -3.7047
    -3.6876  -3.6627  -2.7929  -1.2656   2.9054   3.8082   3.9686

          k = 0.0000 0.1667 0.2500 (  6539 PWs)   bands (ev):

    -3.7938  -3.7895  -3.7780  -3.7746  -3.7376  -3.7228  -3.7186  -3.7074
    -3.6988  -3.6637  -2.6572  -1.3868   2.7273   3.9871   4.2277

          k = 0.0000 0.1667 0.3333 (  6537 PWs)   bands (ev):

    -3.7911  -3.7813  -3.7750  -3.7584  -3.7412  -3.7250  -3.7217  -3.7111
    -3.7090  -3.6692  -2.4754  -1.5616   2.6656   3.7184   4.2290

          k = 0.0000 0.1667 0.4167 (  6525 PWs)   bands (ev):

    -3.7841  -3.7738  -3.7713  -3.7584  -3.7438  -3.7316  -3.7206  -3.7136
    -3.7059  -3.6787  -2.2577  -1.7792   2.7420   3.2857   4.5258

          k = 0.0000 0.1667-0.5000 (  6528 PWs)   bands (ev):

    -3.7730  -3.7730  -3.7699  -3.7698  -3.7363  -3.7363  -3.7204  -3.7203
    -3.6913  -3.6912  -2.0190  -2.0188   2.9536   2.9537   4.8647

          k = 0.0000 0.2500 0.2500 (  6528 PWs)   bands (ev):

    -3.7999  -3.7846  -3.7814  -3.7627  -3.7425  -3.7203  -3.7177  -3.7078
    -3.7075  -3.6596  -2.5265  -1.4562   2.4809   3.7092   4.1527

          k = 0.0000 0.2500 0.3333 (  6520 PWs)   bands (ev):

    -3.8016  -3.7834  -3.7813  -3.7613  -3.7484  -3.7196  -3.7154  -3.7083
    -3.7036  -3.6604  -2.3543  -1.5736   2.3503   3.2284   4.3754

          k = 0.0000 0.2500 0.4167 (  6519 PWs)   bands (ev):

    -3.7984  -3.7832  -3.7804  -3.7777  -3.7356  -3.7234  -3.7190  -3.7108
    -3.6883  -3.6659  -2.1529  -1.7397   2.3663   2.8259   4.6440

          k = 0.0000 0.2500-0.5000 (  6558 PWs)   bands (ev):

    -3.7903  -3.7903  -3.7816  -3.7816  -3.7280  -3.7279  -3.7160  -3.7159
    -3.6754  -3.6754  -1.9405  -1.9404   2.5304   2.5304   4.9426

          k = 0.0000 0.3333 0.3333 (  6512 PWs)   bands (ev):

    -3.8076  -3.7898  -3.7844  -3.7794  -3.7361  -3.7177  -3.7165  -3.7081
    -3.6872  -3.6564  -2.1988  -1.6195   2.1384   2.7788   4.5679

          k = 0.0000 0.3333 0.4167 (  6510 PWs)   bands (ev):

    -3.8084  -3.7939  -3.7930  -3.7890  -3.7251  -3.7170  -3.7167  -3.7091
    -3.6735  -3.6575  -2.0251  -1.7139   2.0744   2.4149   4.7921

          k = 0.0000 0.3333-0.5000 (  6494 PWs)   bands (ev):

    -3.8037  -3.8037  -3.7924  -3.7924  -3.7192  -3.7192  -3.7128  -3.7127
    -3.6634  -3.6634  -1.8553  -1.8551   2.1710   2.1710   5.0273

          k = 0.0000 0.4167 0.4167 (  6502 PWs)   bands (ev):

    -3.8132  -3.8057  -3.7988  -3.7962  -3.7159  -3.7150  -3.7136  -3.7083
    -3.6625  -3.6541  -1.8948  -1.7253   1.9198   2.1035   4.9510

          k = 0.0000 0.4167-0.5000 (  6510 PWs)   bands (ev):

    -3.8123  -3.8123  -3.7999  -3.7998  -3.7137  -3.7136  -3.7101  -3.7099
    -3.6559  -3.6559  -1.7876  -1.7874   1.9300   1.9300   5.0941

          k = 0.0000-0.5000-0.5000 (  6496 PWs)   bands (ev):

    -3.8152  -3.8152  -3.8025  -3.8025  -3.7123  -3.7123  -3.7084  -3.7083
    -3.6533  -3.6533  -1.7615  -1.7613   1.8449   1.8449   5.1198

          k = 0.0833 0.0833 0.0833 (  6538 PWs)   bands (ev):

    -3.8049  -3.8049  -3.7855  -3.7855  -3.7706  -3.7085  -3.7085  -3.6846
    -3.6679  -3.6679  -2.9325  -1.1313   3.3549   3.3549   3.8332

          k = 0.0833 0.0833 0.1667 (  6540 PWs)   bands (ev):

    -3.7999  -3.7946  -3.7879  -3.7820  -3.7605  -3.7129  -3.7074  -3.6984
    -3.6763  -3.6671  -2.8484  -1.2171   3.1155   3.4701   4.0412

          k = 0.0833 0.0833 0.2500 (  6530 PWs)   bands (ev):

    -3.7921  -3.7874  -3.7795  -3.7762  -3.7482  -3.7198  -3.7146  -3.7072
    -3.6889  -3.6709  -2.7112  -1.3622   2.9527   3.6589   4.2707

          k = 0.0833 0.0833 0.3333 (  6535 PWs)   bands (ev):

    -3.7834  -3.7820  -3.7683  -3.7626  -3.7346  -3.7312  -3.7283  -3.7093
    -3.7041  -3.6788  -2.5262  -1.5616   2.9109   3.9166   4.0208

          k = 0.0833 0.0833 0.4167 (  6514 PWs)   bands (ev):

    -3.7757  -3.7710  -3.7604  -3.7532  -3.7400  -3.7358  -3.7231  -3.7198
    -3.7124  -3.6898  -2.3027  -1.7997   3.0053   3.5761   4.2366

          k = 0.0833 0.0833-0.5000 (  6520 PWs)   bands (ev):

    -3.7647  -3.7646  -3.7614  -3.7613  -3.7330  -3.7329  -3.7288  -3.7286
    -3.7028  -3.7027  -2.0544  -2.0542   3.2316   3.2317   4.6100

          k = 0.0833 0.1667 0.1667 (  6538 PWs)   bands (ev):

    -3.7933  -3.7912  -3.7872  -3.7822  -3.7489  -3.7144  -3.7134  -3.7084
    -3.6812  -3.6656  -2.7654  -1.2801   2.9444   3.4458   4.3167

          k = 0.0833 0.1667 0.2500 (  6537 PWs)   bands (ev):

    -3.7937  -3.7863  -3.7793  -3.7736  -3.7352  -3.7320  -3.7177  -3.7078
    -3.6926  -3.6660  -2.6307  -1.3934   2.7507   3.6032   4.1440

          k = 0.0833 0.1667 0.3333 (  6537 PWs)   bands (ev):

    -3.7932  -3.7786  -3.7743  -3.7594  -3.7473  -3.7239  -3.7214  -3.7079
    -3.7062  -3.6705  -2.4508  -1.5592   2.6670   3.6554   3.8493

          k = 0.0833 0.1667 0.4167 (  6524 PWs)   bands (ev):

    -3.7887  -3.7726  -3.7686  -3.7656  -3.7402  -3.7295  -3.7184  -3.7166
    -3.7024  -3.6788  -2.2361  -1.7685   2.7243   3.2378   4.1627

          k = 0.0833 0.1667-0.5000 (  6526 PWs)   bands (ev):

    -3.7804  -3.7804  -3.7661  -3.7660  -3.7322  -3.7321  -3.7221  -3.7220
    -3.6900  -3.6900  -2.0020  -2.0018   2.9200   2.9200   4.5315

          k = 0.0833 0.2500 0.2500 (  6539 PWs)   bands (ev):

    -3.7988  -3.7818  -3.7814  -3.7621  -3.7500  -3.7206  -3.7161  -3.7083
    -3.7016  -3.6626  -2.5015  -1.4588   2.5207   3.6675   3.7236

          k = 0.0833 0.2500 0.3333 (  6524 PWs)   bands (ev):

    -3.8012  -3.7822  -3.7794  -3.7657  -3.7476  -3.7190  -3.7111  -3.7097
    -3.7031  -3.6632  -2.3315  -1.5706   2.3841   3.2098   3.9458

          k = 0.0833 0.2500 0.4167 (  6514 PWs)   bands (ev):

    -3.8000  -3.7855  -3.7800  -3.7729  -3.7344  -3.7223  -3.7173  -3.7118
    -3.6892  -3.6682  -2.1335  -1.7306   2.3887   2.8228   4.2389

          k = 0.0833 0.2500-0.5000 (  6528 PWs)   bands (ev):

    -3.7945  -3.7945  -3.7763  -3.7763  -3.7263  -3.7262  -3.7165  -3.7164
    -3.6771  -3.6771  -1.9257  -1.9255   2.5403   2.5404   4.5842

          k = 0.0833 0.3333 0.3333 (  6515 PWs)   bands (ev):

    -3.8063  -3.7881  -3.7879  -3.7752  -3.7359  -3.7161  -3.7150  -3.7082
    -3.6892  -3.6598  -2.1788  -1.6148   2.1790   2.7835   4.1426

          k = 0.0833 0.3333 0.4167 (  6512 PWs)   bands (ev):

    -3.8078  -3.7982  -3.7900  -3.7821  -3.7248  -3.7162  -3.7158  -3.7093
    -3.6763  -3.6609  -2.0086  -1.7059   2.1118   2.4341   4.4046

          k = 0.0833 0.3333-0.5000 (  6500 PWs)   bands (ev):

    -3.8052  -3.8051  -3.7876  -3.7876  -3.7184  -3.7183  -3.7129  -3.7128
    -3.6666  -3.6666  -1.8430  -1.8428   2.2007   2.2007   4.7037

          k = 0.0833 0.4167 0.4167 (  6497 PWs)   bands (ev):

    -3.8116  -3.8071  -3.7959  -3.7908  -3.7159  -3.7141  -3.7132  -3.7083
    -3.6661  -3.6580  -1.8816  -1.7170   1.9610   2.1351   4.6174

          k = 0.0833 0.4167-0.5000 (  6504 PWs)   bands (ev):

    -3.8115  -3.8115  -3.7960  -3.7960  -3.7131  -3.7131  -3.7101  -3.7099
    -3.6598  -3.6598  -1.7775  -1.7773   1.9688   1.9688   4.8291

          k = 0.0833-0.5000-0.5000 (  6504 PWs)   bands (ev):

    -3.8136  -3.8136  -3.7992  -3.7992  -3.7119  -3.7119  -3.7084  -3.7082
    -3.6575  -3.6575  -1.7522  -1.7520   1.8864   1.8864   4.8863

          k = 0.1667 0.1667 0.1667 (  6526 PWs)   bands (ev):

    -3.7881  -3.7881  -3.7837  -3.7837  -3.7396  -3.7312  -3.7112  -3.7112
    -3.6740  -3.6740  -2.6840  -1.3277   3.0606   3.0606   4.3282

          k = 0.1667 0.1667 0.2500 (  6534 PWs)   bands (ev):

    -3.7936  -3.7828  -3.7783  -3.7702  -3.7484  -3.7281  -3.7156  -3.7089
    -3.6865  -3.6708  -2.5527  -1.4175   2.7752   3.2515   3.8931

          k = 0.1667 0.1667 0.3333 (  6524 PWs)   bands (ev):

    -3.7968  -3.7757  -3.7720  -3.7681  -3.7512  -3.7207  -3.7182  -3.7058
    -3.7009  -3.6722  -2.3787  -1.5564   2.6288   3.4541   3.5129

          k = 0.1667 0.1667 0.4167 (  6514 PWs)   bands (ev):

    -3.7961  -3.7810  -3.7683  -3.7662  -3.7370  -3.7247  -3.7178  -3.7146
    -3.6970  -3.6776  -2.1735  -1.7405   2.6365   3.0739   3.8395

          k = 0.1667 0.1667-0.5000 (  6546 PWs)   bands (ev):

    -3.7908  -3.7908  -3.7642  -3.7642  -3.7251  -3.7250  -3.7236  -3.7236
    -3.6864  -3.6864  -1.9538  -1.9536   2.7917   2.7917   4.2241

          k = 0.1667 0.2500 0.2500 (  6538 PWs)   bands (ev):

    -3.7955  -3.7843  -3.7729  -3.7639  -3.7605  -3.7183  -3.7136  -3.7097
    -3.6916  -3.6712  -2.4280  -1.4706   2.6390   3.2307   3.5262

          k = 0.1667 0.2500 0.3333 (  6521 PWs)   bands (ev):

    -3.7997  -3.7822  -3.7807  -3.7658  -3.7463  -3.7172  -3.7115  -3.7029
    -3.7026  -3.6709  -2.2652  -1.5654   2.4771   3.1359   3.4436

          k = 0.1667 0.2500 0.4167 (  6515 PWs)   bands (ev):

    -3.8019  -3.7932  -3.7744  -3.7652  -3.7326  -3.7195  -3.7139  -3.7129
    -3.6909  -3.6741  -2.0776  -1.7063   2.4417   2.7955   3.7529

          k = 0.1667 0.2500-0.5000 (  6520 PWs)   bands (ev):

    -3.7999  -3.7999  -3.7683  -3.7683  -3.7227  -3.7226  -3.7173  -3.7173
    -3.6809  -3.6809  -1.8839  -1.8837   2.5532   2.5533   4.1275

          k = 0.1667 0.3333 0.3333 (  6528 PWs)   bands (ev):

    -3.8023  -3.7943  -3.7845  -3.7658  -3.7358  -3.7151  -3.7087  -3.7085
    -3.6940  -3.6692  -2.1207  -1.6034   2.2998   2.7851   3.5950

          k = 0.1667 0.3333 0.4167 (  6518 PWs)   bands (ev):

    -3.8052  -3.8024  -3.7830  -3.7706  -3.7246  -3.7147  -3.7125  -3.7100
    -3.6835  -3.6703  -1.9613  -1.6841   2.2212   2.4831   3.8633

          k = 0.1667 0.3333-0.5000 (  6514 PWs)   bands (ev):

    -3.8059  -3.8059  -3.7774  -3.7773  -3.7167  -3.7165  -3.7131  -3.7130
    -3.6751  -3.6751  -1.8084  -1.8082   2.2842   2.2843   4.1985

          k = 0.1667 0.4167 0.4167 (  6500 PWs)   bands (ev):

    -3.8074  -3.8070  -3.7882  -3.7791  -3.7161  -3.7122  -3.7119  -3.7083
    -3.6761  -3.6688  -1.8440  -1.6940   2.0838   2.2261   4.0822

          k = 0.1667 0.4167-0.5000 (  6506 PWs)   bands (ev):

    -3.8083  -3.8083  -3.7863  -3.7863  -3.7118  -3.7117  -3.7101  -3.7100
    -3.6708  -3.6708  -1.7488  -1.7486   2.0833   2.0833   4.3384

          k = 0.1667-0.5000-0.5000 (  6512 PWs)   bands (ev):

    -3.8086  -3.8086  -3.7902  -3.7902  -3.7108  -3.7108  -3.7083  -3.7081
    -3.6692  -3.6692  -1.7260  -1.7258   2.0098   2.0098   4.4180

          k = 0.2500 0.2500 0.2500 (  6535 PWs)   bands (ev):

    -3.7899  -3.7899  -3.7801  -3.7584  -3.7584  -3.7118  -3.7118  -3.7115
    -3.6838  -3.6838  -2.3115  -1.5025   2.8336   2.8336   3.2777

          k = 0.2500 0.2500 0.3333 (  6514 PWs)   bands (ev):

    -3.7967  -3.7921  -3.7820  -3.7568  -3.7440  -3.7142  -3.7114  -3.7019
    -3.6976  -3.6798  -2.1614  -1.5682   2.5720   2.9760   3.1006

          k = 0.2500 0.2500 0.4167 (  6525 PWs)   bands (ev):

    -3.8019  -3.8002  -3.7726  -3.7578  -3.7306  -3.7160  -3.7140  -3.7092
    -3.6921  -3.6800  -1.9922  -1.6765   2.4668   2.7015   3.4352

          k = 0.2500 0.2500-0.5000 (  6496 PWs)   bands (ev):

    -3.8034  -3.8034  -3.7635  -3.7635  -3.7204  -3.7203  -3.7153  -3.7152
    -3.6844  -3.6844  -1.8234  -1.8232   2.5176   2.5177   3.8311

          k = 0.2500 0.3333 0.3333 (  6514 PWs)   bands (ev):

    -3.8002  -3.7955  -3.7827  -3.7530  -3.7363  -3.7130  -3.7094  -3.7016
    -3.6987  -3.6826  -2.0309  -1.5939   2.4984   2.7499   3.1240

          k = 0.2500 0.3333 0.4167 (  6507 PWs)   bands (ev):

    -3.8043  -3.8000  -3.7761  -3.7573  -3.7252  -3.7129  -3.7108  -3.7085
    -3.6921  -3.6830  -1.8898  -1.6562   2.3897   2.5336   3.3992

          k = 0.2500 0.3333-0.5000 (  6510 PWs)   bands (ev):

    -3.8040  -3.8040  -3.7663  -3.7662  -3.7163  -3.7161  -3.7120  -3.7120
    -3.6861  -3.6861  -1.7584  -1.7582   2.3994   2.3994   3.7683

          k = 0.2500 0.4167 0.4167 (  6506 PWs)   bands (ev):

    -3.8048  -3.7989  -3.7787  -3.7645  -3.7171  -3.7111  -3.7093  -3.7083
    -3.6901  -3.6843  -1.7882  -1.6627   2.2855   2.3624   3.5869

          k = 0.2500 0.4167-0.5000 (  6510 PWs)   bands (ev):

    -3.8020  -3.8019  -3.7736  -3.7736  -3.7107  -3.7105  -3.7101  -3.7100
    -3.6867  -3.6867  -1.7075  -1.7073   2.2675   2.2675   3.8684

          k = 0.2500-0.5000-0.5000 (  6504 PWs)   bands (ev):

    -3.8001  -3.8001  -3.7779  -3.7778  -3.7095  -3.7094  -3.7081  -3.7079
    -3.6869  -3.6869  -1.6881  -1.6879   2.2127   2.2127   3.9514

          k = 0.3333 0.3333 0.3333 (  6497 PWs)   bands (ev):

    -3.8036  -3.7858  -3.7858  -3.7391  -3.7391  -3.7102  -3.7102  -3.7011
    -3.6964  -3.6964  -1.9205  -1.5997   2.6560   2.7711   2.7711

          k = 0.3333 0.3333 0.4167 (  6514 PWs)   bands (ev):

    -3.8033  -3.7925  -3.7734  -3.7468  -3.7265  -3.7109  -3.7107  -3.7061
    -3.6992  -3.6944  -1.8056  -1.6344   2.5440   2.5593   3.1130

          k = 0.3333 0.3333-0.5000 (  6522 PWs)   bands (ev):

    -3.7992  -3.7992  -3.7596  -3.7595  -3.7168  -3.7167  -3.7101  -3.7100
    -3.6957  -3.6956  -1.7050  -1.7048   2.4920   2.4920   3.5184

          k = 0.3333 0.4167 0.4167 (  6519 PWs)   bands (ev):

    -3.7990  -3.7874  -3.7719  -3.7495  -3.7219  -3.7103  -3.7083  -3.7072
    -3.7041  -3.6995  -1.7245  -1.6333   2.5129   2.5623   3.1887

          k = 0.3333 0.4167-0.5000 (  6520 PWs)   bands (ev):

    -3.7923  -3.7923  -3.7616  -3.7615  -3.7139  -3.7138  -3.7088  -3.7087
    -3.7023  -3.7023  -1.6634  -1.6632   2.5053   2.5053   3.5066

          k = 0.3333-0.5000-0.5000 (  6536 PWs)   bands (ev):

    -3.7878  -3.7878  -3.7654  -3.7653  -3.7084  -3.7083  -3.7083  -3.7083
    -3.7079  -3.7078  -1.6476  -1.6474   2.4911   2.4911   3.5769

          k = 0.4167 0.4167 0.4167 (  6527 PWs)   bands (ev):

    -3.7903  -3.7725  -3.7725  -3.7361  -3.7361  -3.7163  -3.7083  -3.7083
    -3.7064  -3.7064  -1.6668  -1.6186   2.6359   2.9094   2.9094

          k = 0.4167 0.4167-0.5000 (  6534 PWs)   bands (ev):

    -3.7802  -3.7802  -3.7549  -3.7547  -3.7254  -3.7254  -3.7081  -3.7079
    -3.7072  -3.7070  -1.6291  -1.6289   2.7425   2.7425   3.3210

          k = 0.4167-0.5000-0.5000 (  6536 PWs)   bands (ev):

    -3.7719  -3.7719  -3.7561  -3.7560  -3.7309  -3.7309  -3.7079  -3.7078
    -3.7077  -3.7076  -1.6161  -1.6158   2.8400   2.8400   3.3366

          k =-0.5000-0.5000-0.5000 (  6488 PWs)   bands (ev):

    -3.7527  -3.7527  -3.7527  -3.7525  -3.7525  -3.7525  -3.7077  -3.7077
    -3.7076  -3.7076  -1.6041  -1.6039   3.2538   3.2539   3.2539

     the Fermi energy is    -0.6788 ev

!    total energy              =   -1550.19966054 Ry

     total all-electron energy =    -76047.891843 Ry
     estimated scf accuracy    <       0.00000009 Ry
     smearing contrib. (-TS)   =      -0.55673726 Ry
     internal energy E=F+TS    =   -1549.64292328 Ry

     The total energy is F=E-TS. E is the sum of the following terms:
     one-electron contribution =     -63.81157010 Ry
     hartree contribution      =      48.07623389 Ry
     xc contribution           =     -63.42855676 Ry
     ewald contribution        =     -85.51671195 Ry
     one-center paw contrib.   =   -1384.96231837 Ry

     convergence has been achieved in  12 iterations

     Forces acting on atoms (cartesian axes, Ry/au):

     atom    1 type  1   force =     0.00000000    0.00000000    0.00000000
     atom    2 type  1   force =     0.00000000    0.00000000    0.00000000

     Total force =     0.000000     Total SCF correction =     0.000000

     Writing all to output data dir ./pwscf.save/
 
     init_run     :      0.64s CPU      0.80s WALL (       1 calls)
     electrons    :     23.04s CPU     23.72s WALL (       1 calls)
     forces       :      0.12s CPU      0.19s WALL (       1 calls)

     Called by init_run:
     wfcinit      :      0.46s CPU      0.47s WALL (       1 calls)
     potinit      :      0.05s CPU      0.10s WALL (       1 calls)
     hinit0       :      0.09s CPU      0.14s WALL (       1 calls)

     Called by electrons:
     c_bands      :     20.10s CPU     20.45s WALL (      13 calls)
     sum_band     :      2.20s CPU      2.33s WALL (      13 calls)
     v_of_rho     :      0.16s CPU      0.37s WALL (      13 calls)
     newd         :      0.14s CPU      0.19s WALL (      13 calls)
     PAW_pot      :      0.45s CPU      0.45s WALL (      13 calls)
     mix_rho      :      0.01s CPU      0.01s WALL (      13 calls)

     Called by c_bands:
     init_us_2    :      0.27s CPU      0.28s WALL (    2352 calls)
     init_us_2:cp :      0.27s CPU      0.27s WALL (    2352 calls)
     cegterg      :     18.79s CPU     19.11s WALL (    1092 calls)

     Called by *egterg:
     cdiaghg      :      3.33s CPU      3.38s WALL (    4475 calls)
     h_psi        :     11.64s CPU     11.87s WALL (    4643 calls)
     s_psi        :      0.42s CPU      0.43s WALL (    4643 calls)
     g_psi        :      0.08s CPU      0.08s WALL (    3467 calls)

     Called by h_psi:
     h_psi:calbec :      0.65s CPU      0.66s WALL (    4643 calls)
     vloc_psi     :     10.48s CPU     10.68s WALL (    4643 calls)
     add_vuspsi   :      0.46s CPU      0.46s WALL (    4643 calls)

     General routines
     calbec       :      0.82s CPU      0.84s WALL (    6071 calls)
     fft          :      0.15s CPU      0.53s WALL (     155 calls)
     ffts         :      0.00s CPU      0.02s WALL (      13 calls)
     fftw         :     11.18s CPU     11.40s WALL (  126718 calls)
 
     Parallel routines
 
     PWSCF        :     24.19s CPU     26.22s WALL

 
   This run was terminated on:  11:27:47   6Apr2024            

=------------------------------------------------------------------------------=
   JOB DONE.
=------------------------------------------------------------------------------=
