MPI startup(): Warning: I_MPI_PMI_LIBRARY will be ignored since the hydra process manager was found
MPI startup(): Warning: I_MPI_PMI_LIBRARY will be ignored since the hydra process manager was found
MPI startup(): Warning: I_MPI_PMI_LIBRARY will be ignored since the hydra process manager was found
MPI startup(): Warning: I_MPI_PMI_LIBRARY will be ignored since the hydra process manager was found
MPI startup(): Warning: I_MPI_PMI_LIBRARY will be ignored since the hydra process manager was found
MPI startup(): Warning: I_MPI_PMI_LIBRARY will be ignored since the hydra process manager was found
MPI startup(): Warning: I_MPI_PMI_LIBRARY will be ignored since the hydra process manager was found
MPI startup(): Warning: I_MPI_PMI_LIBRARY will be ignored since the hydra process manager was found
MPI startup(): Warning: I_MPI_PMI_LIBRARY will be ignored since the hydra process manager was found
MPI startup(): Warning: I_MPI_PMI_LIBRARY will be ignored since the hydra process manager was found

     Program PWSCF v.7.0 starts on  6Apr2024 at 11:27:22 

     This program is part of the open-source Quantum ESPRESSO suite
     for quantum simulation of materials; please cite
         "P. Giannozzi et al., J. Phys.:Condens. Matter 21 395502 (2009);
         "P. Giannozzi et al., J. Phys.:Condens. Matter 29 465901 (2017);
         "P. Giannozzi et al., J. Chem. Phys. 152 154105 (2020);
          URL http://www.quantum-espresso.org", 
     in publications or presentations arising from this work. More details at
     http://www.quantum-espresso.org/quote

     Parallel version (MPI), running on    10 processors

     MPI processes distributed on     1 nodes
     R & G space division:  proc/nbgrp/npool/nimage =      10
     186050 MiB available memory on the printing compute node when the environment starts
 
     Reading input from VolumeBCC_9.8.in
Warning: card &CELL ignored
Warning: card / ignored

     Current dimensions of program PWSCF are:
     Max number of different atomic species (ntypx) = 10
     Max number of k-points (npk) =  40000
     Max angular momentum in pseudopotentials (lmaxx) =  4
     file Au.pbe-n-kjpaw_psl.1.0.0.UPF: wavefunction(s)  6S 5D renormalized
     Found identity + ( -0.5000 -0.5000 -0.5000) symmetry
     This is a supercell, fractional translations are disabled
     Message from routine setup:
     using ibrav=0 with symmetry is DISCOURAGED, use correct ibrav instead

     Subspace diagonalization in iterative solution of the eigenvalue problem:
     one sub-group per band group will be used
     scalapack distributed-memory algorithm (size of sub-group:  3*  3 procs)

 
     Parallelization info
     --------------------
     sticks:   dense  smooth     PW     G-vecs:    dense   smooth      PW
     Min         153     153     43                 4501     4501     705
     Max         154     154     44                 4504     4504     710
     Sum        1533    1533    437                45025    45025    7075
 
     Using Slab Decomposition
 


     bravais-lattice index     =            0
     lattice parameter (alat)  =       9.7986  a.u.
     unit-cell volume          =     940.7829 (a.u.)^3
     number of atoms/cell      =            2
     number of atomic types    =            1
     number of electrons       =        22.00
     number of Kohn-Sham states=           15
     kinetic-energy cutoff     =      50.0000  Ry
     charge density cutoff     =     200.0000  Ry
     scf convergence threshold =      1.0E-06
     mixing beta               =       0.7000
     number of iterations used =            8  plain     mixing
     Exchange-correlation= SLA  PW   PBX  PBC
                           (   1   4   3   4   0   0   0)

     celldm(1)=   9.798580  celldm(2)=   0.000000  celldm(3)=   0.000000
     celldm(4)=   0.000000  celldm(5)=   0.000000  celldm(6)=   0.000000

     crystal axes: (cart. coord. in units of alat)
               a(1) = (   1.000000   0.000000   0.000000 )  
               a(2) = (   0.000000   1.000000   0.000000 )  
               a(3) = (   0.000000   0.000000   1.000000 )  

     reciprocal axes: (cart. coord. in units 2 pi/alat)
               b(1) = (  1.000000  0.000000  0.000000 )  
               b(2) = (  0.000000  1.000000  0.000000 )  
               b(3) = (  0.000000  0.000000  1.000000 )  


     PseudoPot. # 1 for Au read from file:
     ./Au.pbe-n-kjpaw_psl.1.0.0.UPF
     MD5 check sum: 4db85c736373c707a97ce4c36c2a9d23
     Pseudo is Projector augmented-wave + core cor, Zval = 11.0
     Generated using &quot;atomic&quot; code by A. Dal Corso  v.6.3
     Shape of augmentation charge: PSQ
     Using radial grid of 1279 points,  6 beta functions with: 
                l(1) =   0
                l(2) =   0
                l(3) =   1
                l(4) =   1
                l(5) =   2
                l(6) =   2
     Q(r) pseudized with 0 coefficients 


     atomic species   valence    mass     pseudopotential
        Au            11.00   196.96657     Au( 1.00)

     48 Sym. Ops., with inversion, found



   Cartesian axes

     site n.     atom                  positions (alat units)
         1           Au  tau(   1) = (   0.0000000   0.0000000   0.0000000  )
         2           Au  tau(   2) = (   0.5000000   0.5000000   0.5000000  )

     number of k points=    84  Gaussian smearing, width (Ry)=  0.2000
                       cart. coord. in units 2pi/alat
        k(    1) = (   0.0000000   0.0000000   0.0000000), wk =   0.0011574
        k(    2) = (   0.0000000   0.0000000   0.0833333), wk =   0.0069444
        k(    3) = (   0.0000000   0.0000000   0.1666667), wk =   0.0069444
        k(    4) = (   0.0000000   0.0000000   0.2500000), wk =   0.0069444
        k(    5) = (   0.0000000   0.0000000   0.3333333), wk =   0.0069444
        k(    6) = (   0.0000000   0.0000000   0.4166667), wk =   0.0069444
        k(    7) = (   0.0000000   0.0000000  -0.5000000), wk =   0.0034722
        k(    8) = (   0.0000000   0.0833333   0.0833333), wk =   0.0138889
        k(    9) = (   0.0000000   0.0833333   0.1666667), wk =   0.0277778
        k(   10) = (   0.0000000   0.0833333   0.2500000), wk =   0.0277778
        k(   11) = (   0.0000000   0.0833333   0.3333333), wk =   0.0277778
        k(   12) = (   0.0000000   0.0833333   0.4166667), wk =   0.0277778
        k(   13) = (   0.0000000   0.0833333  -0.5000000), wk =   0.0138889
        k(   14) = (   0.0000000   0.1666667   0.1666667), wk =   0.0138889
        k(   15) = (   0.0000000   0.1666667   0.2500000), wk =   0.0277778
        k(   16) = (   0.0000000   0.1666667   0.3333333), wk =   0.0277778
        k(   17) = (   0.0000000   0.1666667   0.4166667), wk =   0.0277778
        k(   18) = (   0.0000000   0.1666667  -0.5000000), wk =   0.0138889
        k(   19) = (   0.0000000   0.2500000   0.2500000), wk =   0.0138889
        k(   20) = (   0.0000000   0.2500000   0.3333333), wk =   0.0277778
        k(   21) = (   0.0000000   0.2500000   0.4166667), wk =   0.0277778
        k(   22) = (   0.0000000   0.2500000  -0.5000000), wk =   0.0138889
        k(   23) = (   0.0000000   0.3333333   0.3333333), wk =   0.0138889
        k(   24) = (   0.0000000   0.3333333   0.4166667), wk =   0.0277778
        k(   25) = (   0.0000000   0.3333333  -0.5000000), wk =   0.0138889
        k(   26) = (   0.0000000   0.4166667   0.4166667), wk =   0.0138889
        k(   27) = (   0.0000000   0.4166667  -0.5000000), wk =   0.0138889
        k(   28) = (   0.0000000  -0.5000000  -0.5000000), wk =   0.0034722
        k(   29) = (   0.0833333   0.0833333   0.0833333), wk =   0.0092593
        k(   30) = (   0.0833333   0.0833333   0.1666667), wk =   0.0277778
        k(   31) = (   0.0833333   0.0833333   0.2500000), wk =   0.0277778
        k(   32) = (   0.0833333   0.0833333   0.3333333), wk =   0.0277778
        k(   33) = (   0.0833333   0.0833333   0.4166667), wk =   0.0277778
        k(   34) = (   0.0833333   0.0833333  -0.5000000), wk =   0.0138889
        k(   35) = (   0.0833333   0.1666667   0.1666667), wk =   0.0277778
        k(   36) = (   0.0833333   0.1666667   0.2500000), wk =   0.0555556
        k(   37) = (   0.0833333   0.1666667   0.3333333), wk =   0.0555556
        k(   38) = (   0.0833333   0.1666667   0.4166667), wk =   0.0555556
        k(   39) = (   0.0833333   0.1666667  -0.5000000), wk =   0.0277778
        k(   40) = (   0.0833333   0.2500000   0.2500000), wk =   0.0277778
        k(   41) = (   0.0833333   0.2500000   0.3333333), wk =   0.0555556
        k(   42) = (   0.0833333   0.2500000   0.4166667), wk =   0.0555556
        k(   43) = (   0.0833333   0.2500000  -0.5000000), wk =   0.0277778
        k(   44) = (   0.0833333   0.3333333   0.3333333), wk =   0.0277778
        k(   45) = (   0.0833333   0.3333333   0.4166667), wk =   0.0555556
        k(   46) = (   0.0833333   0.3333333  -0.5000000), wk =   0.0277778
        k(   47) = (   0.0833333   0.4166667   0.4166667), wk =   0.0277778
        k(   48) = (   0.0833333   0.4166667  -0.5000000), wk =   0.0277778
        k(   49) = (   0.0833333  -0.5000000  -0.5000000), wk =   0.0069444
        k(   50) = (   0.1666667   0.1666667   0.1666667), wk =   0.0092593
        k(   51) = (   0.1666667   0.1666667   0.2500000), wk =   0.0277778
        k(   52) = (   0.1666667   0.1666667   0.3333333), wk =   0.0277778
        k(   53) = (   0.1666667   0.1666667   0.4166667), wk =   0.0277778
        k(   54) = (   0.1666667   0.1666667  -0.5000000), wk =   0.0138889
        k(   55) = (   0.1666667   0.2500000   0.2500000), wk =   0.0277778
        k(   56) = (   0.1666667   0.2500000   0.3333333), wk =   0.0555556
        k(   57) = (   0.1666667   0.2500000   0.4166667), wk =   0.0555556
        k(   58) = (   0.1666667   0.2500000  -0.5000000), wk =   0.0277778
        k(   59) = (   0.1666667   0.3333333   0.3333333), wk =   0.0277778
        k(   60) = (   0.1666667   0.3333333   0.4166667), wk =   0.0555556
        k(   61) = (   0.1666667   0.3333333  -0.5000000), wk =   0.0277778
        k(   62) = (   0.1666667   0.4166667   0.4166667), wk =   0.0277778
        k(   63) = (   0.1666667   0.4166667  -0.5000000), wk =   0.0277778
        k(   64) = (   0.1666667  -0.5000000  -0.5000000), wk =   0.0069444
        k(   65) = (   0.2500000   0.2500000   0.2500000), wk =   0.0092593
        k(   66) = (   0.2500000   0.2500000   0.3333333), wk =   0.0277778
        k(   67) = (   0.2500000   0.2500000   0.4166667), wk =   0.0277778
        k(   68) = (   0.2500000   0.2500000  -0.5000000), wk =   0.0138889
        k(   69) = (   0.2500000   0.3333333   0.3333333), wk =   0.0277778
        k(   70) = (   0.2500000   0.3333333   0.4166667), wk =   0.0555556
        k(   71) = (   0.2500000   0.3333333  -0.5000000), wk =   0.0277778
        k(   72) = (   0.2500000   0.4166667   0.4166667), wk =   0.0277778
        k(   73) = (   0.2500000   0.4166667  -0.5000000), wk =   0.0277778
        k(   74) = (   0.2500000  -0.5000000  -0.5000000), wk =   0.0069444
        k(   75) = (   0.3333333   0.3333333   0.3333333), wk =   0.0092593
        k(   76) = (   0.3333333   0.3333333   0.4166667), wk =   0.0277778
        k(   77) = (   0.3333333   0.3333333  -0.5000000), wk =   0.0138889
        k(   78) = (   0.3333333   0.4166667   0.4166667), wk =   0.0277778
        k(   79) = (   0.3333333   0.4166667  -0.5000000), wk =   0.0277778
        k(   80) = (   0.3333333  -0.5000000  -0.5000000), wk =   0.0069444
        k(   81) = (   0.4166667   0.4166667   0.4166667), wk =   0.0092593
        k(   82) = (   0.4166667   0.4166667  -0.5000000), wk =   0.0138889
        k(   83) = (   0.4166667  -0.5000000  -0.5000000), wk =   0.0069444
        k(   84) = (  -0.5000000  -0.5000000  -0.5000000), wk =   0.0011574

     Dense  grid:    45025 G-vectors     FFT dimensions: (  45,  45,  45)

     Estimated max dynamical RAM per process >      28.02 MB

     Estimated total dynamical RAM >     280.23 MB

     Initial potential from superposition of free atoms

     starting charge      21.9998, renormalised to      22.0000
     Starting wfcs are   18 randomized atomic wfcs
     Checking if some PAW data can be deallocated... 

     total cpu time spent up to now is        1.5 secs

     Self-consistent Calculation

     iteration #  1     ecut=    50.00 Ry     beta= 0.70
     Davidson diagonalization with overlap
     ethr =  1.00E-02,  avg # of iterations =  2.5

     Threshold (ethr) on eigenvalues was too large:
     Diagonalizing with lowered threshold

     Davidson diagonalization with overlap
     ethr =  7.91E-04,  avg # of iterations =  2.4

     total cpu time spent up to now is        4.5 secs

     total energy              =   -1550.11331302 Ry
     estimated scf accuracy    <       0.17386917 Ry

     iteration #  2     ecut=    50.00 Ry     beta= 0.70
     Davidson diagonalization with overlap
     ethr =  7.90E-04,  avg # of iterations =  2.0

     total cpu time spent up to now is        6.3 secs

     total energy              =   -1550.18263045 Ry
     estimated scf accuracy    <       0.16490742 Ry

     iteration #  3     ecut=    50.00 Ry     beta= 0.70
     Davidson diagonalization with overlap
     ethr =  7.50E-04,  avg # of iterations =  1.0

     total cpu time spent up to now is        7.5 secs

     total energy              =   -1550.20301804 Ry
     estimated scf accuracy    <       0.00864249 Ry

     iteration #  4     ecut=    50.00 Ry     beta= 0.70
     Davidson diagonalization with overlap
     ethr =  3.93E-05,  avg # of iterations =  2.5

     total cpu time spent up to now is        9.2 secs

     total energy              =   -1550.20295077 Ry
     estimated scf accuracy    <       0.00276829 Ry

     iteration #  5     ecut=    50.00 Ry     beta= 0.70
     Davidson diagonalization with overlap
     ethr =  1.26E-05,  avg # of iterations =  5.6

     total cpu time spent up to now is       12.1 secs

     total energy              =   -1550.20128296 Ry
     estimated scf accuracy    <       0.02142704 Ry

     iteration #  6     ecut=    50.00 Ry     beta= 0.70
     Davidson diagonalization with overlap
     ethr =  1.26E-05,  avg # of iterations =  3.0

     total cpu time spent up to now is       14.0 secs

     total energy              =   -1550.20516917 Ry
     estimated scf accuracy    <       0.00015717 Ry

     iteration #  7     ecut=    50.00 Ry     beta= 0.70
     Davidson diagonalization with overlap
     ethr =  7.14E-07,  avg # of iterations =  5.0

     total cpu time spent up to now is       16.5 secs

     total energy              =   -1550.20517742 Ry
     estimated scf accuracy    <       0.00013883 Ry

     iteration #  8     ecut=    50.00 Ry     beta= 0.70
     Davidson diagonalization with overlap
     ethr =  6.31E-07,  avg # of iterations =  5.0

     total cpu time spent up to now is       19.1 secs

     total energy              =   -1550.20529686 Ry
     estimated scf accuracy    <       0.00037142 Ry

     iteration #  9     ecut=    50.00 Ry     beta= 0.70
     Davidson diagonalization with overlap
     ethr =  6.31E-07,  avg # of iterations =  1.1

     total cpu time spent up to now is       20.3 secs

     total energy              =   -1550.20526190 Ry
     estimated scf accuracy    <       0.00017766 Ry

     iteration # 10     ecut=    50.00 Ry     beta= 0.70
     Davidson diagonalization with overlap
     ethr =  6.31E-07,  avg # of iterations =  1.0

     total cpu time spent up to now is       21.6 secs

     total energy              =   -1550.20522284 Ry
     estimated scf accuracy    <       0.00007114 Ry

     iteration # 11     ecut=    50.00 Ry     beta= 0.70
     Davidson diagonalization with overlap
     ethr =  3.23E-07,  avg # of iterations =  2.1

     total cpu time spent up to now is       23.2 secs

     total energy              =   -1550.20525004 Ry
     estimated scf accuracy    <       0.00000563 Ry

     iteration # 12     ecut=    50.00 Ry     beta= 0.70
     Davidson diagonalization with overlap
     ethr =  2.56E-08,  avg # of iterations =  4.1

     total cpu time spent up to now is       25.2 secs

     End of self-consistent calculation

          k = 0.0000 0.0000 0.0000 (  5575 PWs)   bands (ev):

    -3.1538  -3.1538  -3.1065  -3.1065  -3.1065  -2.9913  -2.9913  -2.9336
    -2.9336  -2.9336  -2.6379  -0.0346   4.2850   4.2850   4.2850

          k = 0.0000 0.0000 0.0833 (  5594 PWs)   bands (ev):

    -3.1509  -3.1482  -3.1049  -3.1049  -3.1036  -2.9939  -2.9907  -2.9381
    -2.9381  -2.9365  -2.6035  -0.0849   4.2079   4.3309   4.3309

          k = 0.0000 0.0000 0.1667 (  5602 PWs)   bands (ev):

    -3.1424  -3.1323  -3.0999  -3.0999  -3.0949  -3.0016  -2.9902  -2.9509
    -2.9509  -2.9451  -2.5001  -0.2344   4.0599   4.4670   4.4670

          k = 0.0000 0.0000 0.2500 (  5622 PWs)   bands (ev):

    -3.1289  -3.1089  -3.0913  -3.0913  -3.0810  -3.0140  -2.9925  -2.9702
    -2.9702  -2.9587  -2.3292  -0.4744   3.9698   4.6894   4.6894

          k = 0.0000 0.0000 0.3333 (  5598 PWs)   bands (ev):

    -3.1115  -3.0815  -3.0786  -3.0786  -3.0630  -3.0302  -2.9992  -2.9934
    -2.9934  -2.9765  -2.0955  -0.7831   4.0052   4.9918   4.9922

          k = 0.0000 0.0000 0.4167 (  5610 PWs)   bands (ev):

    -3.0916  -3.0619  -3.0619  -3.0543  -3.0494  -3.0421  -3.0179  -3.0179
    -3.0117  -2.9973  -1.8078  -1.1287   4.1833   4.9416   5.3655

          k = 0.0000 0.0000-0.5000 (  5622 PWs)   bands (ev):

    -3.0717  -3.0690  -3.0424  -3.0424  -3.0402  -3.0402  -3.0316  -3.0290
    -3.0208  -3.0186  -1.4791  -1.4790   4.4991   4.4993   5.7988

          k = 0.0000 0.0833 0.0833 (  5601 PWs)   bands (ev):

    -3.1468  -3.1440  -3.1097  -3.1040  -3.0943  -2.9947  -2.9914  -2.9494
    -2.9425  -2.9324  -2.5688  -0.1291   4.0611   4.3761   4.4472

          k = 0.0000 0.0833 0.1667 (  5599 PWs)   bands (ev):

    -3.1383  -3.1288  -3.1104  -3.1008  -3.0804  -3.0012  -2.9909  -2.9676
    -2.9552  -2.9347  -2.4651  -0.2630   3.8683   4.5104   4.6237

          k = 0.0000 0.0833 0.2500 (  5620 PWs)   bands (ev):

    -3.1255  -3.1062  -3.1059  -3.0946  -3.0629  -3.0124  -2.9922  -2.9904
    -2.9740  -2.9437  -2.2942  -0.4838   3.7544   4.7299   4.8576

          k = 0.0000 0.0833 0.3333 (  5612 PWs)   bands (ev):

    -3.1093  -3.0968  -3.0851  -3.0795  -3.0426  -3.0268  -3.0154  -2.9976
    -2.9960  -2.9582  -2.0615  -0.7756   3.7750   5.0280   5.1604

          k = 0.0000 0.0833 0.4167 (  5607 PWs)   bands (ev):

    -3.0913  -3.0824  -3.0741  -3.0547  -3.0415  -3.0405  -3.0205  -3.0171
    -3.0082  -2.9769  -1.7761  -1.1092   3.9437   4.6861   5.3957

          k = 0.0000 0.0833-0.5000 (  5622 PWs)   bands (ev):

    -3.0763  -3.0738  -3.0636  -3.0630  -3.0462  -3.0438  -3.0234  -3.0208
    -2.9985  -2.9978  -1.4520  -1.4519   4.2522   4.2524   5.8215

          k = 0.0000 0.1667 0.1667 (  5603 PWs)   bands (ev):

    -3.1291  -3.1183  -3.1164  -3.1024  -3.0606  -3.0025  -2.9917  -2.9916
    -2.9672  -2.9290  -2.3609  -0.3547   3.5846   4.6394   4.8676

          k = 0.0000 0.1667 0.2500 (  5620 PWs)   bands (ev):

    -3.1208  -3.1182  -3.1024  -3.0955  -3.0387  -3.0183  -3.0090  -2.9920
    -2.9843  -2.9305  -2.1910  -0.5206   3.3896   4.8498   5.1383

          k = 0.0000 0.1667 0.3333 (  5606 PWs)   bands (ev):

    -3.1173  -3.1063  -3.0996  -3.0713  -3.0455  -3.0188  -3.0155  -3.0024
    -2.9946  -2.9388  -1.9619  -0.7611   3.3471   4.6802   5.1353

          k = 0.0000 0.1667 0.4167 (  5609 PWs)   bands (ev):

    -3.1076  -3.0964  -3.0941  -3.0706  -3.0501  -3.0296  -3.0150  -3.0019
    -2.9926  -2.9528  -1.6843  -1.0564   3.4716   4.1608   5.4842

          k = 0.0000 0.1667-0.5000 (  5606 PWs)   bands (ev):

    -3.0928  -3.0919  -3.0916  -3.0904  -3.0397  -3.0372  -3.0137  -3.0111
    -2.9713  -2.9710  -1.3745  -1.3744   3.7501   3.7502   5.8849

          k = 0.0000 0.2500 0.2500 (  5574 PWs)   bands (ev):

    -3.1300  -3.1120  -3.1100  -3.0772  -3.0475  -3.0135  -3.0075  -2.9975
    -2.9920  -2.9245  -2.0245  -0.6065   3.0934   4.6637   5.0451

          k = 0.0000 0.2500 0.3333 (  5594 PWs)   bands (ev):

    -3.1328  -3.1152  -3.1081  -3.0750  -3.0554  -3.0109  -3.0083  -2.9928
    -2.9891  -2.9257  -1.8034  -0.7623   2.9526   4.0872   5.3062

          k = 0.0000 0.2500 0.4167 (  5610 PWs)   bands (ev):

    -3.1285  -3.1156  -3.1086  -3.0988  -3.0364  -3.0170  -3.0119  -2.9968
    -2.9667  -2.9338  -1.5414  -0.9884   2.9988   3.5960   5.6229

          k = 0.0000 0.2500-0.5000 (  5590 PWs)   bands (ev):

    -3.1170  -3.1169  -3.1135  -3.1112  -3.0260  -3.0235  -3.0065  -3.0039
    -2.9479  -2.9478  -1.2598  -1.2597   3.2227   3.2227   5.9765

          k = 0.0000 0.3333 0.3333 (  5610 PWs)   bands (ev):

    -3.1417  -3.1268  -3.1154  -3.1014  -3.0359  -3.0115  -3.0057  -2.9922
    -2.9651  -2.9199  -1.5978  -0.8124   2.6955   3.5397   5.5325

          k = 0.0000 0.3333 0.4167 (  5604 PWs)   bands (ev):

    -3.1432  -3.1323  -3.1242  -3.1224  -3.0193  -3.0089  -3.0063  -2.9937
    -2.9450  -2.9215  -1.3642  -0.9368   2.6317   3.0872   5.7975

          k = 0.0000 0.3333-0.5000 (  5616 PWs)   bands (ev):

    -3.1367  -3.1366  -3.1321  -3.1298  -3.0121  -3.0096  -3.0013  -2.9987
    -2.9302  -2.9301  -1.1315  -1.1314   2.7712   2.7712   6.0770

          k = 0.0000 0.4167 0.4167 (  5614 PWs)   bands (ev):

    -3.1503  -3.1422  -3.1396  -3.1368  -3.0056  -3.0044  -3.0018  -2.9922
    -2.9288  -2.9166  -1.1797  -0.9411   2.4402   2.6925   5.9857

          k = 0.0000 0.4167-0.5000 (  5612 PWs)   bands (ev):

    -3.1491  -3.1491  -3.1446  -3.1424  -3.0038  -3.0013  -2.9964  -2.9937
    -2.9191  -2.9191  -1.0260  -1.0259   2.4630   2.4630   6.1573

          k = 0.0000-0.5000-0.5000 (  5656 PWs)   bands (ev):

    -3.1534  -3.1534  -3.1490  -3.1468  -3.0018  -2.9993  -2.9937  -2.9910
    -2.9153  -2.9153  -0.9843  -0.9842   2.3525   2.3525   6.1883

          k = 0.0833 0.0833 0.0833 (  5596 PWs)   bands (ev):

    -3.1413  -3.1413  -3.1082  -3.1082  -3.0870  -2.9937  -2.9937  -2.9618
    -2.9368  -2.9368  -2.5340  -0.1684   4.1066   4.1066   4.6895

          k = 0.0833 0.0833 0.1667 (  5615 PWs)   bands (ev):

    -3.1337  -3.1259  -3.1122  -3.1036  -3.0731  -3.0004  -2.9920  -2.9825
    -2.9496  -2.9357  -2.4300  -0.2889   3.8365   4.2417   4.9429

          k = 0.0833 0.0833 0.2500 (  5619 PWs)   bands (ev):

    -3.1217  -3.1123  -3.1034  -3.0957  -3.0557  -3.0108  -3.0067  -2.9921
    -2.9687  -2.9414  -2.2594  -0.4926   3.6733   4.4629   5.2145

          k = 0.0833 0.0833 0.3333 (  5612 PWs)   bands (ev):

    -3.1073  -3.1064  -3.0849  -3.0783  -3.0363  -3.0310  -3.0239  -2.9958
    -2.9914  -2.9531  -2.0280  -0.7687   3.6615   4.7642   5.0529

          k = 0.0833 0.0833 0.4167 (  5614 PWs)   bands (ev):

    -3.0969  -3.0897  -3.0740  -3.0653  -3.0429  -3.0356  -3.0197  -3.0143
    -3.0006  -2.9693  -1.7451  -1.0905   3.8087   4.5238   5.1379

          k = 0.0833 0.0833-0.5000 (  5606 PWs)   bands (ev):

    -3.0817  -3.0809  -3.0765  -3.0740  -3.0340  -3.0317  -3.0278  -3.0257
    -2.9881  -2.9878  -1.4256  -1.4255   4.1023   4.1024   5.5741

          k = 0.0833 0.1667 0.1667 (  5612 PWs)   bands (ev):

    -3.1238  -3.1170  -3.1146  -3.1052  -3.0572  -3.0067  -3.0011  -2.9932
    -2.9572  -2.9335  -2.3260  -0.3728   3.6302   4.2180   5.2764

          k = 0.0833 0.1667 0.2500 (  5619 PWs)   bands (ev):

    -3.1214  -3.1134  -3.1025  -3.0941  -3.0378  -3.0326  -3.0075  -2.9924
    -2.9744  -2.9342  -2.1569  -0.5272   3.4166   4.4032   5.1889

          k = 0.0833 0.1667 0.3333 (  5609 PWs)   bands (ev):

    -3.1217  -3.1021  -3.0961  -3.0737  -3.0545  -3.0176  -3.0169  -2.9945
    -2.9926  -2.9409  -1.9296  -0.7551   3.3476   4.6091   4.6896

          k = 0.0833 0.1667 0.4167 (  5616 PWs)   bands (ev):

    -3.1164  -3.0944  -3.0881  -3.0819  -3.0436  -3.0262  -3.0118  -3.0082
    -2.9869  -2.9532  -1.6551  -1.0399   3.4496   4.1057   5.0533

          k = 0.0833 0.1667-0.5000 (  5612 PWs)   bands (ev):

    -3.1054  -3.1047  -3.0846  -3.0825  -3.0330  -3.0306  -3.0164  -3.0141
    -2.9697  -2.9696  -1.3504  -1.3503   3.7102   3.7104   5.4816

          k = 0.0833 0.2500 0.2500 (  5610 PWs)   bands (ev):

    -3.1287  -3.1096  -3.1066  -3.0763  -3.0593  -3.0157  -3.0055  -2.9928
    -2.9881  -2.9291  -1.9919  -0.6083   3.1396   4.5479   4.6187

          k = 0.0833 0.2500 0.3333 (  5606 PWs)   bands (ev):

    -3.1330  -3.1117  -3.1053  -3.0819  -3.0541  -3.0096  -3.0018  -2.9967
    -2.9883  -2.9301  -1.7734  -0.7569   2.9919   4.0675   4.8068

          k = 0.0833 0.2500 0.4167 (  5609 PWs)   bands (ev):

    -3.1326  -3.1143  -3.1082  -3.0939  -3.0343  -3.0152  -3.0093  -2.9988
    -2.9688  -2.9376  -1.5153  -0.9748   3.0245   3.5930   5.1463

          k = 0.0833 0.2500-0.5000 (  5606 PWs)   bands (ev):

    -3.1263  -3.1256  -3.1024  -3.1005  -3.0233  -3.0208  -3.0074  -3.0049
    -2.9509  -2.9508  -1.2391  -1.2390   3.2341   3.2341   5.5468

          k = 0.0833 0.3333 0.3333 (  5603 PWs)   bands (ev):

    -3.1401  -3.1233  -3.1185  -3.0972  -3.0358  -3.0075  -3.0047  -2.9924
    -2.9695  -2.9250  -1.5713  -0.8055   2.7429   3.5458   5.0367

          k = 0.0833 0.3333 0.4167 (  5600 PWs)   bands (ev):

    -3.1432  -3.1326  -3.1262  -3.1103  -3.0188  -3.0073  -3.0051  -2.9941
    -2.9500  -2.9268  -1.3422  -0.9259   2.6752   3.1094   5.3408

          k = 0.0833 0.3333-0.5000 (  5614 PWs)   bands (ev):

    -3.1415  -3.1409  -3.1219  -3.1201  -3.0108  -3.0082  -3.0015  -2.9989
    -2.9354  -2.9353  -1.1149  -1.1148   2.8055   2.8055   5.6895

          k = 0.0833 0.4167 0.4167 (  5622 PWs)   bands (ev):

    -3.1483  -3.1447  -3.1369  -3.1258  -3.0045  -3.0043  -3.0010  -2.9921
    -2.9348  -2.9225  -1.1624  -0.9307   2.4886   2.7290   5.5896

          k = 0.0833 0.4167-0.5000 (  5620 PWs)   bands (ev):

    -3.1495  -3.1492  -3.1371  -3.1352  -3.0029  -3.0004  -2.9964  -2.9937
    -2.9253  -2.9253  -1.0132  -1.0131   2.5083   2.5083   5.8404

          k = 0.0833-0.5000-0.5000 (  5612 PWs)   bands (ev):

    -3.1512  -3.1512  -3.1436  -3.1414  -3.0011  -2.9985  -2.9936  -2.9909
    -2.9219  -2.9219  -0.9730  -0.9729   2.4012   2.4012   5.9102

          k = 0.1667 0.1667 0.1667 (  5617 PWs)   bands (ev):

    -3.1129  -3.1129  -3.1092  -3.1092  -3.0466  -3.0320  -2.9976  -2.9976
    -2.9462  -2.9462  -2.2230  -0.4339   3.7655   3.7655   5.4126

          k = 0.1667 0.1667 0.2500 (  5613 PWs)   bands (ev):

    -3.1219  -3.1061  -3.1011  -3.0891  -3.0577  -3.0305  -3.0042  -2.9939
    -2.9649  -2.9416  -2.0568  -0.5539   3.4421   3.9873   4.8979

          k = 0.1667 0.1667 0.3333 (  5624 PWs)   bands (ev):

    -3.1279  -3.0967  -3.0915  -3.0879  -3.0596  -3.0151  -3.0120  -2.9900
    -2.9862  -2.9437  -1.8353  -0.7437   3.2951   4.2903   4.3720

          k = 0.1667 0.1667 0.4167 (  5616 PWs)   bands (ev):

    -3.1280  -3.1069  -3.0868  -3.0830  -3.0384  -3.0184  -3.0112  -3.0057
    -2.9800  -2.9521  -1.5706  -0.9953   3.3369   3.9081   4.6680

          k = 0.1667 0.1667-0.5000 (  5608 PWs)   bands (ev):

    -3.1213  -3.1207  -3.0818  -3.0794  -3.0218  -3.0198  -3.0189  -3.0165
    -2.9651  -2.9651  -1.2817  -1.2816   3.5513   3.5514   5.1124

          k = 0.1667 0.2500 0.2500 (  5610 PWs)   bands (ev):

    -3.1244  -3.1102  -3.0942  -3.0803  -3.0740  -3.0163  -3.0021  -2.9949
    -2.9727  -2.9421  -1.8967  -0.6196   3.2773   3.9673   4.4588

          k = 0.1667 0.2500 0.3333 (  5613 PWs)   bands (ev):

    -3.1317  -3.1092  -3.1061  -3.0827  -3.0523  -3.0070  -3.0020  -2.9891
    -2.9885  -2.9419  -1.6861  -0.7456   3.0995   3.9838   4.2150

          k = 0.1667 0.2500 0.4167 (  5628 PWs)   bands (ev):

    -3.1365  -3.1252  -3.0974  -3.0826  -3.0315  -3.0106  -3.0037  -3.0024
    -2.9727  -2.9469  -1.4397  -0.9383   3.0842   3.5610   4.5717

          k = 0.1667 0.2500-0.5000 (  5620 PWs)   bands (ev):

    -3.1349  -3.1344  -3.0892  -3.0870  -3.0176  -3.0153  -3.0090  -3.0065
    -2.9576  -2.9576  -1.1804  -1.1803   3.2470   3.2471   5.0031

          k = 0.1667 0.3333 0.3333 (  5627 PWs)   bands (ev):

    -3.1349  -3.1271  -3.1150  -3.0838  -3.0359  -3.0036  -2.9967  -2.9931
    -2.9798  -2.9393  -1.4941  -0.7886   2.8838   3.5486   4.3948

          k = 0.1667 0.3333 0.4167 (  5615 PWs)   bands (ev):

    -3.1405  -3.1389  -3.1133  -3.0925  -3.0185  -3.0037  -3.0009  -2.9954
    -2.9628  -2.9412  -1.2786  -0.8960   2.8024   3.1657   4.7059

          k = 0.1667 0.3333-0.5000 (  5614 PWs)   bands (ev):

    -3.1434  -3.1430  -3.1050  -3.1030  -3.0076  -3.0051  -3.0021  -2.9996
    -2.9492  -2.9492  -1.0680  -1.0678   2.9017   2.9018   5.0930

          k = 0.1667 0.4167 0.4167 (  5614 PWs)   bands (ev):

    -3.1458  -3.1420  -3.1237  -3.1072  -3.0049  -3.0011  -2.9986  -2.9921
    -2.9514  -2.9392  -1.1128  -0.9015   2.6323   2.8340   4.9625

          k = 0.1667 0.4167-0.5000 (  5628 PWs)   bands (ev):

    -3.1458  -3.1455  -3.1209  -3.1189  -3.0005  -2.9980  -2.9966  -2.9939
    -2.9427  -2.9427  -0.9766  -0.9764   2.6418   2.6418   5.2619

          k = 0.1667-0.5000-0.5000 (  5628 PWs)   bands (ev):

    -3.1446  -3.1446  -3.1287  -3.1265  -2.9991  -2.9965  -2.9934  -2.9907
    -2.9403  -2.9403  -0.9407  -0.9406   2.5460   2.5460   5.3589

          k = 0.2500 0.2500 0.2500 (  5614 PWs)   bands (ev):

    -3.1170  -3.1170  -3.1057  -3.0710  -3.0710  -3.0096  -2.9981  -2.9981
    -2.9608  -2.9608  -1.7454  -0.6572   3.5030   3.5030   4.1621

          k = 0.2500 0.2500 0.3333 (  5630 PWs)   bands (ev):

    -3.1279  -3.1238  -3.1065  -3.0692  -3.0491  -3.0025  -3.0018  -2.9899
    -2.9808  -2.9551  -1.5487  -0.7433   3.2064   3.7899   3.8117

          k = 0.2500 0.2500 0.4167 (  5629 PWs)   bands (ev):

    -3.1369  -3.1356  -3.0936  -3.0716  -3.0288  -3.0049  -3.0044  -2.9966
    -2.9757  -2.9561  -1.3233  -0.8916   3.1051   3.4415   4.1972

          k = 0.2500 0.2500-0.5000 (  5632 PWs)   bands (ev):

    -3.1403  -3.1398  -3.0817  -3.0793  -3.0143  -3.0124  -3.0056  -3.0031
    -2.9635  -2.9633  -1.0941  -1.0939   3.1948   3.1949   4.6525

          k = 0.2500 0.3333 0.3333 (  5637 PWs)   bands (ev):

    -3.1359  -3.1258  -3.1093  -3.0642  -3.0373  -3.0007  -2.9941  -2.9894
    -2.9861  -2.9591  -1.3739  -0.7731   3.1147   3.5037   3.8422

          k = 0.2500 0.3333 0.4167 (  5643 PWs)   bands (ev):

    -3.1419  -3.1337  -3.1005  -3.0720  -3.0203  -3.0003  -2.9977  -2.9948
    -2.9769  -2.9602  -1.1815  -0.8568   2.9976   3.2206   4.1604

          k = 0.2500 0.3333-0.5000 (  5640 PWs)   bands (ev):

    -3.1410  -3.1406  -3.0871  -3.0849  -3.0074  -3.0054  -3.0005  -2.9979
    -2.9662  -2.9659  -0.9991  -0.9990   3.0328   3.0329   4.5846

          k = 0.2500 0.4167 0.4167 (  5630 PWs)   bands (ev):

    -3.1423  -3.1312  -3.1070  -3.0844  -3.0072  -2.9980  -2.9949  -2.9922
    -2.9741  -2.9624  -1.0380  -0.8609   2.8675   2.9905   4.3824

          k = 0.2500 0.4167-0.5000 (  5632 PWs)   bands (ev):

    -3.1371  -3.1368  -3.1003  -3.0982  -2.9977  -2.9975  -2.9952  -2.9949
    -2.9673  -2.9671  -0.9228  -0.9226   2.8558   2.8558   4.7092

          k = 0.2500-0.5000-0.5000 (  5644 PWs)   bands (ev):

    -3.1330  -3.1330  -3.1084  -3.1061  -2.9966  -2.9940  -2.9931  -2.9904
    -2.9678  -2.9678  -0.8931  -0.8929   2.7828   2.7828   4.8108

          k = 0.3333 0.3333 0.3333 (  5644 PWs)   bands (ev):

    -3.1411  -3.1127  -3.1127  -3.0428  -3.0428  -2.9954  -2.9954  -2.9945
    -2.9785  -2.9785  -1.2241  -0.7782   3.3775   3.4303   3.4303

          k = 0.3333 0.3333 0.4167 (  5647 PWs)   bands (ev):

    -3.1405  -3.1231  -3.0955  -3.0561  -3.0236  -3.0000  -2.9965  -2.9908
    -2.9865  -2.9760  -1.0652  -0.8249   3.1910   3.2196   3.8243

          k = 0.3333 0.3333-0.5000 (  5642 PWs)   bands (ev):

    -3.1341  -3.1338  -3.0766  -3.0743  -3.0097  -3.0085  -2.9970  -2.9944
    -2.9795  -2.9785  -0.9239  -0.9238   3.1315   3.1316   4.2899

          k = 0.3333 0.4167 0.4167 (  5636 PWs)   bands (ev):

    -3.1340  -3.1154  -3.0947  -3.0611  -3.0173  -2.9994  -2.9933  -2.9924
    -2.9911  -2.9825  -0.9511  -0.8218   3.1604   3.1885   3.9149

          k = 0.3333 0.4167-0.5000 (  5640 PWs)   bands (ev):

    -3.1236  -3.1234  -3.0807  -3.0786  -3.0060  -3.0053  -2.9949  -2.9922
    -2.9878  -2.9860  -0.8640  -0.8638   3.1306   3.1307   4.2816

          k = 0.3333-0.5000-0.5000 (  5644 PWs)   bands (ev):

    -3.1162  -3.1162  -3.0879  -3.0857  -3.0004  -3.0004  -2.9943  -2.9928
    -2.9917  -2.9901  -0.8409  -0.8407   3.1059   3.1059   4.3688

          k = 0.4167 0.4167 0.4167 (  5658 PWs)   bands (ev):

    -3.1213  -3.0945  -3.0945  -3.0410  -3.0410  -3.0143  -2.9929  -2.9929
    -2.9897  -2.9897  -0.8708  -0.8020   3.2915   3.5890   3.5890

          k = 0.4167 0.4167-0.5000 (  5648 PWs)   bands (ev):

    -3.1063  -3.1061  -3.0701  -3.0679  -3.0263  -3.0262  -2.9933  -2.9921
    -2.9907  -2.9895  -0.8173  -0.8170   3.4015   3.4015   4.0619

          k = 0.4167-0.5000-0.5000 (  5620 PWs)   bands (ev):

    -3.0937  -3.0937  -3.0727  -3.0705  -3.0342  -3.0342  -2.9930  -2.9926
    -2.9903  -2.9899  -0.7993  -0.7990   3.5088   3.5088   4.0833

          k =-0.5000-0.5000-0.5000 (  5616 PWs)   bands (ev):

    -3.0671  -3.0671  -3.0671  -3.0649  -3.0649  -3.0649  -2.9925  -2.9925
    -2.9899  -2.9899  -0.7832  -0.7830   3.9843   3.9844   3.9846

     the Fermi energy is     0.0257 ev

!    total energy              =   -1550.20525145 Ry

     total all-electron energy =    -76047.897434 Ry
     estimated scf accuracy    <       0.00000091 Ry
     smearing contrib. (-TS)   =      -0.55391198 Ry
     internal energy E=F+TS    =   -1549.65133947 Ry

     The total energy is F=E-TS. E is the sum of the following terms:
     one-electron contribution =     -56.21937776 Ry
     hartree contribution      =      44.83799250 Ry
     xc contribution           =     -63.42846779 Ry
     ewald contribution        =     -89.87980949 Ry
     one-center paw contrib.   =   -1384.96167692 Ry

     convergence has been achieved in  12 iterations

     Forces acting on atoms (cartesian axes, Ry/au):

     atom    1 type  1   force =     0.00000000    0.00000000   -0.00000000
     atom    2 type  1   force =     0.00000000   -0.00000000    0.00000000

     Total force =     0.000000     Total SCF correction =     0.000000

     Writing all to output data dir ./pwscf.save/

 %%%%%%%%%%%%%%%%%%%%%%%%%%%%%%%%%%%%%%%%%%%%%%%%%%%%%%%%%%%%%%%%%%%%%%%%%%%%%%
     Error in routine write_rhog (1):
     error opening file ./pwscf.save/charge-density
 %%%%%%%%%%%%%%%%%%%%%%%%%%%%%%%%%%%%%%%%%%%%%%%%%%%%%%%%%%%%%%%%%%%%%%%%%%%%%%

     stopping ...

 %%%%%%%%%%%%%%%%%%%%%%%%%%%%%%%%%%%%%%%%%%%%%%%%%%%%%%%%%%%%%%%%%%%%%%%%%%%%%%
     Error in routine write_rhog (1):
     error opening file ./pwscf.save/charge-density
 %%%%%%%%%%%%%%%%%%%%%%%%%%%%%%%%%%%%%%%%%%%%%%%%%%%%%%%%%%%%%%%%%%%%%%%%%%%%%%

     stopping ...

 %%%%%%%%%%%%%%%%%%%%%%%%%%%%%%%%%%%%%%%%%%%%%%%%%%%%%%%%%%%%%%%%%%%%%%%%%%%%%%
     Error in routine write_rhog (1):
     error opening file ./pwscf.save/charge-density
 %%%%%%%%%%%%%%%%%%%%%%%%%%%%%%%%%%%%%%%%%%%%%%%%%%%%%%%%%%%%%%%%%%%%%%%%%%%%%%

     stopping ...

 %%%%%%%%%%%%%%%%%%%%%%%%%%%%%%%%%%%%%%%%%%%%%%%%%%%%%%%%%%%%%%%%%%%%%%%%%%%%%%
     Error in routine write_rhog (1):
     error opening file ./pwscf.save/charge-density
 %%%%%%%%%%%%%%%%%%%%%%%%%%%%%%%%%%%%%%%%%%%%%%%%%%%%%%%%%%%%%%%%%%%%%%%%%%%%%%

     stopping ...

 %%%%%%%%%%%%%%%%%%%%%%%%%%%%%%%%%%%%%%%%%%%%%%%%%%%%%%%%%%%%%%%%%%%%%%%%%%%%%%
     Error in routine write_rhog (1):
     error opening file ./pwscf.save/charge-density
 %%%%%%%%%%%%%%%%%%%%%%%%%%%%%%%%%%%%%%%%%%%%%%%%%%%%%%%%%%%%%%%%%%%%%%%%%%%%%%

     stopping ...

 %%%%%%%%%%%%%%%%%%%%%%%%%%%%%%%%%%%%%%%%%%%%%%%%%%%%%%%%%%%%%%%%%%%%%%%%%%%%%%
     Error in routine write_rhog (1):
     error opening file ./pwscf.save/charge-density
 %%%%%%%%%%%%%%%%%%%%%%%%%%%%%%%%%%%%%%%%%%%%%%%%%%%%%%%%%%%%%%%%%%%%%%%%%%%%%%

     stopping ...

 %%%%%%%%%%%%%%%%%%%%%%%%%%%%%%%%%%%%%%%%%%%%%%%%%%%%%%%%%%%%%%%%%%%%%%%%%%%%%%
     Error in routine write_rhog (1):
     error opening file ./pwscf.save/charge-density
 %%%%%%%%%%%%%%%%%%%%%%%%%%%%%%%%%%%%%%%%%%%%%%%%%%%%%%%%%%%%%%%%%%%%%%%%%%%%%%

     stopping ...

 %%%%%%%%%%%%%%%%%%%%%%%%%%%%%%%%%%%%%%%%%%%%%%%%%%%%%%%%%%%%%%%%%%%%%%%%%%%%%%
     Error in routine write_rhog (1):
     error opening file ./pwscf.save/charge-density
 %%%%%%%%%%%%%%%%%%%%%%%%%%%%%%%%%%%%%%%%%%%%%%%%%%%%%%%%%%%%%%%%%%%%%%%%%%%%%%

     stopping ...

 %%%%%%%%%%%%%%%%%%%%%%%%%%%%%%%%%%%%%%%%%%%%%%%%%%%%%%%%%%%%%%%%%%%%%%%%%%%%%%
     Error in routine write_rhog (1):
     error opening file ./pwscf.save/charge-density
 %%%%%%%%%%%%%%%%%%%%%%%%%%%%%%%%%%%%%%%%%%%%%%%%%%%%%%%%%%%%%%%%%%%%%%%%%%%%%%

     stopping ...

 %%%%%%%%%%%%%%%%%%%%%%%%%%%%%%%%%%%%%%%%%%%%%%%%%%%%%%%%%%%%%%%%%%%%%%%%%%%%%%
     Error in routine write_rhog (1):
     error opening file ./pwscf.save/charge-density
 %%%%%%%%%%%%%%%%%%%%%%%%%%%%%%%%%%%%%%%%%%%%%%%%%%%%%%%%%%%%%%%%%%%%%%%%%%%%%%

     stopping ...
