MPI startup(): Warning: I_MPI_PMI_LIBRARY will be ignored since the hydra process manager was found
MPI startup(): Warning: I_MPI_PMI_LIBRARY will be ignored since the hydra process manager was found
MPI startup(): Warning: I_MPI_PMI_LIBRARY will be ignored since the hydra process manager was found
MPI startup(): Warning: I_MPI_PMI_LIBRARY will be ignored since the hydra process manager was found
MPI startup(): Warning: I_MPI_PMI_LIBRARY will be ignored since the hydra process manager was found
MPI startup(): Warning: I_MPI_PMI_LIBRARY will be ignored since the hydra process manager was found
MPI startup(): Warning: I_MPI_PMI_LIBRARY will be ignored since the hydra process manager was found
MPI startup(): Warning: I_MPI_PMI_LIBRARY will be ignored since the hydra process manager was found
MPI startup(): Warning: I_MPI_PMI_LIBRARY will be ignored since the hydra process manager was found
MPI startup(): Warning: I_MPI_PMI_LIBRARY will be ignored since the hydra process manager was found

     Program PWSCF v.7.0 starts on  6Apr2024 at 11:27:22 

     This program is part of the open-source Quantum ESPRESSO suite
     for quantum simulation of materials; please cite
         "P. Giannozzi et al., J. Phys.:Condens. Matter 21 395502 (2009);
         "P. Giannozzi et al., J. Phys.:Condens. Matter 29 465901 (2017);
         "P. Giannozzi et al., J. Chem. Phys. 152 154105 (2020);
          URL http://www.quantum-espresso.org", 
     in publications or presentations arising from this work. More details at
     http://www.quantum-espresso.org/quote

     Parallel version (MPI), running on    10 processors

     MPI processes distributed on     1 nodes
     R & G space division:  proc/nbgrp/npool/nimage =      10
     185959 MiB available memory on the printing compute node when the environment starts
 
     Reading input from VolumeBCC_10.2.in
Warning: card &CELL ignored
Warning: card / ignored

     Current dimensions of program PWSCF are:
     Max number of different atomic species (ntypx) = 10
     Max number of k-points (npk) =  40000
     Max angular momentum in pseudopotentials (lmaxx) =  4
     file Au.pbe-n-kjpaw_psl.1.0.0.UPF: wavefunction(s)  6S 5D renormalized
     Found identity + (  0.5000  0.5000  0.5000) symmetry
     This is a supercell, fractional translations are disabled
     Message from routine setup:
     using ibrav=0 with symmetry is DISCOURAGED, use correct ibrav instead

     Subspace diagonalization in iterative solution of the eigenvalue problem:
     one sub-group per band group will be used
     scalapack distributed-memory algorithm (size of sub-group:  3*  3 procs)

 
     Parallelization info
     --------------------
     sticks:   dense  smooth     PW     G-vecs:    dense   smooth      PW
     Min         164     164     48                 5064     5064     788
     Max         165     165     49                 5069     5069     789
     Sum        1649    1649    481                50685    50685    7881
 
     Using Slab Decomposition
 


     bravais-lattice index     =            0
     lattice parameter (alat)  =      10.1985  a.u.
     unit-cell volume          =    1060.7467 (a.u.)^3
     number of atoms/cell      =            2
     number of atomic types    =            1
     number of electrons       =        22.00
     number of Kohn-Sham states=           15
     kinetic-energy cutoff     =      50.0000  Ry
     charge density cutoff     =     200.0000  Ry
     scf convergence threshold =      1.0E-06
     mixing beta               =       0.7000
     number of iterations used =            8  plain     mixing
     Exchange-correlation= SLA  PW   PBX  PBC
                           (   1   4   3   4   0   0   0)

     celldm(1)=  10.198522  celldm(2)=   0.000000  celldm(3)=   0.000000
     celldm(4)=   0.000000  celldm(5)=   0.000000  celldm(6)=   0.000000

     crystal axes: (cart. coord. in units of alat)
               a(1) = (   1.000000   0.000000   0.000000 )  
               a(2) = (   0.000000   1.000000   0.000000 )  
               a(3) = (   0.000000   0.000000   1.000000 )  

     reciprocal axes: (cart. coord. in units 2 pi/alat)
               b(1) = (  1.000000  0.000000  0.000000 )  
               b(2) = (  0.000000  1.000000  0.000000 )  
               b(3) = (  0.000000  0.000000  1.000000 )  


     PseudoPot. # 1 for Au read from file:
     ./Au.pbe-n-kjpaw_psl.1.0.0.UPF
     MD5 check sum: 4db85c736373c707a97ce4c36c2a9d23
     Pseudo is Projector augmented-wave + core cor, Zval = 11.0
     Generated using &quot;atomic&quot; code by A. Dal Corso  v.6.3
     Shape of augmentation charge: PSQ
     Using radial grid of 1279 points,  6 beta functions with: 
                l(1) =   0
                l(2) =   0
                l(3) =   1
                l(4) =   1
                l(5) =   2
                l(6) =   2
     Q(r) pseudized with 0 coefficients 


     atomic species   valence    mass     pseudopotential
        Au            11.00   196.96657     Au( 1.00)

     48 Sym. Ops., with inversion, found



   Cartesian axes

     site n.     atom                  positions (alat units)
         1           Au  tau(   1) = (   0.0000000   0.0000000   0.0000000  )
         2           Au  tau(   2) = (   0.5000000   0.5000000   0.5000000  )

     number of k points=    84  Gaussian smearing, width (Ry)=  0.2000
                       cart. coord. in units 2pi/alat
        k(    1) = (   0.0000000   0.0000000   0.0000000), wk =   0.0011574
        k(    2) = (   0.0000000   0.0000000   0.0833333), wk =   0.0069444
        k(    3) = (   0.0000000   0.0000000   0.1666667), wk =   0.0069444
        k(    4) = (   0.0000000   0.0000000   0.2500000), wk =   0.0069444
        k(    5) = (   0.0000000   0.0000000   0.3333333), wk =   0.0069444
        k(    6) = (   0.0000000   0.0000000   0.4166667), wk =   0.0069444
        k(    7) = (   0.0000000   0.0000000  -0.5000000), wk =   0.0034722
        k(    8) = (   0.0000000   0.0833333   0.0833333), wk =   0.0138889
        k(    9) = (   0.0000000   0.0833333   0.1666667), wk =   0.0277778
        k(   10) = (   0.0000000   0.0833333   0.2500000), wk =   0.0277778
        k(   11) = (   0.0000000   0.0833333   0.3333333), wk =   0.0277778
        k(   12) = (   0.0000000   0.0833333   0.4166667), wk =   0.0277778
        k(   13) = (   0.0000000   0.0833333  -0.5000000), wk =   0.0138889
        k(   14) = (   0.0000000   0.1666667   0.1666667), wk =   0.0138889
        k(   15) = (   0.0000000   0.1666667   0.2500000), wk =   0.0277778
        k(   16) = (   0.0000000   0.1666667   0.3333333), wk =   0.0277778
        k(   17) = (   0.0000000   0.1666667   0.4166667), wk =   0.0277778
        k(   18) = (   0.0000000   0.1666667  -0.5000000), wk =   0.0138889
        k(   19) = (   0.0000000   0.2500000   0.2500000), wk =   0.0138889
        k(   20) = (   0.0000000   0.2500000   0.3333333), wk =   0.0277778
        k(   21) = (   0.0000000   0.2500000   0.4166667), wk =   0.0277778
        k(   22) = (   0.0000000   0.2500000  -0.5000000), wk =   0.0138889
        k(   23) = (   0.0000000   0.3333333   0.3333333), wk =   0.0138889
        k(   24) = (   0.0000000   0.3333333   0.4166667), wk =   0.0277778
        k(   25) = (   0.0000000   0.3333333  -0.5000000), wk =   0.0138889
        k(   26) = (   0.0000000   0.4166667   0.4166667), wk =   0.0138889
        k(   27) = (   0.0000000   0.4166667  -0.5000000), wk =   0.0138889
        k(   28) = (   0.0000000  -0.5000000  -0.5000000), wk =   0.0034722
        k(   29) = (   0.0833333   0.0833333   0.0833333), wk =   0.0092593
        k(   30) = (   0.0833333   0.0833333   0.1666667), wk =   0.0277778
        k(   31) = (   0.0833333   0.0833333   0.2500000), wk =   0.0277778
        k(   32) = (   0.0833333   0.0833333   0.3333333), wk =   0.0277778
        k(   33) = (   0.0833333   0.0833333   0.4166667), wk =   0.0277778
        k(   34) = (   0.0833333   0.0833333  -0.5000000), wk =   0.0138889
        k(   35) = (   0.0833333   0.1666667   0.1666667), wk =   0.0277778
        k(   36) = (   0.0833333   0.1666667   0.2500000), wk =   0.0555556
        k(   37) = (   0.0833333   0.1666667   0.3333333), wk =   0.0555556
        k(   38) = (   0.0833333   0.1666667   0.4166667), wk =   0.0555556
        k(   39) = (   0.0833333   0.1666667  -0.5000000), wk =   0.0277778
        k(   40) = (   0.0833333   0.2500000   0.2500000), wk =   0.0277778
        k(   41) = (   0.0833333   0.2500000   0.3333333), wk =   0.0555556
        k(   42) = (   0.0833333   0.2500000   0.4166667), wk =   0.0555556
        k(   43) = (   0.0833333   0.2500000  -0.5000000), wk =   0.0277778
        k(   44) = (   0.0833333   0.3333333   0.3333333), wk =   0.0277778
        k(   45) = (   0.0833333   0.3333333   0.4166667), wk =   0.0555556
        k(   46) = (   0.0833333   0.3333333  -0.5000000), wk =   0.0277778
        k(   47) = (   0.0833333   0.4166667   0.4166667), wk =   0.0277778
        k(   48) = (   0.0833333   0.4166667  -0.5000000), wk =   0.0277778
        k(   49) = (   0.0833333  -0.5000000  -0.5000000), wk =   0.0069444
        k(   50) = (   0.1666667   0.1666667   0.1666667), wk =   0.0092593
        k(   51) = (   0.1666667   0.1666667   0.2500000), wk =   0.0277778
        k(   52) = (   0.1666667   0.1666667   0.3333333), wk =   0.0277778
        k(   53) = (   0.1666667   0.1666667   0.4166667), wk =   0.0277778
        k(   54) = (   0.1666667   0.1666667  -0.5000000), wk =   0.0138889
        k(   55) = (   0.1666667   0.2500000   0.2500000), wk =   0.0277778
        k(   56) = (   0.1666667   0.2500000   0.3333333), wk =   0.0555556
        k(   57) = (   0.1666667   0.2500000   0.4166667), wk =   0.0555556
        k(   58) = (   0.1666667   0.2500000  -0.5000000), wk =   0.0277778
        k(   59) = (   0.1666667   0.3333333   0.3333333), wk =   0.0277778
        k(   60) = (   0.1666667   0.3333333   0.4166667), wk =   0.0555556
        k(   61) = (   0.1666667   0.3333333  -0.5000000), wk =   0.0277778
        k(   62) = (   0.1666667   0.4166667   0.4166667), wk =   0.0277778
        k(   63) = (   0.1666667   0.4166667  -0.5000000), wk =   0.0277778
        k(   64) = (   0.1666667  -0.5000000  -0.5000000), wk =   0.0069444
        k(   65) = (   0.2500000   0.2500000   0.2500000), wk =   0.0092593
        k(   66) = (   0.2500000   0.2500000   0.3333333), wk =   0.0277778
        k(   67) = (   0.2500000   0.2500000   0.4166667), wk =   0.0277778
        k(   68) = (   0.2500000   0.2500000  -0.5000000), wk =   0.0138889
        k(   69) = (   0.2500000   0.3333333   0.3333333), wk =   0.0277778
        k(   70) = (   0.2500000   0.3333333   0.4166667), wk =   0.0555556
        k(   71) = (   0.2500000   0.3333333  -0.5000000), wk =   0.0277778
        k(   72) = (   0.2500000   0.4166667   0.4166667), wk =   0.0277778
        k(   73) = (   0.2500000   0.4166667  -0.5000000), wk =   0.0277778
        k(   74) = (   0.2500000  -0.5000000  -0.5000000), wk =   0.0069444
        k(   75) = (   0.3333333   0.3333333   0.3333333), wk =   0.0092593
        k(   76) = (   0.3333333   0.3333333   0.4166667), wk =   0.0277778
        k(   77) = (   0.3333333   0.3333333  -0.5000000), wk =   0.0138889
        k(   78) = (   0.3333333   0.4166667   0.4166667), wk =   0.0277778
        k(   79) = (   0.3333333   0.4166667  -0.5000000), wk =   0.0277778
        k(   80) = (   0.3333333  -0.5000000  -0.5000000), wk =   0.0069444
        k(   81) = (   0.4166667   0.4166667   0.4166667), wk =   0.0092593
        k(   82) = (   0.4166667   0.4166667  -0.5000000), wk =   0.0138889
        k(   83) = (   0.4166667  -0.5000000  -0.5000000), wk =   0.0069444
        k(   84) = (  -0.5000000  -0.5000000  -0.5000000), wk =   0.0011574

     Dense  grid:    50685 G-vectors     FFT dimensions: (  45,  45,  45)

     Estimated max dynamical RAM per process >      31.34 MB

     Estimated total dynamical RAM >     313.44 MB

     Initial potential from superposition of free atoms

     starting charge      21.9998, renormalised to      22.0000
     Starting wfcs are   18 randomized atomic wfcs
     Checking if some PAW data can be deallocated... 

     total cpu time spent up to now is        1.7 secs

     Self-consistent Calculation

     iteration #  1     ecut=    50.00 Ry     beta= 0.70
     Davidson diagonalization with overlap
     ethr =  1.00E-02,  avg # of iterations =  2.1

     Threshold (ethr) on eigenvalues was too large:
     Diagonalizing with lowered threshold

     Davidson diagonalization with overlap
     ethr =  7.95E-04,  avg # of iterations =  2.2

     total cpu time spent up to now is        4.6 secs

     total energy              =   -1550.10705506 Ry
     estimated scf accuracy    <       0.17405055 Ry

     iteration #  2     ecut=    50.00 Ry     beta= 0.70
     Davidson diagonalization with overlap
     ethr =  7.91E-04,  avg # of iterations =  2.1

     total cpu time spent up to now is        6.5 secs

     total energy              =   -1550.17749031 Ry
     estimated scf accuracy    <       0.17136863 Ry

     iteration #  3     ecut=    50.00 Ry     beta= 0.70
     Davidson diagonalization with overlap
     ethr =  7.79E-04,  avg # of iterations =  1.0

     total cpu time spent up to now is        7.8 secs

     total energy              =   -1550.19823808 Ry
     estimated scf accuracy    <       0.00952961 Ry

     iteration #  4     ecut=    50.00 Ry     beta= 0.70
     Davidson diagonalization with overlap
     ethr =  4.33E-05,  avg # of iterations =  2.4

     total cpu time spent up to now is        9.6 secs

     total energy              =   -1550.19780359 Ry
     estimated scf accuracy    <       0.00316535 Ry

     iteration #  5     ecut=    50.00 Ry     beta= 0.70
     Davidson diagonalization with overlap
     ethr =  1.44E-05,  avg # of iterations =  5.0

     total cpu time spent up to now is       12.4 secs

     total energy              =   -1550.19677072 Ry
     estimated scf accuracy    <       0.01882731 Ry

     iteration #  6     ecut=    50.00 Ry     beta= 0.70
     Davidson diagonalization with overlap
     ethr =  1.44E-05,  avg # of iterations =  2.7

     total cpu time spent up to now is       14.3 secs

     total energy              =   -1550.20048616 Ry
     estimated scf accuracy    <       0.00005604 Ry

     iteration #  7     ecut=    50.00 Ry     beta= 0.70
     Davidson diagonalization with overlap
     ethr =  2.55E-07,  avg # of iterations =  6.8

     total cpu time spent up to now is       17.6 secs

     total energy              =   -1550.20054441 Ry
     estimated scf accuracy    <       0.00009587 Ry

     iteration #  8     ecut=    50.00 Ry     beta= 0.70
     Davidson diagonalization with overlap
     ethr =  2.55E-07,  avg # of iterations =  5.4

     total cpu time spent up to now is       20.4 secs

     total energy              =   -1550.20060279 Ry
     estimated scf accuracy    <       0.00033279 Ry

     iteration #  9     ecut=    50.00 Ry     beta= 0.70
     Davidson diagonalization with overlap
     ethr =  2.55E-07,  avg # of iterations =  1.0

     total cpu time spent up to now is       21.7 secs

     total energy              =   -1550.20055463 Ry
     estimated scf accuracy    <       0.00018300 Ry

     iteration # 10     ecut=    50.00 Ry     beta= 0.70
     Davidson diagonalization with overlap
     ethr =  2.55E-07,  avg # of iterations =  2.0

     total cpu time spent up to now is       23.3 secs

     total energy              =   -1550.20052436 Ry
     estimated scf accuracy    <       0.00005180 Ry

     iteration # 11     ecut=    50.00 Ry     beta= 0.70
     Davidson diagonalization with overlap
     ethr =  2.35E-07,  avg # of iterations =  3.0

     total cpu time spent up to now is       25.4 secs

     total energy              =   -1550.20054270 Ry
     estimated scf accuracy    <       0.00004874 Ry

     iteration # 12     ecut=    50.00 Ry     beta= 0.70
     Davidson diagonalization with overlap
     ethr =  2.22E-07,  avg # of iterations =  2.0

     total cpu time spent up to now is       26.9 secs

     End of self-consistent calculation

          k = 0.0000 0.0000 0.0000 (  6355 PWs)   bands (ev):

    -3.6920  -3.6920  -3.6617  -3.6617  -3.6617  -3.5763  -3.5763  -3.5338
    -3.5338  -3.5338  -2.9461  -0.8554   3.6515   3.6515   3.6515

          k = 0.0000 0.0000 0.0833 (  6347 PWs)   bands (ev):

    -3.6899  -3.6879  -3.6605  -3.6605  -3.6595  -3.5781  -3.5758  -3.5370
    -3.5370  -3.5359  -2.9167  -0.8924   3.5771   3.6915   3.6915

          k = 0.0000 0.0000 0.1667 (  6375 PWs)   bands (ev):

    -3.6839  -3.6764  -3.6566  -3.6566  -3.6531  -3.5836  -3.5752  -3.5461
    -3.5461  -3.5423  -2.8286  -1.0033   3.4274   3.8105   3.8105

          k = 0.0000 0.0000 0.2500 (  6367 PWs)   bands (ev):

    -3.6743  -3.6594  -3.6498  -3.6498  -3.6428  -3.5924  -3.5762  -3.5599
    -3.5599  -3.5523  -2.6841  -1.1839   3.3197   4.0052   4.0052

          k = 0.0000 0.0000 0.3333 (  6311 PWs)   bands (ev):

    -3.6619  -3.6401  -3.6401  -3.6396  -3.6295  -3.6039  -3.5804  -3.5767
    -3.5767  -3.5654  -2.4877  -1.4215   3.3209   4.2701   4.2703

          k = 0.0000 0.0000 0.4167 (  6355 PWs)   bands (ev):

    -3.6478  -3.6274  -3.6274  -3.6199  -3.6175  -3.6140  -3.5946  -3.5946
    -3.5889  -3.5808  -2.2479  -1.6944   3.4527   4.0953   4.5977

          k = 0.0000 0.0000-0.5000 (  6382 PWs)   bands (ev):

    -3.6350  -3.6301  -3.6136  -3.6136  -3.6103  -3.6103  -3.6049  -3.5999
    -3.5990  -3.5957  -1.9775  -1.9775   3.7135   3.7146   4.9775

          k = 0.0000 0.0833 0.0833 (  6351 PWs)   bands (ev):

    -3.6870  -3.6849  -3.6640  -3.6595  -3.6526  -3.5787  -3.5764  -3.5452
    -3.5401  -3.5329  -2.8872  -0.9257   3.4539   3.7311   3.7824

          k = 0.0000 0.0833 0.1667 (  6343 PWs)   bands (ev):

    -3.6809  -3.6739  -3.6644  -3.6566  -3.6423  -3.5833  -3.5759  -3.5584
    -3.5491  -3.5346  -2.7992  -1.0263   3.2745   3.8486   3.9310

          k = 0.0000 0.0833 0.2500 (  6330 PWs)   bands (ev):

    -3.6718  -3.6610  -3.6573  -3.6514  -3.6292  -3.5913  -3.5763  -3.5749
    -3.5625  -3.5411  -2.6552  -1.1935   3.1510   4.0407   4.1350

          k = 0.0000 0.0833 0.3333 (  6346 PWs)   bands (ev):

    -3.6603  -3.6538  -3.6437  -3.6381  -3.6142  -3.6016  -3.5931  -3.5799
    -3.5784  -3.5517  -2.4602  -1.4182   3.1405   4.3023   4.3610

          k = 0.0000 0.0833 0.4167 (  6355 PWs)   bands (ev):

    -3.6475  -3.6429  -3.6349  -3.6200  -3.6120  -3.6118  -3.5976  -3.5942
    -3.5870  -3.5654  -2.2230  -1.6810   3.2628   3.8866   4.6246

          k = 0.0000 0.0833-0.5000 (  6358 PWs)   bands (ev):

    -3.6379  -3.6333  -3.6291  -3.6281  -3.6155  -3.6115  -3.6000  -3.5953
    -3.5816  -3.5806  -1.9570  -1.9570   3.5150   3.5160   4.9977

          k = 0.0000 0.1667 0.1667 (  6354 PWs)   bands (ev):

    -3.6742  -3.6701  -3.6651  -3.6565  -3.6276  -3.5843  -3.5767  -3.5758
    -3.5575  -3.5304  -2.7119  -1.0988   3.0310   3.9616   4.1334

          k = 0.0000 0.1667 0.2500 (  6336 PWs)   bands (ev):

    -3.6718  -3.6663  -3.6551  -3.6500  -3.6113  -3.5953  -3.5890  -3.5767
    -3.5696  -3.5315  -2.5700  -1.2278   2.8495   4.1461   4.4207

          k = 0.0000 0.1667 0.3333 (  6328 PWs)   bands (ev):

    -3.6689  -3.6578  -3.6519  -3.6325  -3.6154  -3.5961  -3.5939  -3.5829
    -3.5783  -3.5375  -2.3795  -1.4140   2.7907   3.8944   4.3963

          k = 0.0000 0.1667 0.4167 (  6345 PWs)   bands (ev):

    -3.6615  -3.6507  -3.6469  -3.6339  -3.6171  -3.6035  -3.5928  -3.5834
    -3.5770  -3.5477  -2.1508  -1.6452   2.8754   3.4455   4.7024

          k = 0.0000 0.1667-0.5000 (  6342 PWs)   bands (ev):

    -3.6498  -3.6494  -3.6480  -3.6438  -3.6112  -3.6067  -3.5936  -3.5890
    -3.5615  -3.5611  -1.8991  -1.8991   3.0987   3.0994   5.0523

          k = 0.0000 0.2500 0.2500 (  6352 PWs)   bands (ev):

    -3.6784  -3.6617  -3.6586  -3.6371  -3.6169  -3.5925  -3.5882  -3.5789
    -3.5770  -3.5271  -2.4328  -1.3004   2.5942   3.8839   4.3171

          k = 0.0000 0.2500 0.3333 (  6341 PWs)   bands (ev):

    -3.6803  -3.6621  -3.6573  -3.6371  -3.6216  -3.5909  -3.5867  -3.5775
    -3.5745  -3.5279  -2.2516  -1.4246   2.4615   3.3854   4.5470

          k = 0.0000 0.2500 0.4167 (  6315 PWs)   bands (ev):

    -3.6769  -3.6620  -3.6566  -3.6546  -3.6081  -3.5948  -3.5904  -3.5802
    -3.5580  -3.5339  -2.0393  -1.6012   2.4825   2.9666   4.8244

          k = 0.0000 0.2500-0.5000 (  6304 PWs)   bands (ev):

    -3.6683  -3.6681  -3.6612  -3.6573  -3.6020  -3.5973  -3.5888  -3.5841
    -3.5443  -3.5441  -1.8144  -1.8143   2.6568   2.6573   5.1331

          k = 0.0000 0.3333 0.3333 (  6326 PWs)   bands (ev):

    -3.6868  -3.6691  -3.6614  -3.6565  -3.6082  -3.5906  -3.5859  -3.5772
    -3.5569  -3.5237  -2.0872  -1.4717   2.2416   2.9179   4.7455

          k = 0.0000 0.3333 0.4167 (  6324 PWs)   bands (ev):

    -3.6877  -3.6727  -3.6721  -3.6666  -3.5966  -3.5896  -3.5860  -3.5781
    -3.5421  -3.5249  -1.9028  -1.5715   2.1774   2.5379   4.9773

          k = 0.0000 0.3333-0.5000 (  6328 PWs)   bands (ev):

    -3.6827  -3.6827  -3.6732  -3.6694  -3.5924  -3.5878  -3.5852  -3.5804
    -3.5312  -3.5311  -1.7220  -1.7218   2.2812   2.2814   5.2204

          k = 0.0000 0.4167 0.4167 (  6326 PWs)   bands (ev):

    -3.6928  -3.6848  -3.6794  -3.6746  -3.5874  -3.5866  -3.5826  -3.5769
    -3.5302  -3.5212  -1.7632  -1.5819   2.0164   2.2117   5.1413

          k = 0.0000 0.4167-0.5000 (  6308 PWs)   bands (ev):

    -3.6919  -3.6919  -3.6815  -3.6778  -3.5865  -3.5820  -3.5820  -3.5770
    -3.5231  -3.5231  -1.6482  -1.6480   2.0286   2.0287   5.2896

          k = 0.0000-0.5000-0.5000 (  6304 PWs)   bands (ev):

    -3.6951  -3.6951  -3.6844  -3.6807  -3.5850  -3.5806  -3.5802  -3.5751
    -3.5203  -3.5203  -1.6196  -1.6194   1.9392   1.9392   5.3163

          k = 0.0833 0.0833 0.0833 (  6346 PWs)   bands (ev):

    -3.6830  -3.6830  -3.6628  -3.6628  -3.6468  -3.5780  -3.5780  -3.5541
    -3.5361  -3.5361  -2.8577  -0.9556   3.4938   3.4938   3.9907

          k = 0.0833 0.0833 0.1667 (  6340 PWs)   bands (ev):

    -3.6775  -3.6718  -3.6654  -3.6591  -3.6360  -3.5828  -3.5767  -3.5690
    -3.5452  -3.5352  -2.7699  -1.0473   3.2485   3.6127   4.2067

          k = 0.0833 0.0833 0.2500 (  6340 PWs)   bands (ev):

    -3.6690  -3.6649  -3.6555  -3.6529  -3.6229  -3.5903  -3.5865  -3.5765
    -3.5589  -3.5394  -2.6266  -1.2024   3.0850   3.8073   4.4430

          k = 0.0833 0.0833 0.3333 (  6345 PWs)   bands (ev):

    -3.6608  -3.6582  -3.6444  -3.6372  -3.6087  -3.6040  -3.5996  -3.5789
    -3.5753  -3.5478  -2.4330  -1.4151   3.0480   4.0730   4.2095

          k = 0.0833 0.0833 0.4167 (  6350 PWs)   bands (ev):

    -3.6526  -3.6465  -3.6355  -3.6281  -3.6130  -3.6081  -3.5952  -3.5921
    -3.5828  -3.5597  -2.1985  -1.6680   3.1517   3.7490   4.4029

          k = 0.0833 0.0833-0.5000 (  6350 PWs)   bands (ev):

    -3.6413  -3.6402  -3.6382  -3.6337  -3.6079  -3.6042  -3.6025  -3.5983
    -3.5737  -3.5734  -1.9371  -1.9371   3.3898   3.3908   4.7879

          k = 0.0833 0.1667 0.1667 (  6351 PWs)   bands (ev):

    -3.6704  -3.6690  -3.6637  -3.6594  -3.6236  -3.5864  -3.5833  -3.5778
    -3.5505  -3.5336  -2.6831  -1.1141   3.0712   3.5883   4.4924

          k = 0.0833 0.1667 0.2500 (  6344 PWs)   bands (ev):

    -3.6718  -3.6629  -3.6564  -3.6490  -3.6095  -3.6048  -3.5880  -3.5772
    -3.5628  -3.5340  -2.5421  -1.2345   2.8735   3.7508   4.3353

          k = 0.0833 0.1667 0.3333 (  6336 PWs)   bands (ev):

    -3.6713  -3.6549  -3.6508  -3.6341  -3.6217  -3.5949  -3.5938  -3.5777
    -3.5770  -3.5389  -2.3535  -1.4111   2.7920   3.8298   4.0042

          k = 0.0833 0.1667 0.4167 (  6342 PWs)   bands (ev):

    -3.6667  -3.6492  -3.6445  -3.6411  -3.6131  -3.6013  -3.5905  -3.5871
    -3.5728  -3.5478  -2.1278  -1.6337   2.8569   3.3963   4.3269

          k = 0.0833 0.1667-0.5000 (  6324 PWs)   bands (ev):

    -3.6582  -3.6573  -3.6435  -3.6395  -3.6066  -3.6024  -3.5954  -3.5911
    -3.5600  -3.5598  -1.8808  -1.8808   3.0639   3.0646   4.7067

          k = 0.0833 0.2500 0.2500 (  6337 PWs)   bands (ev):

    -3.6773  -3.6600  -3.6571  -3.6365  -3.6250  -3.5929  -3.5866  -3.5776
    -3.5725  -3.5304  -2.4064  -1.3030   2.6351   3.8415   3.8755

          k = 0.0833 0.2500 0.3333 (  6343 PWs)   bands (ev):

    -3.6800  -3.6605  -3.6556  -3.6416  -3.6208  -3.5899  -3.5824  -3.5795
    -3.5737  -3.5311  -2.2276  -1.4213   2.4963   3.3665   4.1045

          k = 0.0833 0.2500 0.4167 (  6326 PWs)   bands (ev):

    -3.6787  -3.6635  -3.6576  -3.6488  -3.6067  -3.5936  -3.5886  -3.5814
    -3.5590  -3.5364  -2.0187  -1.5913   2.5055   2.9635   4.4061

          k = 0.0833 0.2500-0.5000 (  6316 PWs)   bands (ev):

    -3.6734  -3.6726  -3.6550  -3.6515  -3.6001  -3.5955  -3.5893  -3.5848
    -3.5461  -3.5460  -1.7986  -1.7985   2.6670   2.6675   4.7616

          k = 0.0833 0.3333 0.3333 (  6338 PWs)   bands (ev):

    -3.6854  -3.6676  -3.6651  -3.6515  -3.6081  -3.5885  -3.5846  -3.5774
    -3.5592  -3.5273  -2.0660  -1.4666   2.2834   2.9228   4.3074

          k = 0.0833 0.3333 0.4167 (  6331 PWs)   bands (ev):

    -3.6871  -3.6772  -3.6690  -3.6592  -3.5962  -3.5887  -3.5850  -3.5784
    -3.5452  -3.5286  -1.8853  -1.5629   2.2159   2.5577   4.5772

          k = 0.0833 0.3333-0.5000 (  6318 PWs)   bands (ev):

    -3.6847  -3.6842  -3.6676  -3.6641  -3.5915  -3.5869  -3.5854  -3.5806
    -3.5347  -3.5347  -1.7090  -1.7088   2.3117   2.3119   4.8854

          k = 0.0833 0.4167 0.4167 (  6326 PWs)   bands (ev):

    -3.6912  -3.6866  -3.6757  -3.6689  -3.5866  -3.5866  -3.5820  -3.5769
    -3.5342  -3.5254  -1.7493  -1.5732   2.0589   2.2443   4.7965

          k = 0.0833 0.4167-0.5000 (  6320 PWs)   bands (ev):

    -3.6913  -3.6911  -3.6771  -3.6736  -3.5859  -3.5820  -3.5814  -3.5770
    -3.5274  -3.5274  -1.6375  -1.6373   2.0685   2.0686   5.0155

          k = 0.0833-0.5000-0.5000 (  6324 PWs)   bands (ev):

    -3.6933  -3.6933  -3.6808  -3.6771  -3.5846  -3.5802  -3.5801  -3.5751
    -3.5249  -3.5249  -1.6099  -1.6097   1.9819   1.9819   5.0748

          k = 0.1667 0.1667 0.1667 (  6358 PWs)   bands (ev):

    -3.6657  -3.6657  -3.6599  -3.6599  -3.6142  -3.6044  -3.5809  -3.5809
    -3.5427  -3.5427  -2.5978  -1.1641   3.1908   3.1908   4.5266

          k = 0.1667 0.1667 0.2500 (  6342 PWs)   bands (ev):

    -3.6718  -3.6601  -3.6540  -3.6453  -3.6234  -3.6014  -3.5857  -3.5784
    -3.5561  -3.5393  -2.4602  -1.2593   2.8982   3.3873   4.0767

          k = 0.1667 0.1667 0.3333 (  6332 PWs)   bands (ev):

    -3.6753  -3.6527  -3.6471  -3.6445  -3.6248  -3.5914  -3.5904  -3.5755
    -3.5717  -3.5407  -2.2775  -1.4070   2.7513   3.6217   3.6564

          k = 0.1667 0.1667 0.4167 (  6340 PWs)   bands (ev):

    -3.6747  -3.6586  -3.6451  -3.6405  -3.6094  -3.5962  -3.5886  -3.5860
    -3.5672  -3.5466  -2.0614  -1.6029   2.7646   3.2260   3.9924

          k = 0.1667 0.1667-0.5000 (  6352 PWs)   bands (ev):

    -3.6695  -3.6687  -3.6416  -3.6374  -3.5984  -3.5974  -3.5943  -3.5933
    -3.5560  -3.5560  -1.8291  -1.8290   2.9299   2.9307   4.3882

          k = 0.1667 0.2500 0.2500 (  6341 PWs)   bands (ev):

    -3.6738  -3.6620  -3.6487  -3.6397  -3.6348  -3.5908  -3.5840  -3.5791
    -3.5617  -3.5397  -2.3290  -1.3148   2.7570   3.3666   3.6965

          k = 0.1667 0.2500 0.3333 (  6345 PWs)   bands (ev):

    -3.6784  -3.6601  -3.6580  -3.6408  -3.6194  -3.5878  -3.5820  -3.5737
    -3.5731  -3.5394  -2.1575  -1.4151   2.5920   3.2906   3.5859

          k = 0.1667 0.2500 0.4167 (  6327 PWs)   bands (ev):

    -3.6810  -3.6718  -3.6515  -3.6403  -3.6047  -3.5907  -3.5847  -3.5831
    -3.5610  -3.5428  -1.9593  -1.5650   2.5597   2.9353   3.9039

          k = 0.1667 0.2500-0.5000 (  6328 PWs)   bands (ev):

    -3.6794  -3.6786  -3.6462  -3.6424  -3.5959  -3.5915  -3.5904  -3.5860
    -3.5503  -3.5502  -1.7538  -1.7537   2.6799   2.6804   4.2892

          k = 0.1667 0.3333 0.3333 (  6325 PWs)   bands (ev):

    -3.6812  -3.6730  -3.6626  -3.6411  -3.6080  -3.5859  -3.5790  -3.5779
    -3.5647  -3.5375  -2.0045  -1.4542   2.4079   2.9245   3.7424

          k = 0.1667 0.3333 0.4167 (  6325 PWs)   bands (ev):

    -3.6845  -3.6817  -3.6611  -3.6466  -3.5959  -3.5864  -3.5821  -3.5791
    -3.5532  -3.5387  -1.8352  -1.5396   2.3285   2.6080   4.0186

          k = 0.1667 0.3333-0.5000 (  6338 PWs)   bands (ev):

    -3.6857  -3.6851  -3.6563  -3.6528  -3.5894  -3.5857  -3.5847  -3.5811
    -3.5441  -3.5440  -1.6722  -1.6720   2.3976   2.3978   4.3633

          k = 0.1667 0.4167 0.4167 (  6328 PWs)   bands (ev):

    -3.6871  -3.6862  -3.6670  -3.6562  -3.5869  -3.5847  -3.5803  -3.5770
    -3.5453  -3.5372  -1.7095  -1.5491   2.1854   2.3378   4.2445

          k = 0.1667 0.4167-0.5000 (  6324 PWs)   bands (ev):

    -3.6880  -3.6878  -3.6663  -3.6629  -3.5844  -3.5821  -3.5798  -3.5772
    -3.5394  -3.5394  -1.6074  -1.6072   2.1865   2.1866   4.5087

          k = 0.1667-0.5000-0.5000 (  6312 PWs)   bands (ev):

    -3.6880  -3.6880  -3.6709  -3.6672  -3.5833  -3.5800  -3.5788  -3.5750
    -3.5377  -3.5377  -1.5825  -1.5822   2.1092   2.1092   4.5915

          k = 0.2500 0.2500 0.2500 (  6358 PWs)   bands (ev):

    -3.6678  -3.6678  -3.6577  -3.6325  -3.6325  -3.5841  -3.5815  -3.5815
    -3.5532  -3.5532  -2.2062  -1.3478   2.9572   2.9572   3.4390

          k = 0.2500 0.2500 0.3333 (  6330 PWs)   bands (ev):

    -3.6752  -3.6707  -3.6594  -3.6310  -3.6170  -3.5843  -3.5818  -3.5729
    -3.5678  -3.5488  -2.0477  -1.4172   2.6891   3.1244   3.2319

          k = 0.2500 0.2500 0.4167 (  6333 PWs)   bands (ev):

    -3.6811  -3.6793  -3.6493  -3.6324  -3.6026  -3.5869  -3.5843  -3.5794
    -3.5624  -3.5492  -1.8684  -1.5324   2.5842   2.8365   3.5758

          k = 0.2500 0.2500-0.5000 (  6316 PWs)   bands (ev):

    -3.6831  -3.6825  -3.6410  -3.6371  -3.5932  -3.5893  -3.5882  -3.5837
    -3.5542  -3.5538  -1.6889  -1.6888   2.6413   2.6419   3.9825

          k = 0.2500 0.3333 0.3333 (  6320 PWs)   bands (ev):

    -3.6795  -3.6740  -3.6604  -3.6271  -3.6087  -3.5833  -3.5787  -3.5717
    -3.5701  -3.5518  -1.9093  -1.4438   2.6123   2.8875   3.2565

          k = 0.2500 0.3333 0.4167 (  6326 PWs)   bands (ev):

    -3.6839  -3.6789  -3.6533  -3.6322  -3.5968  -3.5839  -3.5804  -3.5780
    -3.5626  -3.5523  -1.7591  -1.5097   2.5019   2.6593   3.5396

          k = 0.2500 0.3333-0.5000 (  6320 PWs)   bands (ev):

    -3.6837  -3.6832  -3.6442  -3.6406  -3.5887  -3.5846  -3.5846  -3.5800
    -3.5561  -3.5556  -1.6189  -1.6187   2.5156   2.5160   3.9190

          k = 0.2500 0.4167 0.4167 (  6318 PWs)   bands (ev):

    -3.6844  -3.6777  -3.6564  -3.6404  -3.5880  -3.5827  -3.5779  -3.5771
    -3.5606  -3.5538  -1.6503  -1.5160   2.3932   2.4778   3.7336

          k = 0.2500 0.4167-0.5000 (  6330 PWs)   bands (ev):

    -3.6813  -3.6810  -3.6524  -3.6490  -3.5826  -3.5824  -3.5779  -3.5778
    -3.5568  -3.5565  -1.5638  -1.5636   2.3761   2.3762   4.0232

          k = 0.2500-0.5000-0.5000 (  6344 PWs)   bands (ev):

    -3.6790  -3.6790  -3.6573  -3.6537  -3.5818  -3.5798  -3.5771  -3.5748
    -3.5570  -3.5570  -1.5427  -1.5424   2.3182   2.3182   4.1097

          k = 0.3333 0.3333 0.3333 (  6346 PWs)   bands (ev):

    -3.6832  -3.6636  -3.6636  -3.6120  -3.6120  -3.5799  -3.5799  -3.5730
    -3.5662  -3.5662  -1.7919  -1.4495   2.7878   2.8928   2.8928

          k = 0.3333 0.3333 0.4167 (  6330 PWs)   bands (ev):

    -3.6828  -3.6709  -3.6504  -3.6210  -3.5984  -3.5813  -3.5811  -3.5753
    -3.5702  -3.5641  -1.6693  -1.4863   2.6678   2.6759   3.2443

          k = 0.3333 0.3333-0.5000 (  6314 PWs)   bands (ev):

    -3.6785  -3.6781  -3.6370  -3.6333  -3.5893  -3.5862  -3.5823  -3.5776
    -3.5665  -3.5650  -1.5617  -1.5615   2.6095   2.6098   3.6603

          k = 0.3333 0.4167 0.4167 (  6327 PWs)   bands (ev):

    -3.6781  -3.6655  -3.6489  -3.6241  -3.5937  -3.5814  -3.5779  -3.5768
    -3.5746  -3.5691  -1.5825  -1.4848   2.6319   2.6780   3.3227

          k = 0.3333 0.4167-0.5000 (  6318 PWs)   bands (ev):

    -3.6710  -3.6707  -3.6393  -3.6359  -3.5861  -3.5839  -3.5808  -3.5760
    -3.5737  -3.5711  -1.5170  -1.5167   2.6206   2.6207   3.6500

          k = 0.3333-0.5000-0.5000 (  6324 PWs)   bands (ev):

    -3.6659  -3.6659  -3.6436  -3.6402  -3.5804  -3.5802  -3.5802  -3.5796
    -3.5756  -3.5746  -1.5000  -1.4997   2.6047   2.6047   3.7226

          k = 0.4167 0.4167 0.4167 (  6314 PWs)   bands (ev):

    -3.6688  -3.6495  -3.6495  -3.6098  -3.6098  -3.5891  -3.5793  -3.5793
    -3.5743  -3.5743  -1.5209  -1.4692   2.7566   3.0349   3.0349

          k = 0.4167 0.4167-0.5000 (  6290 PWs)   bands (ev):

    -3.6580  -3.6578  -3.6320  -3.6286  -3.5986  -3.5986  -3.5799  -3.5789
    -3.5749  -3.5741  -1.4805  -1.4802   2.8640   2.8641   3.4582

          k = 0.4167-0.5000-0.5000 (  6292 PWs)   bands (ev):

    -3.6489  -3.6489  -3.6335  -3.6301  -3.6046  -3.6046  -3.5797  -3.5795
    -3.5747  -3.5744  -1.4666  -1.4663   2.9635   2.9635   3.4739

          k =-0.5000-0.5000-0.5000 (  6272 PWs)   bands (ev):

    -3.6297  -3.6297  -3.6297  -3.6264  -3.6264  -3.6264  -3.5794  -3.5794
    -3.5744  -3.5744  -1.4539  -1.4536   3.3881   3.3885   3.3891

     the Fermi energy is    -0.5500 ev

!    total energy              =   -1550.20055408 Ry

     total all-electron energy =    -76047.892736 Ry
     estimated scf accuracy    <       0.00000003 Ry
     smearing contrib. (-TS)   =      -0.55605946 Ry
     internal energy E=F+TS    =   -1549.64449462 Ry

     The total energy is F=E-TS. E is the sum of the following terms:
     one-electron contribution =     -62.34737972 Ry
     hartree contribution      =      47.44894945 Ry
     xc contribution           =     -63.42894397 Ry
     ewald contribution        =     -86.35511109 Ry
     one-center paw contrib.   =   -1384.96200930 Ry

     convergence has been achieved in  12 iterations

     Forces acting on atoms (cartesian axes, Ry/au):

     atom    1 type  1   force =     0.00000000    0.00000000   -0.00000000
     atom    2 type  1   force =     0.00000000    0.00000000    0.00000000

     Total force =     0.000000     Total SCF correction =     0.000000

     Writing all to output data dir ./pwscf.save/
 
     init_run     :      0.66s CPU      0.97s WALL (       1 calls)
     electrons    :     24.57s CPU     25.54s WALL (       1 calls)
     forces       :      0.14s CPU      0.21s WALL (       1 calls)

     Called by init_run:
     wfcinit      :      0.53s CPU      0.54s WALL (       1 calls)
     potinit      :      0.06s CPU      0.22s WALL (       1 calls)
     hinit0       :      0.03s CPU      0.05s WALL (       1 calls)

     Called by electrons:
     c_bands      :     21.22s CPU     21.54s WALL (      13 calls)
     sum_band     :      2.61s CPU      2.68s WALL (      13 calls)
     v_of_rho     :      0.13s CPU      0.46s WALL (      13 calls)
     newd         :      0.13s CPU      0.22s WALL (      13 calls)
     PAW_pot      :      0.52s CPU      0.53s WALL (      13 calls)
     mix_rho      :      0.01s CPU      0.01s WALL (      13 calls)

     Called by c_bands:
     init_us_2    :      0.30s CPU      0.30s WALL (    2352 calls)
     init_us_2:cp :      0.29s CPU      0.30s WALL (    2352 calls)
     cegterg      :     19.81s CPU     20.10s WALL (    1092 calls)

     Called by *egterg:
     cdiaghg      :      3.23s CPU      3.27s WALL (    4183 calls)
     h_psi        :     12.78s CPU     12.98s WALL (    4351 calls)
     s_psi        :      0.49s CPU      0.50s WALL (    4351 calls)
     g_psi        :      0.08s CPU      0.08s WALL (    3175 calls)

     Called by h_psi:
     h_psi:calbec :      0.63s CPU      0.64s WALL (    4351 calls)
     vloc_psi     :     11.60s CPU     11.79s WALL (    4351 calls)
     add_vuspsi   :      0.49s CPU      0.50s WALL (    4351 calls)

     General routines
     calbec       :      0.84s CPU      0.86s WALL (    5779 calls)
     fft          :      0.15s CPU      0.65s WALL (     155 calls)
     ffts         :      0.00s CPU      0.02s WALL (      13 calls)
     fftw         :     12.61s CPU     12.82s WALL (  120218 calls)
 
     Parallel routines
 
     PWSCF        :     26.34s CPU     32.68s WALL

 
   This run was terminated on:  11:27:55   6Apr2024            

=------------------------------------------------------------------------------=
   JOB DONE.
=------------------------------------------------------------------------------=
