MPI startup(): Warning: I_MPI_PMI_LIBRARY will be ignored since the hydra process manager was found
MPI startup(): Warning: I_MPI_PMI_LIBRARY will be ignored since the hydra process manager was found
MPI startup(): Warning: I_MPI_PMI_LIBRARY will be ignored since the hydra process manager was found
MPI startup(): Warning: I_MPI_PMI_LIBRARY will be ignored since the hydra process manager was found
MPI startup(): Warning: I_MPI_PMI_LIBRARY will be ignored since the hydra process manager was found
MPI startup(): Warning: I_MPI_PMI_LIBRARY will be ignored since the hydra process manager was found
MPI startup(): Warning: I_MPI_PMI_LIBRARY will be ignored since the hydra process manager was found
MPI startup(): Warning: I_MPI_PMI_LIBRARY will be ignored since the hydra process manager was found
MPI startup(): Warning: I_MPI_PMI_LIBRARY will be ignored since the hydra process manager was found
MPI startup(): Warning: I_MPI_PMI_LIBRARY will be ignored since the hydra process manager was found

     Program PWSCF v.7.0 starts on  6Apr2024 at 11:27:22 

     This program is part of the open-source Quantum ESPRESSO suite
     for quantum simulation of materials; please cite
         "P. Giannozzi et al., J. Phys.:Condens. Matter 21 395502 (2009);
         "P. Giannozzi et al., J. Phys.:Condens. Matter 29 465901 (2017);
         "P. Giannozzi et al., J. Chem. Phys. 152 154105 (2020);
          URL http://www.quantum-espresso.org", 
     in publications or presentations arising from this work. More details at
     http://www.quantum-espresso.org/quote

     Parallel version (MPI), running on    10 processors

     MPI processes distributed on     1 nodes
     R & G space division:  proc/nbgrp/npool/nimage =      10
     185860 MiB available memory on the printing compute node when the environment starts
 
     Reading input from VolumeBCC_10.in
Warning: card &CELL ignored
Warning: card / ignored

     Current dimensions of program PWSCF are:
     Max number of different atomic species (ntypx) = 10
     Max number of k-points (npk) =  40000
     Max angular momentum in pseudopotentials (lmaxx) =  4
     file Au.pbe-n-kjpaw_psl.1.0.0.UPF: wavefunction(s)  6S 5D renormalized
     Found identity + (  0.5000  0.5000  0.5000) symmetry
     This is a supercell, fractional translations are disabled
     Message from routine setup:
     using ibrav=0 with symmetry is DISCOURAGED, use correct ibrav instead

     Subspace diagonalization in iterative solution of the eigenvalue problem:
     one sub-group per band group will be used
     scalapack distributed-memory algorithm (size of sub-group:  3*  3 procs)

 
     Parallelization info
     --------------------
     sticks:   dense  smooth     PW     G-vecs:    dense   smooth      PW
     Min         159     159     46                 4781     4781     744
     Max         160     160     48                 4784     4784     745
     Sum        1597    1597    465                47833    47833    7441
 
     Using Slab Decomposition
 


     bravais-lattice index     =            0
     lattice parameter (alat)  =       9.9986  a.u.
     unit-cell volume          =     999.5653 (a.u.)^3
     number of atoms/cell      =            2
     number of atomic types    =            1
     number of electrons       =        22.00
     number of Kohn-Sham states=           15
     kinetic-energy cutoff     =      50.0000  Ry
     charge density cutoff     =     200.0000  Ry
     scf convergence threshold =      1.0E-06
     mixing beta               =       0.7000
     number of iterations used =            8  plain     mixing
     Exchange-correlation= SLA  PW   PBX  PBC
                           (   1   4   3   4   0   0   0)

     celldm(1)=   9.998551  celldm(2)=   0.000000  celldm(3)=   0.000000
     celldm(4)=   0.000000  celldm(5)=   0.000000  celldm(6)=   0.000000

     crystal axes: (cart. coord. in units of alat)
               a(1) = (   1.000000   0.000000   0.000000 )  
               a(2) = (   0.000000   1.000000   0.000000 )  
               a(3) = (   0.000000   0.000000   1.000000 )  

     reciprocal axes: (cart. coord. in units 2 pi/alat)
               b(1) = (  1.000000  0.000000  0.000000 )  
               b(2) = (  0.000000  1.000000  0.000000 )  
               b(3) = (  0.000000  0.000000  1.000000 )  


     PseudoPot. # 1 for Au read from file:
     ./Au.pbe-n-kjpaw_psl.1.0.0.UPF
     MD5 check sum: 4db85c736373c707a97ce4c36c2a9d23
     Pseudo is Projector augmented-wave + core cor, Zval = 11.0
     Generated using &quot;atomic&quot; code by A. Dal Corso  v.6.3
     Shape of augmentation charge: PSQ
     Using radial grid of 1279 points,  6 beta functions with: 
                l(1) =   0
                l(2) =   0
                l(3) =   1
                l(4) =   1
                l(5) =   2
                l(6) =   2
     Q(r) pseudized with 0 coefficients 


     atomic species   valence    mass     pseudopotential
        Au            11.00   196.96657     Au( 1.00)

     48 Sym. Ops., with inversion, found



   Cartesian axes

     site n.     atom                  positions (alat units)
         1           Au  tau(   1) = (   0.0000000   0.0000000   0.0000000  )
         2           Au  tau(   2) = (   0.5000000   0.5000000   0.5000000  )

     number of k points=    84  Gaussian smearing, width (Ry)=  0.2000
                       cart. coord. in units 2pi/alat
        k(    1) = (   0.0000000   0.0000000   0.0000000), wk =   0.0011574
        k(    2) = (   0.0000000   0.0000000   0.0833333), wk =   0.0069444
        k(    3) = (   0.0000000   0.0000000   0.1666667), wk =   0.0069444
        k(    4) = (   0.0000000   0.0000000   0.2500000), wk =   0.0069444
        k(    5) = (   0.0000000   0.0000000   0.3333333), wk =   0.0069444
        k(    6) = (   0.0000000   0.0000000   0.4166667), wk =   0.0069444
        k(    7) = (   0.0000000   0.0000000  -0.5000000), wk =   0.0034722
        k(    8) = (   0.0000000   0.0833333   0.0833333), wk =   0.0138889
        k(    9) = (   0.0000000   0.0833333   0.1666667), wk =   0.0277778
        k(   10) = (   0.0000000   0.0833333   0.2500000), wk =   0.0277778
        k(   11) = (   0.0000000   0.0833333   0.3333333), wk =   0.0277778
        k(   12) = (   0.0000000   0.0833333   0.4166667), wk =   0.0277778
        k(   13) = (   0.0000000   0.0833333  -0.5000000), wk =   0.0138889
        k(   14) = (   0.0000000   0.1666667   0.1666667), wk =   0.0138889
        k(   15) = (   0.0000000   0.1666667   0.2500000), wk =   0.0277778
        k(   16) = (   0.0000000   0.1666667   0.3333333), wk =   0.0277778
        k(   17) = (   0.0000000   0.1666667   0.4166667), wk =   0.0277778
        k(   18) = (   0.0000000   0.1666667  -0.5000000), wk =   0.0138889
        k(   19) = (   0.0000000   0.2500000   0.2500000), wk =   0.0138889
        k(   20) = (   0.0000000   0.2500000   0.3333333), wk =   0.0277778
        k(   21) = (   0.0000000   0.2500000   0.4166667), wk =   0.0277778
        k(   22) = (   0.0000000   0.2500000  -0.5000000), wk =   0.0138889
        k(   23) = (   0.0000000   0.3333333   0.3333333), wk =   0.0138889
        k(   24) = (   0.0000000   0.3333333   0.4166667), wk =   0.0277778
        k(   25) = (   0.0000000   0.3333333  -0.5000000), wk =   0.0138889
        k(   26) = (   0.0000000   0.4166667   0.4166667), wk =   0.0138889
        k(   27) = (   0.0000000   0.4166667  -0.5000000), wk =   0.0138889
        k(   28) = (   0.0000000  -0.5000000  -0.5000000), wk =   0.0034722
        k(   29) = (   0.0833333   0.0833333   0.0833333), wk =   0.0092593
        k(   30) = (   0.0833333   0.0833333   0.1666667), wk =   0.0277778
        k(   31) = (   0.0833333   0.0833333   0.2500000), wk =   0.0277778
        k(   32) = (   0.0833333   0.0833333   0.3333333), wk =   0.0277778
        k(   33) = (   0.0833333   0.0833333   0.4166667), wk =   0.0277778
        k(   34) = (   0.0833333   0.0833333  -0.5000000), wk =   0.0138889
        k(   35) = (   0.0833333   0.1666667   0.1666667), wk =   0.0277778
        k(   36) = (   0.0833333   0.1666667   0.2500000), wk =   0.0555556
        k(   37) = (   0.0833333   0.1666667   0.3333333), wk =   0.0555556
        k(   38) = (   0.0833333   0.1666667   0.4166667), wk =   0.0555556
        k(   39) = (   0.0833333   0.1666667  -0.5000000), wk =   0.0277778
        k(   40) = (   0.0833333   0.2500000   0.2500000), wk =   0.0277778
        k(   41) = (   0.0833333   0.2500000   0.3333333), wk =   0.0555556
        k(   42) = (   0.0833333   0.2500000   0.4166667), wk =   0.0555556
        k(   43) = (   0.0833333   0.2500000  -0.5000000), wk =   0.0277778
        k(   44) = (   0.0833333   0.3333333   0.3333333), wk =   0.0277778
        k(   45) = (   0.0833333   0.3333333   0.4166667), wk =   0.0555556
        k(   46) = (   0.0833333   0.3333333  -0.5000000), wk =   0.0277778
        k(   47) = (   0.0833333   0.4166667   0.4166667), wk =   0.0277778
        k(   48) = (   0.0833333   0.4166667  -0.5000000), wk =   0.0277778
        k(   49) = (   0.0833333  -0.5000000  -0.5000000), wk =   0.0069444
        k(   50) = (   0.1666667   0.1666667   0.1666667), wk =   0.0092593
        k(   51) = (   0.1666667   0.1666667   0.2500000), wk =   0.0277778
        k(   52) = (   0.1666667   0.1666667   0.3333333), wk =   0.0277778
        k(   53) = (   0.1666667   0.1666667   0.4166667), wk =   0.0277778
        k(   54) = (   0.1666667   0.1666667  -0.5000000), wk =   0.0138889
        k(   55) = (   0.1666667   0.2500000   0.2500000), wk =   0.0277778
        k(   56) = (   0.1666667   0.2500000   0.3333333), wk =   0.0555556
        k(   57) = (   0.1666667   0.2500000   0.4166667), wk =   0.0555556
        k(   58) = (   0.1666667   0.2500000  -0.5000000), wk =   0.0277778
        k(   59) = (   0.1666667   0.3333333   0.3333333), wk =   0.0277778
        k(   60) = (   0.1666667   0.3333333   0.4166667), wk =   0.0555556
        k(   61) = (   0.1666667   0.3333333  -0.5000000), wk =   0.0277778
        k(   62) = (   0.1666667   0.4166667   0.4166667), wk =   0.0277778
        k(   63) = (   0.1666667   0.4166667  -0.5000000), wk =   0.0277778
        k(   64) = (   0.1666667  -0.5000000  -0.5000000), wk =   0.0069444
        k(   65) = (   0.2500000   0.2500000   0.2500000), wk =   0.0092593
        k(   66) = (   0.2500000   0.2500000   0.3333333), wk =   0.0277778
        k(   67) = (   0.2500000   0.2500000   0.4166667), wk =   0.0277778
        k(   68) = (   0.2500000   0.2500000  -0.5000000), wk =   0.0138889
        k(   69) = (   0.2500000   0.3333333   0.3333333), wk =   0.0277778
        k(   70) = (   0.2500000   0.3333333   0.4166667), wk =   0.0555556
        k(   71) = (   0.2500000   0.3333333  -0.5000000), wk =   0.0277778
        k(   72) = (   0.2500000   0.4166667   0.4166667), wk =   0.0277778
        k(   73) = (   0.2500000   0.4166667  -0.5000000), wk =   0.0277778
        k(   74) = (   0.2500000  -0.5000000  -0.5000000), wk =   0.0069444
        k(   75) = (   0.3333333   0.3333333   0.3333333), wk =   0.0092593
        k(   76) = (   0.3333333   0.3333333   0.4166667), wk =   0.0277778
        k(   77) = (   0.3333333   0.3333333  -0.5000000), wk =   0.0138889
        k(   78) = (   0.3333333   0.4166667   0.4166667), wk =   0.0277778
        k(   79) = (   0.3333333   0.4166667  -0.5000000), wk =   0.0277778
        k(   80) = (   0.3333333  -0.5000000  -0.5000000), wk =   0.0069444
        k(   81) = (   0.4166667   0.4166667   0.4166667), wk =   0.0092593
        k(   82) = (   0.4166667   0.4166667  -0.5000000), wk =   0.0138889
        k(   83) = (   0.4166667  -0.5000000  -0.5000000), wk =   0.0069444
        k(   84) = (  -0.5000000  -0.5000000  -0.5000000), wk =   0.0011574

     Dense  grid:    47833 G-vectors     FFT dimensions: (  45,  45,  45)

     Estimated max dynamical RAM per process >      29.65 MB

     Estimated total dynamical RAM >     296.54 MB

     Initial potential from superposition of free atoms

     starting charge      21.9998, renormalised to      22.0000
     Starting wfcs are   18 randomized atomic wfcs
     Checking if some PAW data can be deallocated... 

     total cpu time spent up to now is        1.8 secs

     Self-consistent Calculation

     iteration #  1     ecut=    50.00 Ry     beta= 0.70
     Davidson diagonalization with overlap
     ethr =  1.00E-02,  avg # of iterations =  2.4

     Threshold (ethr) on eigenvalues was too large:
     Diagonalizing with lowered threshold

     Davidson diagonalization with overlap
     ethr =  7.92E-04,  avg # of iterations =  2.2

     total cpu time spent up to now is        4.8 secs

     total energy              =   -1550.11013375 Ry
     estimated scf accuracy    <       0.17373412 Ry

     iteration #  2     ecut=    50.00 Ry     beta= 0.70
     Davidson diagonalization with overlap
     ethr =  7.90E-04,  avg # of iterations =  2.0

     total cpu time spent up to now is        6.6 secs

     total energy              =   -1550.17992269 Ry
     estimated scf accuracy    <       0.16801687 Ry

     iteration #  3     ecut=    50.00 Ry     beta= 0.70
     Davidson diagonalization with overlap
     ethr =  7.64E-04,  avg # of iterations =  1.0

     total cpu time spent up to now is        7.9 secs

     total energy              =   -1550.20047065 Ry
     estimated scf accuracy    <       0.00930743 Ry

     iteration #  4     ecut=    50.00 Ry     beta= 0.70
     Davidson diagonalization with overlap
     ethr =  4.23E-05,  avg # of iterations =  2.3

     total cpu time spent up to now is        9.7 secs

     total energy              =   -1550.20016136 Ry
     estimated scf accuracy    <       0.00301963 Ry

     iteration #  5     ecut=    50.00 Ry     beta= 0.70
     Davidson diagonalization with overlap
     ethr =  1.37E-05,  avg # of iterations =  5.3

     total cpu time spent up to now is       12.6 secs

     total energy              =   -1550.19891886 Ry
     estimated scf accuracy    <       0.01997305 Ry

     iteration #  6     ecut=    50.00 Ry     beta= 0.70
     Davidson diagonalization with overlap
     ethr =  1.37E-05,  avg # of iterations =  2.9

     total cpu time spent up to now is       14.6 secs

     total energy              =   -1550.20267505 Ry
     estimated scf accuracy    <       0.00010234 Ry

     iteration #  7     ecut=    50.00 Ry     beta= 0.70
     Davidson diagonalization with overlap
     ethr =  4.65E-07,  avg # of iterations =  5.7

     total cpu time spent up to now is       17.6 secs

     total energy              =   -1550.20271683 Ry
     estimated scf accuracy    <       0.00010671 Ry

     iteration #  8     ecut=    50.00 Ry     beta= 0.70
     Davidson diagonalization with overlap
     ethr =  4.65E-07,  avg # of iterations =  5.4

     total cpu time spent up to now is       20.4 secs

     total energy              =   -1550.20277125 Ry
     estimated scf accuracy    <       0.00056460 Ry

     iteration #  9     ecut=    50.00 Ry     beta= 0.70
     Davidson diagonalization with overlap
     c_bands:  1 eigenvalues not converged
     ethr =  4.65E-07,  avg # of iterations =  2.2

     total cpu time spent up to now is       22.2 secs

     total energy              =   -1550.20274892 Ry
     estimated scf accuracy    <       0.00016905 Ry

     iteration # 10     ecut=    50.00 Ry     beta= 0.70
     Davidson diagonalization with overlap
     ethr =  4.65E-07,  avg # of iterations =  1.2

     total cpu time spent up to now is       23.5 secs

     total energy              =   -1550.20274465 Ry
     estimated scf accuracy    <       0.00004475 Ry

     iteration # 11     ecut=    50.00 Ry     beta= 0.70
     Davidson diagonalization with overlap
     ethr =  2.03E-07,  avg # of iterations =  2.0

     total cpu time spent up to now is       25.0 secs

     total energy              =   -1550.20274383 Ry
     estimated scf accuracy    <       0.00000872 Ry

     iteration # 12     ecut=    50.00 Ry     beta= 0.70
     Davidson diagonalization with overlap
     ethr =  3.96E-08,  avg # of iterations =  6.2

     total cpu time spent up to now is       27.9 secs

     total energy              =   -1550.20275641 Ry
     estimated scf accuracy    <       0.00001622 Ry

     iteration # 13     ecut=    50.00 Ry     beta= 0.70
     Davidson diagonalization with overlap
     ethr =  3.96E-08,  avg # of iterations =  1.1

     total cpu time spent up to now is       29.2 secs

     total energy              =   -1550.20275308 Ry
     estimated scf accuracy    <       0.00000972 Ry

     iteration # 14     ecut=    50.00 Ry     beta= 0.70
     Davidson diagonalization with overlap
     ethr =  3.96E-08,  avg # of iterations =  1.0

     total cpu time spent up to now is       30.3 secs

     total energy              =   -1550.20275271 Ry
     estimated scf accuracy    <       0.00000184 Ry

     iteration # 15     ecut=    50.00 Ry     beta= 0.70
     Davidson diagonalization with overlap
     c_bands:  1 eigenvalues not converged
     ethr =  8.35E-09,  avg # of iterations =  3.4

     total cpu time spent up to now is       32.1 secs

     End of self-consistent calculation

          k = 0.0000 0.0000 0.0000 (  6031 PWs)   bands (ev):

    -3.4331  -3.4331  -3.3954  -3.3954  -3.3954  -3.2962  -3.2962  -3.2467
    -3.2467  -3.2467  -2.7963  -0.4634   3.9556   3.9556   3.9556

          k = 0.0000 0.0000 0.0833 (  5975 PWs)   bands (ev):

    -3.4307  -3.4283  -3.3940  -3.3940  -3.3929  -3.2984  -3.2956  -3.2505
    -3.2505  -3.2492  -2.7645  -0.5065   3.8797   3.9984   3.9984

          k = 0.0000 0.0000 0.1667 (  5963 PWs)   bands (ev):

    -3.4235  -3.4148  -3.3895  -3.3895  -3.3853  -3.3049  -3.2950  -3.2613
    -3.2613  -3.2565  -2.6691  -0.6350   3.7302   4.1255   4.1255

          k = 0.0000 0.0000 0.2500 (  5995 PWs)   bands (ev):

    -3.4122  -3.3949  -3.3819  -3.3819  -3.3734  -3.3153  -3.2965  -3.2776
    -3.2776  -3.2682  -2.5119  -0.8430   3.6302   4.3334   4.3334

          k = 0.0000 0.0000 0.3333 (  5942 PWs)   bands (ev):

    -3.3976  -3.3716  -3.3708  -3.3708  -3.3579  -3.3289  -3.3018  -3.2973
    -3.2973  -3.2835  -2.2976  -1.1138   3.6473   4.6162   4.6162

          k = 0.0000 0.0000 0.4167 (  5962 PWs)   bands (ev):

    -3.3808  -3.3562  -3.3562  -3.3485  -3.3450  -3.3399  -3.3182  -3.3182
    -3.3121  -3.3014  -2.0347  -1.4211   3.8012   4.4999   4.9658

          k = 0.0000 0.0000-0.5000 (  5942 PWs)   bands (ev):

    -3.3650  -3.3605  -3.3397  -3.3397  -3.3370  -3.3370  -3.3302  -3.3257
    -3.3220  -3.3193  -1.7365  -1.7362   4.0886   4.0893   5.3711

          k = 0.0000 0.0833 0.0833 (  5954 PWs)   bands (ev):

    -3.4272  -3.4248  -3.3981  -3.3930  -3.3849  -3.2990  -3.2963  -3.2601
    -3.2542  -3.2456  -2.7325  -0.5448   3.7455   4.0406   4.1010

          k = 0.0000 0.0833 0.1667 (  5965 PWs)   bands (ev):

    -3.4200  -3.4119  -3.3986  -3.3899  -3.3728  -3.3045  -3.2957  -3.2756
    -3.2649  -3.2476  -2.6370  -0.6607   3.5595   4.1661   4.2627

          k = 0.0000 0.0833 0.2500 (  5971 PWs)   bands (ev):

    -3.4093  -3.3948  -3.3924  -3.3842  -3.3577  -3.3139  -3.2965  -3.2950
    -3.2808  -3.2553  -2.4801  -0.8527   3.4400   4.3713   4.4810

          k = 0.0000 0.0833 0.3333 (  5959 PWs)   bands (ev):

    -3.3956  -3.3866  -3.3756  -3.3699  -3.3403  -3.3261  -3.3163  -3.3009
    -3.2994  -3.2677  -2.2670  -1.1087   3.4438   4.6501   4.7764

          k = 0.0000 0.0833 0.4167 (  5952 PWs)   bands (ev):

    -3.3805  -3.3740  -3.3658  -3.3487  -3.3385  -3.3379  -3.3211  -3.3177
    -3.3096  -3.2837  -2.0066  -1.4049   3.5881   4.2691   4.9943

          k = 0.0000 0.0833-0.5000 (  5972 PWs)   bands (ev):

    -3.3686  -3.3645  -3.3579  -3.3571  -3.3425  -3.3390  -3.3239  -3.3197
    -3.3024  -3.3015  -1.7129  -1.7126   3.8674   3.8680   5.3931

          k = 0.0000 0.1667 0.1667 (  5956 PWs)   bands (ev):

    -3.4122  -3.4053  -3.4014  -3.3904  -3.3558  -3.3057  -3.2966  -3.2960
    -3.2749  -3.2428  -2.5417  -0.7423   3.2971   4.2868   4.4848

          k = 0.0000 0.1667 0.2500 (  5968 PWs)   bands (ev):

    -3.4073  -3.4029  -3.3896  -3.3837  -3.3369  -3.3188  -3.3111  -3.2967
    -3.2893  -3.2441  -2.3864  -0.8885   3.1089   4.4836   4.7372

          k = 0.0000 0.1667 0.3333 (  5979 PWs)   bands (ev):

    -3.4042  -3.3929  -3.3865  -3.3632  -3.3422  -3.3195  -3.3168  -3.3048
    -3.2988  -3.2511  -2.1774  -1.1001   3.0574   4.2706   4.7502

          k = 0.0000 0.1667 0.4167 (  5956 PWs)   bands (ev):

    -3.3957  -3.3846  -3.3812  -3.3637  -3.3451  -3.3284  -3.3159  -3.3048
    -3.2971  -3.2630  -1.9252  -1.3614   3.1607   3.7877   5.0772

          k = 0.0000 0.1667-0.5000 (  5974 PWs)   bands (ev):

    -3.3821  -3.3818  -3.3814  -3.3778  -3.3374  -3.3334  -3.3160  -3.3119
    -3.2790  -3.2786  -1.6459  -1.6456   3.4103   3.4107   5.4519

          k = 0.0000 0.2500 0.2500 (  5942 PWs)   bands (ev):

    -3.4152  -3.3976  -3.3947  -3.3684  -3.3439  -3.3151  -3.3100  -3.3003
    -3.2969  -3.2389  -2.2352  -0.9678   2.8344   4.2573   4.6660

          k = 0.0000 0.2500 0.3333 (  5970 PWs)   bands (ev):

    -3.4175  -3.3990  -3.3934  -3.3675  -3.3500  -3.3131  -3.3095  -3.2975
    -3.2942  -3.2399  -2.0349  -1.1069   2.6976   3.7213   4.9114

          k = 0.0000 0.2500 0.4167 (  5983 PWs)   bands (ev):

    -3.4136  -3.3992  -3.3932  -3.3879  -3.3340  -3.3179  -3.3132  -3.3008
    -3.2750  -3.2468  -1.7989  -1.3066   2.7301   3.2677   5.2072

          k = 0.0000 0.2500-0.5000 (  5984 PWs)   bands (ev):

    -3.4037  -3.4035  -3.3979  -3.3945  -3.3262  -3.3220  -3.3102  -3.3059
    -3.2590  -3.2588  -1.5473  -1.5469   2.9277   2.9280   5.5377

          k = 0.0000 0.3333 0.3333 (  5992 PWs)   bands (ev):

    -3.4251  -3.4080  -3.3988  -3.3901  -3.3339  -3.3131  -3.3080  -3.2971
    -3.2736  -3.2350  -1.8510  -1.1559   2.4603   3.2154   5.1230

          k = 0.0000 0.3333 0.4167 (  5978 PWs)   bands (ev):

    -3.4262  -3.4125  -3.4082  -3.4056  -3.3200  -3.3115  -3.3082  -3.2983
    -3.2564  -3.2363  -1.6434  -1.2673   2.3961   2.8009   5.3706

          k = 0.0000 0.3333-0.5000 (  5988 PWs)   bands (ev):

    -3.4205  -3.4205  -3.4128  -3.4096  -3.3147  -3.3105  -3.3059  -3.3015
    -3.2438  -3.2437  -1.4384  -1.4380   2.5163   2.5164   5.6310

          k = 0.0000 0.4167 0.4167 (  5980 PWs)   bands (ev):

    -3.4323  -3.4230  -3.4207  -3.4157  -3.3088  -3.3079  -3.3043  -3.2969
    -3.2426  -3.2321  -1.4829  -1.2753   2.2209   2.4425   5.5465

          k = 0.0000 0.4167-0.5000 (  5984 PWs)   bands (ev):

    -3.4312  -3.4312  -3.4230  -3.4198  -3.3076  -3.3036  -3.3020  -3.2974
    -3.2343  -3.2343  -1.3504  -1.3499   2.2379   2.2379   5.7057

          k = 0.0000-0.5000-0.5000 (  6024 PWs)   bands (ev):

    -3.4349  -3.4349  -3.4266  -3.4234  -3.3060  -3.3019  -3.2998  -3.2951
    -3.2311  -3.2311  -1.3159  -1.3154   2.1387   2.1387   5.7345

          k = 0.0833 0.0833 0.0833 (  5959 PWs)   bands (ev):

    -3.4226  -3.4226  -3.3967  -3.3967  -3.3782  -3.2982  -3.2982  -3.2706
    -3.2494  -3.2494  -2.7005  -0.5790   3.7881   3.7881   4.3253

          k = 0.0833 0.0833 0.1667 (  5960 PWs)   bands (ev):

    -3.4161  -3.4094  -3.3999  -3.3926  -3.3660  -3.3038  -3.2967  -3.2882
    -3.2602  -3.2485  -2.6050  -0.6840   3.5308   3.9147   4.5590

          k = 0.0833 0.0833 0.2500 (  5964 PWs)   bands (ev):

    -3.4060  -3.3997  -3.3903  -3.3856  -3.3508  -3.3127  -3.3087  -3.2966
    -3.2763  -3.2533  -2.4486  -0.8617   3.3670   4.1220   4.8122

          k = 0.0833 0.0833 0.3333 (  5956 PWs)   bands (ev):

    -3.3951  -3.3932  -3.3760  -3.3688  -3.3342  -3.3294  -3.3237  -3.2996
    -3.2956  -3.2632  -2.2368  -1.1039   3.3415   4.4047   4.6132

          k = 0.0833 0.0833 0.4167 (  5969 PWs)   bands (ev):

    -3.3858  -3.3792  -3.3661  -3.3580  -3.3397  -3.3337  -3.3193  -3.3153
    -3.3039  -3.2771  -1.9791  -1.3893   3.4657   4.1196   4.7556

          k = 0.0833 0.0833-0.5000 (  5976 PWs)   bands (ev):

    -3.3728  -3.3718  -3.3689  -3.3648  -3.3329  -3.3297  -3.3272  -3.3234
    -3.2933  -3.2930  -1.6900  -1.6897   3.7303   3.7309   5.1652

          k = 0.0833 0.1667 0.1667 (  5965 PWs)   bands (ev):

    -3.4077  -3.4041  -3.3999  -3.3934  -3.3519  -3.3087  -3.3044  -3.2979
    -3.2665  -3.2466  -2.5100  -0.7590   3.3398   3.8906   4.8675

          k = 0.0833 0.1667 0.2500 (  5966 PWs)   bands (ev):

    -3.4076  -3.3989  -3.3904  -3.3825  -3.3353  -3.3306  -3.3099  -3.2971
    -3.2811  -3.2471  -2.3556  -0.8953   3.1344   4.0639   4.7440

          k = 0.0833 0.1667 0.3333 (  5970 PWs)   bands (ev):

    -3.4074  -3.3894  -3.3844  -3.3651  -3.3497  -3.3181  -3.3175  -3.2983
    -3.2972  -3.2528  -2.1484  -1.0958   3.0583   4.2027   4.3331

          k = 0.0833 0.1667 0.4167 (  5974 PWs)   bands (ev):

    -3.4024  -3.3827  -3.3774  -3.3728  -3.3400  -3.3256  -3.3133  -3.3096
    -3.2923  -3.2633  -1.8993  -1.3476   3.1405   3.7355   4.6756

          k = 0.0833 0.1667-0.5000 (  5964 PWs)   bands (ev):

    -3.3928  -3.3919  -3.3754  -3.3720  -3.3318  -3.3280  -3.3183  -3.3144
    -3.2774  -3.2773  -1.6249  -1.6245   3.3729   3.3734   5.0787

          k = 0.0833 0.2500 0.2500 (  5963 PWs)   bands (ev):

    -3.4139  -3.3955  -3.3926  -3.3676  -3.3537  -3.3162  -3.3083  -3.2975
    -3.2926  -3.2428  -2.2059  -0.9700   2.8779   4.1982   4.2135

          k = 0.0833 0.2500 0.3333 (  5965 PWs)   bands (ev):

    -3.4173  -3.3967  -3.3912  -3.3730  -3.3490  -3.3120  -3.3043  -3.3003
    -3.2934  -3.2436  -2.0081  -1.1026   2.7345   3.7019   4.4416

          k = 0.0833 0.2500 0.4167 (  5977 PWs)   bands (ev):

    -3.4163  -3.3996  -3.3935  -3.3825  -3.3323  -3.3165  -3.3111  -3.3023
    -3.2765  -3.2499  -1.7757  -1.2950   2.7544   3.2646   4.7614

          k = 0.0833 0.2500-0.5000 (  5974 PWs)   bands (ev):

    -3.4105  -3.4098  -3.3897  -3.3867  -3.3239  -3.3198  -3.3109  -3.3067
    -3.2613  -3.2612  -1.5292  -1.5288   2.9384   2.9387   5.1386

          k = 0.0833 0.3333 0.3333 (  5977 PWs)   bands (ev):

    -3.4235  -3.4056  -3.4024  -3.3855  -3.3338  -3.3102  -3.3067  -3.2973
    -3.2768  -3.2393  -1.8273  -1.1499   2.5048   3.2209   4.6575

          k = 0.0833 0.3333 0.4167 (  5976 PWs)   bands (ev):

    -3.4258  -3.4154  -3.4078  -3.3955  -3.3196  -3.3103  -3.3071  -3.2986
    -3.2604  -3.2407  -1.6238  -1.2576   2.4370   2.8218   4.9438

          k = 0.0833 0.3333-0.5000 (  5976 PWs)   bands (ev):

    -3.4236  -3.4230  -3.4053  -3.4025  -3.3136  -3.3094  -3.3061  -3.3017
    -3.2480  -3.2480  -1.4237  -1.4233   2.5487   2.5488   5.2715

          k = 0.0833 0.4167 0.4167 (  5983 PWs)   bands (ev):

    -3.4304  -3.4260  -3.4163  -3.4079  -3.3079  -3.3079  -3.3036  -3.2969
    -3.2475  -3.2371  -1.4674  -1.2657   2.2662   2.4769   5.1773

          k = 0.0833 0.4167-0.5000 (  5978 PWs)   bands (ev):

    -3.4309  -3.4307  -3.4174  -3.4144  -3.3069  -3.3029  -3.3020  -3.2974
    -3.2394  -3.2394  -1.3386  -1.3381   2.2803   2.2804   5.4113

          k = 0.0833-0.5000-0.5000 (  5964 PWs)   bands (ev):

    -3.4329  -3.4329  -3.4222  -3.4190  -3.3054  -3.3013  -3.2997  -3.2951
    -3.2364  -3.2364  -1.3054  -1.3049   2.1843   2.1843   5.4757

          k = 0.1667 0.1667 0.1667 (  5953 PWs)   bands (ev):

    -3.4004  -3.4004  -3.3953  -3.3953  -3.3416  -3.3300  -3.3015  -3.3015
    -3.2573  -3.2573  -2.4163  -0.8144   3.4670   3.4670   4.9505

          k = 0.1667 0.1667 0.2500 (  5957 PWs)   bands (ev):

    -3.4078  -3.3942  -3.3884  -3.3782  -3.3520  -3.3274  -3.3072  -3.2985
    -3.2731  -3.2533  -2.2651  -0.9212   3.1595   3.6756   4.4695

          k = 0.1667 0.1667 0.3333 (  5982 PWs)   bands (ev):

    -3.4124  -3.3859  -3.3803  -3.3773  -3.3537  -3.3144  -3.3139  -3.2952
    -3.2913  -3.2551  -2.0637  -1.0886   3.0121   3.9610   3.9804

          k = 0.1667 0.1667 0.4167 (  5980 PWs)   bands (ev):

    -3.4121  -3.3936  -3.3772  -3.3728  -3.3356  -3.3194  -3.3117  -3.3080
    -3.2860  -3.2621  -1.8244  -1.3105   3.0386   3.5520   4.3170

          k = 0.1667 0.1667-0.5000 (  5964 PWs)   bands (ev):

    -3.4061  -3.4054  -3.3730  -3.3694  -3.3223  -3.3204  -3.3185  -3.3168
    -3.2732  -3.2731  -1.5653  -1.5649   3.2270   3.2274   4.7362

          k = 0.1667 0.2500 0.2500 (  5960 PWs)   bands (ev):

    -3.4100  -3.3970  -3.3824  -3.3712  -3.3656  -3.3151  -3.3053  -3.2993
    -3.2797  -3.2538  -2.1201  -0.9818   3.0073   3.6552   4.0610

          k = 0.1667 0.2500 0.3333 (  5968 PWs)   bands (ev):

    -3.4158  -3.3954  -3.3929  -3.3729  -3.3474  -3.3095  -3.3039  -3.2937
    -3.2932  -3.2535  -1.9299  -1.0942   2.8360   3.6220   3.8881

          k = 0.1667 0.2500 0.4167 (  5972 PWs)   bands (ev):

    -3.4193  -3.4092  -3.3854  -3.3725  -3.3299  -3.3128  -3.3064  -3.3048
    -3.2793  -3.2576  -1.7087  -1.2640   2.8112   3.2344   4.2248

          k = 0.1667 0.2500-0.5000 (  5974 PWs)   bands (ev):

    -3.4177  -3.4171  -3.3788  -3.3756  -3.3190  -3.3151  -3.3121  -3.3082
    -3.2666  -3.2665  -1.4779  -1.4775   2.9513   2.9517   4.6323

          k = 0.1667 0.3333 0.3333 (  5967 PWs)   bands (ev):

    -3.4188  -3.4107  -3.3993  -3.3736  -3.3337  -3.3071  -3.3000  -3.2979
    -3.2844  -3.2513  -1.7584  -1.1354   2.6371   3.2230   4.0558

          k = 0.1667 0.3333 0.4167 (  5964 PWs)   bands (ev):

    -3.4231  -3.4208  -3.3978  -3.3805  -3.3193  -3.3075  -3.3036  -3.2996
    -3.2705  -3.2528  -1.5673  -1.2312   2.5565   2.8750   4.3488

          k = 0.1667 0.3333-0.5000 (  5960 PWs)   bands (ev):

    -3.4251  -3.4245  -3.3915  -3.3886  -3.3110  -3.3068  -3.3065  -3.3023
    -3.2594  -3.2593  -1.3822  -1.3817   2.6395   2.6396   4.7139

          k = 0.1667 0.4167 0.4167 (  5964 PWs)   bands (ev):

    -3.4269  -3.4249  -3.4056  -3.3924  -3.3082  -3.3055  -3.3014  -3.2969
    -3.2610  -3.2510  -1.4230  -1.2391   2.4008   2.5760   4.5894

          k = 0.1667 0.4167-0.5000 (  5966 PWs)   bands (ev):

    -3.4274  -3.4271  -3.4041  -3.4012  -3.3050  -3.3021  -3.3009  -3.2976
    -3.2538  -3.2538  -1.3054  -1.3049   2.4057   2.4057   4.8704

          k = 0.1667-0.5000-0.5000 (  5996 PWs)   bands (ev):

    -3.4270  -3.4270  -3.4100  -3.4069  -3.3038  -3.2997  -3.2996  -3.2949
    -3.2518  -3.2518  -1.2755  -1.2750   2.3199   2.3199   4.9599

          k = 0.2500 0.2500 0.2500 (  5950 PWs)   bands (ev):

    -3.4034  -3.4034  -3.3926  -3.3630  -3.3630  -3.3083  -3.3021  -3.3021
    -3.2696  -3.2696  -1.9837  -1.0171   3.2197   3.2197   3.7845

          k = 0.2500 0.2500 0.3333 (  5963 PWs)   bands (ev):

    -3.4124  -3.4079  -3.3940  -3.3614  -3.3446  -3.3054  -3.3038  -3.2938
    -3.2867  -3.2647  -1.8070  -1.0944   2.9378   3.4423   3.5106

          k = 0.2500 0.2500 0.4167 (  5952 PWs)   bands (ev):

    -3.4196  -3.4180  -3.3825  -3.3632  -3.3275  -3.3082  -3.3063  -3.3003
    -3.2814  -3.2653  -1.6059  -1.2250   2.8342   3.1258   3.8746

          k = 0.2500 0.2500-0.5000 (  5964 PWs)   bands (ev):

    -3.4222  -3.4217  -3.3726  -3.3693  -3.3161  -3.3125  -3.3094  -3.3054
    -3.2714  -3.2710  -1.4031  -1.4027   2.9064   2.9067   4.3048

          k = 0.2500 0.3333 0.3333 (  5950 PWs)   bands (ev):

    -3.4182  -3.4107  -3.3957  -3.3570  -3.3347  -3.3042  -3.2988  -3.2918
    -3.2911  -3.2681  -1.6514  -1.1227   2.8541   3.1820   3.5381

          k = 0.2500 0.3333 0.4167 (  5947 PWs)   bands (ev):

    -3.4234  -3.4170  -3.3877  -3.3633  -3.3205  -3.3045  -3.3012  -3.2986
    -3.2820  -3.2689  -1.4814  -1.1970   2.7403   2.9280   3.8381

          k = 0.2500 0.3333-0.5000 (  5956 PWs)   bands (ev):

    -3.4229  -3.4224  -3.3767  -3.3737  -3.3105  -3.3068  -3.3051  -3.3010
    -3.2737  -3.2732  -1.3216  -1.3212   2.7638   2.7640   4.2390

          k = 0.2500 0.4167 0.4167 (  5968 PWs)   bands (ev):

    -3.4238  -3.4153  -3.3923  -3.3734  -3.3098  -3.3029  -3.2985  -3.2971
    -3.2796  -3.2707  -1.3564  -1.2024   2.6216   2.7239   4.0454

          k = 0.2500 0.4167-0.5000 (  5956 PWs)   bands (ev):

    -3.4198  -3.4195  -3.3872  -3.3843  -3.3029  -3.3026  -3.2986  -3.2984
    -3.2745  -3.2742  -1.2569  -1.2564   2.6069   2.6070   4.3531

          k = 0.2500-0.5000-0.5000 (  5972 PWs)   bands (ev):

    -3.4168  -3.4168  -3.3934  -3.3904  -3.3018  -3.2993  -3.2976  -3.2947
    -3.2748  -3.2748  -1.2319  -1.2314   2.5421   2.5421   4.4464

          k = 0.3333 0.3333 0.3333 (  5956 PWs)   bands (ev):

    -3.4226  -3.3990  -3.3990  -3.3390  -3.3390  -3.3000  -3.3000  -3.2954
    -3.2848  -3.2848  -1.5188  -1.1282   3.0698   3.1514   3.1514

          k = 0.3333 0.3333 0.4167 (  5945 PWs)   bands (ev):

    -3.4222  -3.4078  -3.3839  -3.3499  -3.3228  -3.3024  -3.3014  -3.2953
    -3.2907  -3.2825  -1.3792  -1.1696   2.9236   2.9321   3.5233

          k = 0.3333 0.3333-0.5000 (  5964 PWs)   bands (ev):

    -3.4169  -3.4165  -3.3680  -3.3649  -3.3117  -3.3091  -3.3023  -3.2981
    -3.2856  -3.2840  -1.2561  -1.2556   2.8602   2.8603   3.9634

          k = 0.3333 0.4167 0.4167 (  5952 PWs)   bands (ev):

    -3.4166  -3.4013  -3.3827  -3.3539  -3.3174  -3.3022  -3.2978  -3.2976
    -3.2951  -3.2882  -1.2797  -1.1674   2.8856   2.9238   3.6075

          k = 0.3333 0.4167-0.5000 (  5962 PWs)   bands (ev):

    -3.4080  -3.4077  -3.3711  -3.3683  -3.3081  -3.3064  -3.3006  -3.2962
    -3.2935  -3.2907  -1.2044  -1.2039   2.8660   2.8660   3.9533

          k = 0.3333-0.5000-0.5000 (  5980 PWs)   bands (ev):

    -3.4019  -3.4019  -3.3767  -3.3738  -3.3023  -3.3023  -3.3001  -3.2991
    -3.2957  -3.2944  -1.1846  -1.1840   2.8460   2.8460   4.0332

          k = 0.4167 0.4167 0.4167 (  5962 PWs)   bands (ev):

    -3.4058  -3.3830  -3.3830  -3.3370  -3.3370  -3.3134  -3.2989  -3.2989
    -3.2941  -3.2941  -1.2094  -1.1498   3.0136   3.3015   3.3015

          k = 0.4167 0.4167-0.5000 (  5964 PWs)   bands (ev):

    -3.3930  -3.3928  -3.3623  -3.3595  -3.3241  -3.3240  -3.2994  -3.2984
    -3.2949  -3.2939  -1.1631  -1.1625   3.1226   3.1227   3.7485

          k = 0.4167-0.5000-0.5000 (  5956 PWs)   bands (ev):

    -3.3823  -3.3823  -3.3643  -3.3615  -3.3310  -3.3310  -3.2991  -3.2989
    -3.2946  -3.2943  -1.1473  -1.1467   3.2260   3.2260   3.7671

          k =-0.5000-0.5000-0.5000 (  5904 PWs)   bands (ev):

    -3.3596  -3.3596  -3.3596  -3.3569  -3.3569  -3.3569  -3.2989  -3.2989
    -3.2942  -3.2942  -1.1330  -1.1324   3.6753   3.6755   3.6757

     the Fermi energy is    -0.2738 ev

!    total energy              =   -1550.20275346 Ry

     total all-electron energy =    -76047.894936 Ry
     estimated scf accuracy    <       0.00000003 Ry
     smearing contrib. (-TS)   =      -0.55500416 Ry
     internal energy E=F+TS    =   -1549.64774930 Ry

     The total energy is F=E-TS. E is the sum of the following terms:
     one-electron contribution =     -59.33995816 Ry
     hartree contribution      =      46.16624782 Ry
     xc contribution           =     -63.42984154 Ry
     ewald contribution        =     -88.08221330 Ry
     one-center paw contrib.   =   -1384.96198412 Ry

     convergence has been achieved in  15 iterations

     Forces acting on atoms (cartesian axes, Ry/au):

     atom    1 type  1   force =     0.00000000    0.00000000    0.00000000
     atom    2 type  1   force =     0.00000000    0.00000000    0.00000000

     Total force =     0.000000     Total SCF correction =     0.000000

     Writing all to output data dir ./pwscf.save/
 
     init_run     :      0.77s CPU      1.08s WALL (       1 calls)
     electrons    :     29.57s CPU     30.38s WALL (       1 calls)
     forces       :      0.14s CPU      0.20s WALL (       1 calls)

     Called by init_run:
     wfcinit      :      0.54s CPU      0.55s WALL (       1 calls)
     potinit      :      0.07s CPU      0.17s WALL (       1 calls)
     hinit0       :      0.11s CPU      0.22s WALL (       1 calls)

     Called by electrons:
     c_bands      :     25.44s CPU     25.87s WALL (      16 calls)
     sum_band     :      3.21s CPU      3.31s WALL (      16 calls)
     v_of_rho     :      0.10s CPU      0.38s WALL (      16 calls)
     newd         :      0.19s CPU      0.24s WALL (      16 calls)
     PAW_pot      :      0.66s CPU      0.67s WALL (      16 calls)
     mix_rho      :      0.02s CPU      0.02s WALL (      16 calls)

     Called by c_bands:
     init_us_2    :      0.33s CPU      0.34s WALL (    2856 calls)
     init_us_2:cp :      0.33s CPU      0.33s WALL (    2856 calls)
     cegterg      :     23.83s CPU     24.22s WALL (    1344 calls)

     Called by *egterg:
     cdiaghg      :      4.05s CPU      4.11s WALL (    5157 calls)
     h_psi        :     15.31s CPU     15.57s WALL (    5325 calls)
     s_psi        :      0.47s CPU      0.48s WALL (    5325 calls)
     g_psi        :      0.08s CPU      0.08s WALL (    3897 calls)

     Called by h_psi:
     h_psi:calbec :      0.70s CPU      0.72s WALL (    5325 calls)
     vloc_psi     :     14.07s CPU     14.31s WALL (    5325 calls)
     add_vuspsi   :      0.48s CPU      0.49s WALL (    5325 calls)

     General routines
     calbec       :      0.92s CPU      0.94s WALL (    7005 calls)
     fft          :      0.14s CPU      0.62s WALL (     188 calls)
     ffts         :      0.00s CPU      0.02s WALL (      16 calls)
     fftw         :     15.44s CPU     15.72s WALL (  143436 calls)
 
     Parallel routines
 
     PWSCF        :     31.39s CPU     39.62s WALL

 
   This run was terminated on:  11:28: 2   6Apr2024            

=------------------------------------------------------------------------------=
   JOB DONE.
=------------------------------------------------------------------------------=
