MPI startup(): Warning: I_MPI_PMI_LIBRARY will be ignored since the hydra process manager was found
MPI startup(): Warning: I_MPI_PMI_LIBRARY will be ignored since the hydra process manager was found
MPI startup(): Warning: I_MPI_PMI_LIBRARY will be ignored since the hydra process manager was found
MPI startup(): Warning: I_MPI_PMI_LIBRARY will be ignored since the hydra process manager was found
MPI startup(): Warning: I_MPI_PMI_LIBRARY will be ignored since the hydra process manager was found
MPI startup(): Warning: I_MPI_PMI_LIBRARY will be ignored since the hydra process manager was found
MPI startup(): Warning: I_MPI_PMI_LIBRARY will be ignored since the hydra process manager was found
MPI startup(): Warning: I_MPI_PMI_LIBRARY will be ignored since the hydra process manager was found
MPI startup(): Warning: I_MPI_PMI_LIBRARY will be ignored since the hydra process manager was found
MPI startup(): Warning: I_MPI_PMI_LIBRARY will be ignored since the hydra process manager was found

     Program PWSCF v.7.0 starts on  6Apr2024 at 11:26:59 

     This program is part of the open-source Quantum ESPRESSO suite
     for quantum simulation of materials; please cite
         "P. Giannozzi et al., J. Phys.:Condens. Matter 21 395502 (2009);
         "P. Giannozzi et al., J. Phys.:Condens. Matter 29 465901 (2017);
         "P. Giannozzi et al., J. Chem. Phys. 152 154105 (2020);
          URL http://www.quantum-espresso.org", 
     in publications or presentations arising from this work. More details at
     http://www.quantum-espresso.org/quote

     Parallel version (MPI), running on    10 processors

     MPI processes distributed on     1 nodes
     R & G space division:  proc/nbgrp/npool/nimage =      10
     232305 MiB available memory on the printing compute node when the environment starts
 
     Reading input from VolumeBCC_5.5.in
Warning: card &CELL ignored
Warning: card / ignored

     Current dimensions of program PWSCF are:
     Max number of different atomic species (ntypx) = 10
     Max number of k-points (npk) =  40000
     Max angular momentum in pseudopotentials (lmaxx) =  4
     file Au.pbe-n-kjpaw_psl.1.0.0.UPF: wavefunction(s)  6S 5D renormalized
     Found identity + (  0.5000  0.5000  0.5000) symmetry
     This is a supercell, fractional translations are disabled
     Message from routine setup:
     using ibrav=0 with symmetry is DISCOURAGED, use correct ibrav instead

     Subspace diagonalization in iterative solution of the eigenvalue problem:
     one sub-group per band group will be used
     scalapack distributed-memory algorithm (size of sub-group:  3*  3 procs)

 
     Parallelization info
     --------------------
     sticks:   dense  smooth     PW     G-vecs:    dense   smooth      PW
     Min          48      48     14                  802      802     140
     Max          50      50     15                  805      805     143
     Sum         489     489    149                 8025     8025    1419
 
     Using Slab Decomposition
 


     bravais-lattice index     =            0
     lattice parameter (alat)  =       5.4992  a.u.
     unit-cell volume          =     166.3027 (a.u.)^3
     number of atoms/cell      =            2
     number of atomic types    =            1
     number of electrons       =        22.00
     number of Kohn-Sham states=           15
     kinetic-energy cutoff     =      50.0000  Ry
     charge density cutoff     =     200.0000  Ry
     scf convergence threshold =      1.0E-06
     mixing beta               =       0.7000
     number of iterations used =            8  plain     mixing
     Exchange-correlation= SLA  PW   PBX  PBC
                           (   1   4   3   4   0   0   0)

     celldm(1)=   5.499203  celldm(2)=   0.000000  celldm(3)=   0.000000
     celldm(4)=   0.000000  celldm(5)=   0.000000  celldm(6)=   0.000000

     crystal axes: (cart. coord. in units of alat)
               a(1) = (   1.000000   0.000000   0.000000 )  
               a(2) = (   0.000000   1.000000   0.000000 )  
               a(3) = (   0.000000   0.000000   1.000000 )  

     reciprocal axes: (cart. coord. in units 2 pi/alat)
               b(1) = (  1.000000  0.000000  0.000000 )  
               b(2) = (  0.000000  1.000000  0.000000 )  
               b(3) = (  0.000000  0.000000  1.000000 )  


     PseudoPot. # 1 for Au read from file:
     ./Au.pbe-n-kjpaw_psl.1.0.0.UPF
     MD5 check sum: 4db85c736373c707a97ce4c36c2a9d23
     Pseudo is Projector augmented-wave + core cor, Zval = 11.0
     Generated using &quot;atomic&quot; code by A. Dal Corso  v.6.3
     Shape of augmentation charge: PSQ
     Using radial grid of 1279 points,  6 beta functions with: 
                l(1) =   0
                l(2) =   0
                l(3) =   1
                l(4) =   1
                l(5) =   2
                l(6) =   2
     Q(r) pseudized with 0 coefficients 


     atomic species   valence    mass     pseudopotential
        Au            11.00   196.96657     Au( 1.00)

     48 Sym. Ops., with inversion, found



   Cartesian axes

     site n.     atom                  positions (alat units)
         1           Au  tau(   1) = (   0.0000000   0.0000000   0.0000000  )
         2           Au  tau(   2) = (   0.5000000   0.5000000   0.5000000  )

     number of k points=    84  Gaussian smearing, width (Ry)=  0.2000
                       cart. coord. in units 2pi/alat
        k(    1) = (   0.0000000   0.0000000   0.0000000), wk =   0.0011574
        k(    2) = (   0.0000000   0.0000000   0.0833333), wk =   0.0069444
        k(    3) = (   0.0000000   0.0000000   0.1666667), wk =   0.0069444
        k(    4) = (   0.0000000   0.0000000   0.2500000), wk =   0.0069444
        k(    5) = (   0.0000000   0.0000000   0.3333333), wk =   0.0069444
        k(    6) = (   0.0000000   0.0000000   0.4166667), wk =   0.0069444
        k(    7) = (   0.0000000   0.0000000  -0.5000000), wk =   0.0034722
        k(    8) = (   0.0000000   0.0833333   0.0833333), wk =   0.0138889
        k(    9) = (   0.0000000   0.0833333   0.1666667), wk =   0.0277778
        k(   10) = (   0.0000000   0.0833333   0.2500000), wk =   0.0277778
        k(   11) = (   0.0000000   0.0833333   0.3333333), wk =   0.0277778
        k(   12) = (   0.0000000   0.0833333   0.4166667), wk =   0.0277778
        k(   13) = (   0.0000000   0.0833333  -0.5000000), wk =   0.0138889
        k(   14) = (   0.0000000   0.1666667   0.1666667), wk =   0.0138889
        k(   15) = (   0.0000000   0.1666667   0.2500000), wk =   0.0277778
        k(   16) = (   0.0000000   0.1666667   0.3333333), wk =   0.0277778
        k(   17) = (   0.0000000   0.1666667   0.4166667), wk =   0.0277778
        k(   18) = (   0.0000000   0.1666667  -0.5000000), wk =   0.0138889
        k(   19) = (   0.0000000   0.2500000   0.2500000), wk =   0.0138889
        k(   20) = (   0.0000000   0.2500000   0.3333333), wk =   0.0277778
        k(   21) = (   0.0000000   0.2500000   0.4166667), wk =   0.0277778
        k(   22) = (   0.0000000   0.2500000  -0.5000000), wk =   0.0138889
        k(   23) = (   0.0000000   0.3333333   0.3333333), wk =   0.0138889
        k(   24) = (   0.0000000   0.3333333   0.4166667), wk =   0.0277778
        k(   25) = (   0.0000000   0.3333333  -0.5000000), wk =   0.0138889
        k(   26) = (   0.0000000   0.4166667   0.4166667), wk =   0.0138889
        k(   27) = (   0.0000000   0.4166667  -0.5000000), wk =   0.0138889
        k(   28) = (   0.0000000  -0.5000000  -0.5000000), wk =   0.0034722
        k(   29) = (   0.0833333   0.0833333   0.0833333), wk =   0.0092593
        k(   30) = (   0.0833333   0.0833333   0.1666667), wk =   0.0277778
        k(   31) = (   0.0833333   0.0833333   0.2500000), wk =   0.0277778
        k(   32) = (   0.0833333   0.0833333   0.3333333), wk =   0.0277778
        k(   33) = (   0.0833333   0.0833333   0.4166667), wk =   0.0277778
        k(   34) = (   0.0833333   0.0833333  -0.5000000), wk =   0.0138889
        k(   35) = (   0.0833333   0.1666667   0.1666667), wk =   0.0277778
        k(   36) = (   0.0833333   0.1666667   0.2500000), wk =   0.0555556
        k(   37) = (   0.0833333   0.1666667   0.3333333), wk =   0.0555556
        k(   38) = (   0.0833333   0.1666667   0.4166667), wk =   0.0555556
        k(   39) = (   0.0833333   0.1666667  -0.5000000), wk =   0.0277778
        k(   40) = (   0.0833333   0.2500000   0.2500000), wk =   0.0277778
        k(   41) = (   0.0833333   0.2500000   0.3333333), wk =   0.0555556
        k(   42) = (   0.0833333   0.2500000   0.4166667), wk =   0.0555556
        k(   43) = (   0.0833333   0.2500000  -0.5000000), wk =   0.0277778
        k(   44) = (   0.0833333   0.3333333   0.3333333), wk =   0.0277778
        k(   45) = (   0.0833333   0.3333333   0.4166667), wk =   0.0555556
        k(   46) = (   0.0833333   0.3333333  -0.5000000), wk =   0.0277778
        k(   47) = (   0.0833333   0.4166667   0.4166667), wk =   0.0277778
        k(   48) = (   0.0833333   0.4166667  -0.5000000), wk =   0.0277778
        k(   49) = (   0.0833333  -0.5000000  -0.5000000), wk =   0.0069444
        k(   50) = (   0.1666667   0.1666667   0.1666667), wk =   0.0092593
        k(   51) = (   0.1666667   0.1666667   0.2500000), wk =   0.0277778
        k(   52) = (   0.1666667   0.1666667   0.3333333), wk =   0.0277778
        k(   53) = (   0.1666667   0.1666667   0.4166667), wk =   0.0277778
        k(   54) = (   0.1666667   0.1666667  -0.5000000), wk =   0.0138889
        k(   55) = (   0.1666667   0.2500000   0.2500000), wk =   0.0277778
        k(   56) = (   0.1666667   0.2500000   0.3333333), wk =   0.0555556
        k(   57) = (   0.1666667   0.2500000   0.4166667), wk =   0.0555556
        k(   58) = (   0.1666667   0.2500000  -0.5000000), wk =   0.0277778
        k(   59) = (   0.1666667   0.3333333   0.3333333), wk =   0.0277778
        k(   60) = (   0.1666667   0.3333333   0.4166667), wk =   0.0555556
        k(   61) = (   0.1666667   0.3333333  -0.5000000), wk =   0.0277778
        k(   62) = (   0.1666667   0.4166667   0.4166667), wk =   0.0277778
        k(   63) = (   0.1666667   0.4166667  -0.5000000), wk =   0.0277778
        k(   64) = (   0.1666667  -0.5000000  -0.5000000), wk =   0.0069444
        k(   65) = (   0.2500000   0.2500000   0.2500000), wk =   0.0092593
        k(   66) = (   0.2500000   0.2500000   0.3333333), wk =   0.0277778
        k(   67) = (   0.2500000   0.2500000   0.4166667), wk =   0.0277778
        k(   68) = (   0.2500000   0.2500000  -0.5000000), wk =   0.0138889
        k(   69) = (   0.2500000   0.3333333   0.3333333), wk =   0.0277778
        k(   70) = (   0.2500000   0.3333333   0.4166667), wk =   0.0555556
        k(   71) = (   0.2500000   0.3333333  -0.5000000), wk =   0.0277778
        k(   72) = (   0.2500000   0.4166667   0.4166667), wk =   0.0277778
        k(   73) = (   0.2500000   0.4166667  -0.5000000), wk =   0.0277778
        k(   74) = (   0.2500000  -0.5000000  -0.5000000), wk =   0.0069444
        k(   75) = (   0.3333333   0.3333333   0.3333333), wk =   0.0092593
        k(   76) = (   0.3333333   0.3333333   0.4166667), wk =   0.0277778
        k(   77) = (   0.3333333   0.3333333  -0.5000000), wk =   0.0138889
        k(   78) = (   0.3333333   0.4166667   0.4166667), wk =   0.0277778
        k(   79) = (   0.3333333   0.4166667  -0.5000000), wk =   0.0277778
        k(   80) = (   0.3333333  -0.5000000  -0.5000000), wk =   0.0069444
        k(   81) = (   0.4166667   0.4166667   0.4166667), wk =   0.0092593
        k(   82) = (   0.4166667   0.4166667  -0.5000000), wk =   0.0138889
        k(   83) = (   0.4166667  -0.5000000  -0.5000000), wk =   0.0069444
        k(   84) = (  -0.5000000  -0.5000000  -0.5000000), wk =   0.0011574

     Dense  grid:     8025 G-vectors     FFT dimensions: (  25,  25,  25)

     Estimated max dynamical RAM per process >       5.92 MB

     Estimated total dynamical RAM >      59.21 MB

     Initial potential from superposition of free atoms

     starting charge      21.9998, renormalised to      22.0000
     Starting wfcs are   18 randomized atomic wfcs
     Checking if some PAW data can be deallocated... 

     total cpu time spent up to now is        1.0 secs

     Self-consistent Calculation

     iteration #  1     ecut=    50.00 Ry     beta= 0.70
     Davidson diagonalization with overlap
     ethr =  1.00E-02,  avg # of iterations =  5.2

     Threshold (ethr) on eigenvalues was too large:
     Diagonalizing with lowered threshold

     Davidson diagonalization with overlap
     ethr =  2.29E-04,  avg # of iterations =  5.9

     total cpu time spent up to now is        2.9 secs

     total energy              =   -1550.04132224 Ry
     estimated scf accuracy    <       0.07386370 Ry

     iteration #  2     ecut=    50.00 Ry     beta= 0.70
     Davidson diagonalization with overlap
     ethr =  3.36E-04,  avg # of iterations =  2.0

     total cpu time spent up to now is        3.5 secs

     total energy              =   -1550.05965567 Ry
     estimated scf accuracy    <       0.00350968 Ry

     iteration #  3     ecut=    50.00 Ry     beta= 0.70
     Davidson diagonalization with overlap
     c_bands:  1 eigenvalues not converged
     c_bands:  1 eigenvalues not converged
     ethr =  1.60E-05,  avg # of iterations =  5.7

     total cpu time spent up to now is        4.5 secs

     total energy              =   -1550.06121993 Ry
     estimated scf accuracy    <       0.00063994 Ry

     iteration #  4     ecut=    50.00 Ry     beta= 0.70
     Davidson diagonalization with overlap
     c_bands:  1 eigenvalues not converged
     ethr =  2.91E-06,  avg # of iterations =  4.7

     total cpu time spent up to now is        5.4 secs

     total energy              =   -1550.06136987 Ry
     estimated scf accuracy    <       0.00036897 Ry

     iteration #  5     ecut=    50.00 Ry     beta= 0.70
     Davidson diagonalization with overlap
     ethr =  1.68E-06,  avg # of iterations =  2.0

     total cpu time spent up to now is        5.9 secs

     total energy              =   -1550.06139938 Ry
     estimated scf accuracy    <       0.00004731 Ry

     iteration #  6     ecut=    50.00 Ry     beta= 0.70
     Davidson diagonalization with overlap
     ethr =  2.15E-07,  avg # of iterations =  5.1

     total cpu time spent up to now is        6.9 secs

     total energy              =   -1550.06143757 Ry
     estimated scf accuracy    <       0.00000923 Ry

     iteration #  7     ecut=    50.00 Ry     beta= 0.70
     Davidson diagonalization with overlap
     c_bands:  1 eigenvalues not converged
     ethr =  4.19E-08,  avg # of iterations =  2.5

     total cpu time spent up to now is        7.5 secs

     total energy              =   -1550.06143706 Ry
     estimated scf accuracy    <       0.00000293 Ry

     iteration #  8     ecut=    50.00 Ry     beta= 0.70
     Davidson diagonalization with overlap
     ethr =  1.33E-08,  avg # of iterations =  2.3

     total cpu time spent up to now is        8.1 secs

     End of self-consistent calculation

          k = 0.0000 0.0000 0.0000 (  1021 PWs)   bands (ev):

    10.8991  14.0484  14.0484  17.5280  17.5280  17.5280  20.7188  20.7188
    22.8506  22.8506  22.8506  31.6773  31.6773  31.6773  39.1145

          k = 0.0000 0.0000 0.0833 (   993 PWs)   bands (ev):

    11.0750  14.1349  14.1792  17.5319  17.5319  17.6017  20.5613  20.7785
    22.5259  22.5259  22.7351  30.7782  32.2009  32.2009  39.8601

          k = 0.0000 0.0000 0.1667 (   985 PWs)   bands (ev):

    11.5891  14.3919  14.5435  17.5546  17.5546  17.8196  20.1139  20.9466
    21.7415  21.7415  22.4036  28.8689  33.5760  33.5760  40.8154

          k = 0.0000 0.0000 0.2500 (   992 PWs)   bands (ev):

    12.3975  14.8122  15.0491  17.6268  17.6268  18.1742  19.4417  20.8038
    20.8038  21.1927  21.8970  26.7728  35.4779  35.4780  40.6927

          k = 0.0000 0.0000 0.3333 (   980 PWs)   bands (ev):

    13.4138  15.3829  15.5227  17.7880  17.7880  18.6278  18.6518  19.9032
    19.9032  21.2705  21.4816  24.8467  37.6812  37.6812  40.0791

          k = 0.0000 0.0000 0.4167 (   996 PWs)   bands (ev):

    14.4814  15.6996  16.0843  17.7536  18.0756  18.0756  19.1292  19.1292
    19.2324  20.5828  21.8212  23.3239  39.6571  40.0307  40.0309

          k = 0.0000 0.0000-0.5000 (  1020 PWs)   bands (ev):

    15.3392  15.3393  16.8877  16.8879  18.5179  18.5179  18.5181  18.5181
    19.8881  19.8884  22.3501  22.3503  39.8149  39.8149  42.3578

          k = 0.0000 0.0833 0.0833 (   991 PWs)   bands (ev):

    11.2465  14.2381  14.2905  17.3829  17.5291  17.8288  20.5342  20.7309
    21.9923  22.2004  22.8967  31.2141  31.3599  32.6528  40.6526

          k = 0.0000 0.0833 0.1667 (   991 PWs)   bands (ev):

    11.7458  14.4897  14.6504  17.2818  17.5348  18.1727  20.1790  20.8705
    21.1349  21.4277  22.7724  29.3460  32.5895  33.8844  41.6479

          k = 0.0000 0.0833 0.2500 (   990 PWs)   bands (ev):

    12.5242  14.8846  15.1576  17.2717  17.5773  18.6110  19.5973  20.2089
    20.5373  21.1278  22.3719  27.2014  34.3102  35.6545  41.5216

          k = 0.0000 0.0833 0.3333 (   992 PWs)   bands (ev):

    13.4881  15.3839  15.6475  17.3765  17.6406  18.9608  19.1426  19.3417
    19.7512  21.4311  21.7949  25.1929  36.1146  37.7593  41.1203

          k = 0.0000 0.0833 0.4167 (   990 PWs)   bands (ev):

    14.4821  15.6451  16.1612  17.4589  17.6218  18.6039  18.6343  19.1892
    19.7563  21.1254  21.8018  23.5393  37.6100  39.9011  40.0450

          k = 0.0000 0.0833-0.5000 (  1002 PWs)   bands (ev):

    15.2835  15.2835  16.8465  16.8466  18.0279  18.0280  18.8205  18.8207
    20.4291  20.4293  22.4184  22.4186  38.6849  38.6849  42.3504

          k = 0.0000 0.1667 0.1667 (   985 PWs)   bands (ev):

    12.1948  14.7094  15.0076  17.0035  17.5107  18.6983  20.2032  20.2234
    20.7151  20.7766  23.0240  30.3727  30.7001  34.7872  42.4727

          k = 0.0000 0.1667 0.2500 (   997 PWs)   bands (ev):

    12.8696  14.9919  15.5492  16.8373  17.5452  19.2751  19.2931  19.9371
    19.9735  20.9644  22.9341  28.2174  32.1155  36.2076  41.5418

          k = 0.0000 0.1667 0.3333 (   994 PWs)   bands (ev):

    13.6535  15.2517  16.1239  16.8122  17.6280  18.4466  19.4773  19.5566
    19.9433  21.2884  22.5588  26.0191  33.7305  38.0243  39.8997

          k = 0.0000 0.1667 0.4167 (   991 PWs)   bands (ev):

    14.3998  15.2911  16.6498  16.9505  17.5457  17.7689  19.3518  19.3941
    20.6319  21.7428  21.9951  24.0850  35.2439  38.1685  40.1046

          k = 0.0000 0.1667-0.5000 (   994 PWs)   bands (ev):

    14.9816  14.9816  17.1564  17.1565  17.2676  17.2676  19.4017  19.4018
    21.3308  21.3308  22.6117  22.6118  36.6566  36.6567  41.1150

          k = 0.0000 0.2500 0.2500 (   995 PWs)   bands (ev):

    13.3339  15.0499  16.1704  16.5206  17.7051  18.3780  19.4918  20.0293
    20.1754  20.8707  23.2012  28.7332  30.5533  37.1747  39.9536

          k = 0.0000 0.2500 0.3333 (   990 PWs)   bands (ev):

    13.7929  14.9978  16.3603  16.8644  17.6068  18.0631  19.3499  20.1097
    20.7833  21.0944  23.1278  26.8419  31.5620  38.0801  38.5479

          k = 0.0000 0.2500 0.4167 (   990 PWs)   bands (ev):

    14.1840  14.8063  16.3798  17.0045  17.4870  18.2439  19.5880  20.0826
    21.5229  21.6434  22.7666  24.7036  33.0153  36.2145  40.2587

          k = 0.0000 0.2500-0.5000 (   982 PWs)   bands (ev):

    14.5200  14.5200  16.5931  16.5931  17.9810  17.9812  19.9433  19.9434
    22.2045  22.2046  22.8712  22.8713  34.5406  34.5407  39.9398

          k = 0.0000 0.3333 0.3333 (   999 PWs)   bands (ev):

    13.8702  14.6722  16.0723  16.9095  17.7306  18.8934  19.4860  20.4389
    21.0047  21.5977  23.3824  26.6306  30.6109  36.1349  39.3954

          k = 0.0000 0.3333 0.4167 (   996 PWs)   bands (ev):

    13.9518  14.3534  15.9741  16.3940  18.5329  19.4006  19.8723  20.5809
    21.4952  22.3325  23.2998  24.9728  31.3128  34.2633  38.8912

          k = 0.0000 0.3333-0.5000 (   986 PWs)   bands (ev):

    14.1053  14.1054  16.0800  16.0800  19.1270  19.1272  20.3428  20.3428
    22.9248  22.9249  23.0426  23.0427  32.6333  32.6334  38.8201

          k = 0.0000 0.4167 0.4167 (   998 PWs)   bands (ev):

    13.8163  14.0149  15.7628  15.9735  19.6010  20.1851  20.3316  21.1313
    21.4036  22.9838  23.5177  24.3454  30.7124  32.5364  38.1908

          k = 0.0000 0.4167-0.5000 (  1000 PWs)   bands (ev):

    13.8320  13.8320  15.7611  15.7611  20.2797  20.2798  20.6598  20.6599
    22.9057  22.9058  23.4010  23.4010  31.2617  31.2617  38.0260

          k = 0.0000-0.5000-0.5000 (   992 PWs)   bands (ev):

    13.7374  13.7375  15.6532  15.6532  20.5576  20.5577  21.1843  21.1845
    22.6088  22.6088  23.5679  23.5679  30.7584  30.7585  37.7389

          k = 0.0833 0.0833 0.0833 (   991 PWs)   bands (ev):

    11.4146  14.3705  14.3705  17.3745  17.3745  18.0640  20.6043  20.6043
    21.3015  22.5739  22.5739  31.4570  31.8719  31.8719  41.5067

          k = 0.0833 0.0833 0.1667 (   981 PWs)   bands (ev):

    11.9022  14.6072  14.7373  17.2180  17.3576  18.4780  20.2465  20.3745
    20.7974  21.8000  22.6428  29.7707  32.6253  33.2048  42.5639

          k = 0.0833 0.0833 0.2500 (   992 PWs)   bands (ev):

    12.6562  14.9900  15.2350  17.1796  17.3468  18.9867  19.4730  19.7234
    20.8867  21.0708  22.3725  27.6200  34.0345  35.0187  42.3781

          k = 0.0833 0.0833 0.3333 (   998 PWs)   bands (ev):

    13.5763  15.4988  15.6560  17.3026  17.3254  18.7471  19.1595  19.5772
    20.0294  21.3885  21.8839  25.5762  35.5693  37.0580  41.0765

          k = 0.0833 0.0833 0.4167 (   990 PWs)   bands (ev):

    14.5089  15.7065  16.0963  17.1622  17.5948  18.2909  18.7961  19.3325
    20.2027  21.3153  21.8045  23.8349  36.9228  39.0916  39.3853

          k = 0.0833 0.0833-0.5000 (   998 PWs)   bands (ev):

    15.2755  15.2755  16.7059  16.7060  17.9617  17.9617  18.8779  18.8780
    20.7716  20.7717  22.5560  22.5562  38.0693  38.0693  40.7799

          k = 0.0833 0.1667 0.1667 (   982 PWs)   bands (ev):

    12.3493  14.8515  15.0676  16.9780  17.2698  19.0339  19.4236  20.3028
    20.7111  21.3721  22.7020  30.8010  30.8630  33.8749  42.5589

          k = 0.0833 0.1667 0.2500 (   995 PWs)   bands (ev):

    13.0164  15.1417  15.5870  16.8086  17.2620  18.5748  19.6779  20.0215
    20.5944  20.9268  22.6418  28.6071  32.1858  35.2482  41.5251

          k = 0.0833 0.1667 0.3333 (   992 PWs)   bands (ev):

    13.7787  15.4135  16.0736  16.7809  17.3325  17.9933  19.6284  19.9173
    20.3827  21.2723  22.3023  26.4494  33.6290  36.9300  39.7867

          k = 0.0833 0.1667 0.4167 (   989 PWs)   bands (ev):

    14.4889  15.4198  16.4270  16.8193  17.4578  17.7428  19.3857  19.5214
    20.9507  21.8025  21.8740  24.5340  35.0364  37.9811  38.6225

          k = 0.0833 0.1667-0.5000 (   990 PWs)   bands (ev):

    15.0583  15.0583  16.7191  16.7191  17.5918  17.5919  19.3823  19.3824
    21.3330  21.3331  22.9823  22.9824  36.4289  36.4290  39.9515

          k = 0.0833 0.2500 0.2500 (   998 PWs)   bands (ev):

    13.4970  15.2089  16.1955  16.4938  17.3806  17.8121  20.0460  20.2154
    20.4788  20.8522  22.8598  29.2339  30.5202  36.0857  39.9704

          k = 0.0833 0.2500 0.3333 (   991 PWs)   bands (ev):

    13.9550  15.1464  16.3375  16.7820  17.3546  17.7139  19.7059  20.1206
    21.0312  21.3437  22.7603  27.3315  31.5283  37.2389  38.0503

          k = 0.0833 0.2500 0.4167 (   992 PWs)   bands (ev):

    14.3223  14.9308  16.3436  16.7214  17.6232  18.0301  19.7323  20.0150
    21.3155  22.3384  22.3502  25.3023  32.9272  36.1327  38.4238

          k = 0.0833 0.2500-0.5000 (   986 PWs)   bands (ev):

    14.6379  14.6379  16.4875  16.4875  17.9752  17.9753  19.9336  19.9337
    21.7738  21.7739  23.6162  23.6163  34.4340  34.4340  39.2463

          k = 0.0833 0.3333 0.3333 (   992 PWs)   bands (ev):

    14.0420  14.8044  16.0571  16.7453  17.7005  18.4687  19.7176  20.4153
    21.0072  22.1894  22.9413  27.2559  30.5193  36.0951  37.7586

          k = 0.0833 0.3333 0.4167 (  1001 PWs)   bands (ev):

    14.1103  14.4817  15.9626  16.3291  18.4824  19.1068  19.9856  20.4798
    21.2732  22.7081  23.1087  25.7649  31.2274  34.1972  38.2588

          k = 0.0833 0.3333-0.5000 (   994 PWs)   bands (ev):

    14.2449  14.2450  16.0573  16.0574  19.0232  19.0234  20.3429  20.3430
    22.0293  22.0294  24.2367  24.2367  32.5514  32.5515  38.5331

          k = 0.0833 0.4167 0.4167 (  1001 PWs)   bands (ev):

    13.9769  14.1546  15.7605  15.9585  19.4867  20.1966  20.2683  20.7965
    21.1380  22.6432  23.8715  25.4735  30.6001  32.4574  38.0671

          k = 0.0833 0.4167-0.5000 (  1002 PWs)   bands (ev):

    13.9844  13.9844  15.7594  15.7594  20.2063  20.2065  20.6051  20.6052
    21.9559  21.9560  24.6552  24.6552  31.1616  31.1617  37.9758

          k = 0.0833-0.5000-0.5000 (   996 PWs)   bands (ev):

    13.8941  13.8942  15.6559  15.6559  20.6026  20.6027  21.1906  21.1908
    21.5104  21.5104  24.7952  24.7952  30.6414  30.6415  37.7649

          k = 0.1667 0.1667 0.1667 (   997 PWs)   bands (ev):

    12.7868  15.2420  15.2420  16.9119  16.9119  18.4641  19.6950  20.5222
    20.5222  21.9514  21.9514  30.9798  32.1079  32.1079  42.3816

          k = 0.1667 0.1667 0.2500 (   992 PWs)   bands (ev):

    13.4208  15.5125  15.7357  16.7189  16.8285  17.6795  20.2374  20.4625
    20.8284  21.1036  22.1491  29.4813  32.0957  33.7418  41.3107

          k = 0.1667 0.1667 0.3333 (   994 PWs)   bands (ev):

    14.0932  15.8440  15.9106  16.7417  16.8196  17.4034  19.9176  20.3621
    21.0363  21.4222  21.9883  27.3789  33.0355  35.4989  39.2810

          k = 0.1667 0.1667 0.4167 (   992 PWs)   bands (ev):

    14.6515  15.5621  16.1813  16.6344  17.2144  17.6166  19.6651  19.8415
    21.2282  21.6493  22.4826  25.4511  34.2169  37.1758  37.2773

          k = 0.1667 0.1667-0.5000 (   974 PWs)   bands (ev):

    15.1114  15.1114  16.4572  16.4572  17.6035  17.6036  19.6092  19.6092
    21.3762  21.3764  23.8124  23.8125  35.6025  35.6025  38.6126

          k = 0.1667 0.2500 0.2500 (   994 PWs)   bands (ev):

    13.9569  15.6618  16.2616  16.4276  16.7963  16.9784  20.4116  20.7928
    20.8131  21.3597  22.1196  30.4463  30.4641  34.0362  40.0253

          k = 0.1667 0.2500 0.3333 (   993 PWs)   bands (ev):

    14.4070  15.5294  16.3012  16.4471  17.0304  17.1144  20.2866  20.3372
    21.0212  22.0709  22.3221  28.3528  31.4793  35.2202  37.9297

          k = 0.1667 0.2500 0.4167 (   994 PWs)   bands (ev):

    14.6741  15.2001  16.3059  16.3828  17.4927  17.6490  20.0872  20.1207
    21.2441  21.7818  23.4167  26.4059  32.6564  35.8455  36.5753

          k = 0.1667 0.2500-0.5000 (   990 PWs)   bands (ev):

    14.9009  14.9009  16.3475  16.3476  17.8029  17.8030  20.0488  20.0488
    21.4564  21.4566  24.7530  24.7530  34.0855  34.0855  37.8514

          k = 0.1667 0.3333 0.3333 (   994 PWs)   bands (ev):

    14.5383  15.1247  16.0253  16.4756  17.5969  17.6383  20.2262  20.5224
    21.0092  22.1600  23.3217  28.5932  30.2861  35.7246  35.9717

          k = 0.1667 0.3333 0.4167 (   988 PWs)   bands (ev):

    14.5546  14.8011  15.9535  16.2438  18.2788  18.3438  20.2856  20.5116
    21.1830  21.9425  24.3757  27.1164  31.0234  34.0087  36.5866

          k = 0.1667 0.3333-0.5000 (   988 PWs)   bands (ev):

    14.6145  14.6146  16.0441  16.0441  18.6153  18.6154  20.4325  20.4325
    21.5087  21.5088  25.6057  25.6057  32.3351  32.3352  37.5688

          k = 0.1667 0.4167 0.4167 (   990 PWs)   bands (ev):

    14.4359  14.5299  15.7652  15.9613  19.1039  19.2858  20.4881  20.6890
    21.1550  21.8288  25.2974  27.0823  30.2966  32.2535  36.9893

          k = 0.1667 0.4167-0.5000 (   998 PWs)   bands (ev):

    14.4123  14.4124  15.7754  15.7754  19.6127  19.6128  20.6593  20.6594
    21.4057  21.4059  26.2400  26.2400  30.9034  30.9035  37.6139

          k = 0.1667-0.5000-0.5000 (  1000 PWs)   bands (ev):

    14.3416  14.3417  15.6757  15.6757  20.1913  20.1913  20.7284  20.7285
    21.2078  21.2080  26.4973  26.4973  30.3208  30.3208  37.7425

          k = 0.2500 0.2500 0.2500 (  1003 PWs)   bands (ev):

    14.5856  16.2226  16.3420  16.3420  16.3560  16.3560  20.6879  20.6879
    21.3603  21.3603  22.3751  30.4121  31.9728  31.9728  40.0012

          k = 0.2500 0.2500 0.3333 (   991 PWs)   bands (ev):

    14.9976  15.6470  16.3145  16.3986  16.4462  17.0632  20.5483  20.7768
    20.9784  21.5679  23.4327  29.3323  31.3296  33.5858  37.3785

          k = 0.2500 0.2500 0.4167 (   989 PWs)   bands (ev):

    15.0195  15.2518  16.3206  16.4029  17.0921  17.5936  20.4118  20.4436
    21.1987  21.4937  24.5706  27.5118  32.0579  35.1140  35.1542

          k = 0.2500 0.2500-0.5000 (   976 PWs)   bands (ev):

    15.0523  15.0524  16.3630  16.3631  17.6155  17.6156  20.3471  20.3471
    21.3424  21.3426  25.9017  25.9017  33.3341  33.3341  36.6065

          k = 0.2500 0.3333 0.3333 (   992 PWs)   bands (ev):

    15.2967  15.3167  16.0116  16.5587  16.8168  17.3934  20.7337  20.7463
    20.9992  21.5094  24.5475  30.0234  30.1690  33.6686  35.6601

          k = 0.2500 0.3333 0.4167 (   993 PWs)   bands (ev):

    15.0850  15.1542  16.0282  16.3956  17.5283  17.9044  20.6518  20.7067
    21.1611  21.4576  25.6764  28.4314  30.8744  33.6752  34.8012

          k = 0.2500 0.3333-0.5000 (   994 PWs)   bands (ev):

    15.0335  15.0336  16.1869  16.1869  17.9995  17.9996  20.6555  20.6556
    21.3090  21.3092  26.9323  26.9323  32.0412  32.0413  36.1491

          k = 0.2500 0.4167 0.4167 (   997 PWs)   bands (ev):

    14.9789  15.1165  15.8091  16.1289  18.2732  18.4657  20.7717  20.8541
    21.1750  21.4090  26.7191  28.8051  29.8941  32.0147  35.3925

          k = 0.2500 0.4167-0.5000 (   998 PWs)   bands (ev):

    15.0061  15.0062  15.8804  15.8804  18.6831  18.6832  20.8483  20.8484
    21.2701  21.2703  27.7957  27.7957  30.6366  30.6366  36.4900

          k = 0.2500-0.5000-0.5000 (  1004 PWs)   bands (ev):

    15.0069  15.0070  15.7429  15.7429  19.0208  19.0208  20.9072  20.9073
    21.2314  21.2317  28.2939  28.2939  29.8790  29.8790  37.3868

          k = 0.3333 0.3333 0.3333 (   997 PWs)   bands (ev):

    15.2400  16.0564  16.0564  16.2780  17.0907  17.0907  20.9701  20.9701
    21.1102  21.1102  25.7342  29.8338  31.8173  31.8173  34.6281

          k = 0.3333 0.3333 0.4167 (   994 PWs)   bands (ev):

    15.1927  15.6090  16.1907  16.7429  17.0776  17.5706  20.9280  20.9344
    21.1551  21.2566  26.8708  29.2755  30.9557  32.9781  33.4576

          k = 0.3333 0.3333-0.5000 (   992 PWs)   bands (ev):

    15.3045  15.3046  16.4254  16.4255  17.6001  17.6002  20.8991  20.8993
    21.2497  21.2499  28.0510  28.0511  31.6000  31.6001  35.0372

          k = 0.3333 0.4167 0.4167 (   999 PWs)   bands (ev):

    15.2975  15.8471  15.9319  16.5846  17.4625  17.7409  21.0330  21.0481
    21.1902  21.2481  27.9200  29.5195  30.5776  31.8263  33.7139

          k = 0.3333 0.4167-0.5000 (   994 PWs)   bands (ev):

    15.5210  15.5211  16.2109  16.2109  17.8245  17.8246  21.0526  21.0528
    21.2461  21.2463  28.8931  28.8932  30.7985  30.7985  34.9942

          k = 0.3333-0.5000-0.5000 (  1008 PWs)   bands (ev):

    15.7528  15.7529  15.8970  15.8970  18.0292  18.0292  21.0925  21.0927
    21.2552  21.2554  29.4304  29.4305  30.1326  30.1326  35.5331

          k = 0.4167 0.4167 0.4167 (  1003 PWs)   bands (ev):

    15.5549  16.1704  16.1704  17.0799  17.0799  17.1396  21.1962  21.1962
    21.2015  21.2015  28.7208  29.2796  31.6350  32.3485  32.3485

          k = 0.4167 0.4167-0.5000 (  1000 PWs)   bands (ev):

    15.8762  15.8763  16.5504  16.5505  17.2632  17.2633  21.1953  21.1955
    21.2526  21.2529  29.1119  29.1119  31.6352  31.6353  34.0599

          k = 0.4167-0.5000-0.5000 (   992 PWs)   bands (ev):

    16.1765  16.1765  16.3683  16.3684  17.2266  17.2266  21.2296  21.2298
    21.2726  21.2729  29.0967  29.0968  31.9664  31.9664  34.2144

          k =-0.5000-0.5000-0.5000 (   968 PWs)   bands (ev):

    16.6126  16.6126  16.6126  16.6128  16.6128  16.6128  21.2790  21.2790
    21.2793  21.2793  28.9733  28.9734  33.7317  33.7317  33.7318

     the Fermi energy is    25.3176 ev

!    total energy              =   -1550.06143771 Ry

     total all-electron energy =    -76047.753620 Ry
     estimated scf accuracy    <       0.00000009 Ry
     smearing contrib. (-TS)   =      -0.15867805 Ry
     internal energy E=F+TS    =   -1549.90275967 Ry

     The total energy is F=E-TS. E is the sum of the following terms:
     one-electron contribution =      50.41550779 Ry
     hartree contribution      =      10.10714974 Ry
     xc contribution           =     -65.02142710 Ry
     ewald contribution        =    -160.14947870 Ry
     one-center paw contrib.   =   -1385.25451139 Ry

     convergence has been achieved in   8 iterations

     Forces acting on atoms (cartesian axes, Ry/au):

     atom    1 type  1   force =     0.00000000   -0.00000000    0.00000000
     atom    2 type  1   force =     0.00000000    0.00000000    0.00000000

     Total force =     0.000000     Total SCF correction =     0.000000

     Writing all to output data dir ./pwscf.save/
 
     init_run     :      0.25s CPU      0.29s WALL (       1 calls)
     electrons    :      6.84s CPU      7.12s WALL (       1 calls)
     forces       :      0.03s CPU      0.03s WALL (       1 calls)

     Called by init_run:
     wfcinit      :      0.17s CPU      0.18s WALL (       1 calls)
     potinit      :      0.03s CPU      0.04s WALL (       1 calls)
     hinit0       :      0.05s CPU      0.06s WALL (       1 calls)

     Called by electrons:
     c_bands      :      6.11s CPU      6.28s WALL (       9 calls)
     sum_band     :      0.47s CPU      0.49s WALL (       9 calls)
     v_of_rho     :      0.01s CPU      0.01s WALL (       9 calls)
     newd         :      0.01s CPU      0.01s WALL (       9 calls)
     PAW_pot      :      0.26s CPU      0.31s WALL (       9 calls)
     mix_rho      :      0.00s CPU      0.00s WALL (       9 calls)

     Called by c_bands:
     init_us_2    :      0.03s CPU      0.03s WALL (    1680 calls)
     init_us_2:cp :      0.03s CPU      0.03s WALL (    1680 calls)
     cegterg      :      5.98s CPU      6.14s WALL (     756 calls)

     Called by *egterg:
     cdiaghg      :      2.74s CPU      2.80s WALL (    3661 calls)
     h_psi        :      2.17s CPU      2.24s WALL (    3829 calls)
     s_psi        :      0.04s CPU      0.04s WALL (    3829 calls)
     g_psi        :      0.01s CPU      0.01s WALL (    2989 calls)

     Called by h_psi:
     h_psi:calbec :      0.16s CPU      0.17s WALL (    3829 calls)
     vloc_psi     :      1.93s CPU      2.00s WALL (    3829 calls)
     add_vuspsi   :      0.05s CPU      0.06s WALL (    3829 calls)

     General routines
     calbec       :      0.21s CPU      0.22s WALL (    4921 calls)
     fft          :      0.00s CPU      0.01s WALL (     111 calls)
     ffts         :      0.00s CPU      0.00s WALL (       9 calls)
     fftw         :      2.12s CPU      2.19s WALL (   82456 calls)
 
     Parallel routines
 
     PWSCF        :      7.74s CPU      9.05s WALL

 
   This run was terminated on:  11:27: 8   6Apr2024            

=------------------------------------------------------------------------------=
   JOB DONE.
=------------------------------------------------------------------------------=
