MPI startup(): Warning: I_MPI_PMI_LIBRARY will be ignored since the hydra process manager was found
MPI startup(): Warning: I_MPI_PMI_LIBRARY will be ignored since the hydra process manager was found
MPI startup(): Warning: I_MPI_PMI_LIBRARY will be ignored since the hydra process manager was found
MPI startup(): Warning: I_MPI_PMI_LIBRARY will be ignored since the hydra process manager was found
MPI startup(): Warning: I_MPI_PMI_LIBRARY will be ignored since the hydra process manager was found
MPI startup(): Warning: I_MPI_PMI_LIBRARY will be ignored since the hydra process manager was found
MPI startup(): Warning: I_MPI_PMI_LIBRARY will be ignored since the hydra process manager was found
MPI startup(): Warning: I_MPI_PMI_LIBRARY will be ignored since the hydra process manager was found
MPI startup(): Warning: I_MPI_PMI_LIBRARY will be ignored since the hydra process manager was found
MPI startup(): Warning: I_MPI_PMI_LIBRARY will be ignored since the hydra process manager was found

     Program PWSCF v.7.0 starts on  6Apr2024 at 11:26:52 

     This program is part of the open-source Quantum ESPRESSO suite
     for quantum simulation of materials; please cite
         "P. Giannozzi et al., J. Phys.:Condens. Matter 21 395502 (2009);
         "P. Giannozzi et al., J. Phys.:Condens. Matter 29 465901 (2017);
         "P. Giannozzi et al., J. Chem. Phys. 152 154105 (2020);
          URL http://www.quantum-espresso.org", 
     in publications or presentations arising from this work. More details at
     http://www.quantum-espresso.org/quote

     Parallel version (MPI), running on    10 processors

     MPI processes distributed on     1 nodes
     R & G space division:  proc/nbgrp/npool/nimage =      10
     219037 MiB available memory on the printing compute node when the environment starts
 
     Reading input from VolumeBCC_5.in
Warning: card &CELL ignored
Warning: card / ignored

     Current dimensions of program PWSCF are:
     Max number of different atomic species (ntypx) = 10
     Max number of k-points (npk) =  40000
     Max angular momentum in pseudopotentials (lmaxx) =  4
     file Au.pbe-n-kjpaw_psl.1.0.0.UPF: wavefunction(s)  6S 5D renormalized
     Found identity + ( -0.5000 -0.5000 -0.5000) symmetry
     This is a supercell, fractional translations are disabled
     Message from routine setup:
     using ibrav=0 with symmetry is DISCOURAGED, use correct ibrav instead

     Subspace diagonalization in iterative solution of the eigenvalue problem:
     one sub-group per band group will be used
     scalapack distributed-memory algorithm (size of sub-group:  3*  3 procs)

 
     Parallelization info
     --------------------
     sticks:   dense  smooth     PW     G-vecs:    dense   smooth      PW
     Min          40      40     13                  602      602     117
     Max          41      41     14                  605      605     120
     Sum         401     401    137                 6031     6031    1189
 
     Using Slab Decomposition
 


     bravais-lattice index     =            0
     lattice parameter (alat)  =       4.9993  a.u.
     unit-cell volume          =     124.9457 (a.u.)^3
     number of atoms/cell      =            2
     number of atomic types    =            1
     number of electrons       =        22.00
     number of Kohn-Sham states=           15
     kinetic-energy cutoff     =      50.0000  Ry
     charge density cutoff     =     200.0000  Ry
     scf convergence threshold =      1.0E-06
     mixing beta               =       0.7000
     number of iterations used =            8  plain     mixing
     Exchange-correlation= SLA  PW   PBX  PBC
                           (   1   4   3   4   0   0   0)

     celldm(1)=   4.999275  celldm(2)=   0.000000  celldm(3)=   0.000000
     celldm(4)=   0.000000  celldm(5)=   0.000000  celldm(6)=   0.000000

     crystal axes: (cart. coord. in units of alat)
               a(1) = (   1.000000   0.000000   0.000000 )  
               a(2) = (   0.000000   1.000000   0.000000 )  
               a(3) = (   0.000000   0.000000   1.000000 )  

     reciprocal axes: (cart. coord. in units 2 pi/alat)
               b(1) = (  1.000000  0.000000  0.000000 )  
               b(2) = (  0.000000  1.000000  0.000000 )  
               b(3) = (  0.000000  0.000000  1.000000 )  


     PseudoPot. # 1 for Au read from file:
     ./Au.pbe-n-kjpaw_psl.1.0.0.UPF
     MD5 check sum: 4db85c736373c707a97ce4c36c2a9d23
     Pseudo is Projector augmented-wave + core cor, Zval = 11.0
     Generated using &quot;atomic&quot; code by A. Dal Corso  v.6.3
     Shape of augmentation charge: PSQ
     Using radial grid of 1279 points,  6 beta functions with: 
                l(1) =   0
                l(2) =   0
                l(3) =   1
                l(4) =   1
                l(5) =   2
                l(6) =   2
     Q(r) pseudized with 0 coefficients 


     atomic species   valence    mass     pseudopotential
        Au            11.00   196.96657     Au( 1.00)

     48 Sym. Ops., with inversion, found



   Cartesian axes

     site n.     atom                  positions (alat units)
         1           Au  tau(   1) = (   0.0000000   0.0000000   0.0000000  )
         2           Au  tau(   2) = (   0.5000000   0.5000000   0.5000000  )

     number of k points=    84  Gaussian smearing, width (Ry)=  0.2000
                       cart. coord. in units 2pi/alat
        k(    1) = (   0.0000000   0.0000000   0.0000000), wk =   0.0011574
        k(    2) = (   0.0000000   0.0000000   0.0833333), wk =   0.0069444
        k(    3) = (   0.0000000   0.0000000   0.1666667), wk =   0.0069444
        k(    4) = (   0.0000000   0.0000000   0.2500000), wk =   0.0069444
        k(    5) = (   0.0000000   0.0000000   0.3333333), wk =   0.0069444
        k(    6) = (   0.0000000   0.0000000   0.4166667), wk =   0.0069444
        k(    7) = (   0.0000000   0.0000000  -0.5000000), wk =   0.0034722
        k(    8) = (   0.0000000   0.0833333   0.0833333), wk =   0.0138889
        k(    9) = (   0.0000000   0.0833333   0.1666667), wk =   0.0277778
        k(   10) = (   0.0000000   0.0833333   0.2500000), wk =   0.0277778
        k(   11) = (   0.0000000   0.0833333   0.3333333), wk =   0.0277778
        k(   12) = (   0.0000000   0.0833333   0.4166667), wk =   0.0277778
        k(   13) = (   0.0000000   0.0833333  -0.5000000), wk =   0.0138889
        k(   14) = (   0.0000000   0.1666667   0.1666667), wk =   0.0138889
        k(   15) = (   0.0000000   0.1666667   0.2500000), wk =   0.0277778
        k(   16) = (   0.0000000   0.1666667   0.3333333), wk =   0.0277778
        k(   17) = (   0.0000000   0.1666667   0.4166667), wk =   0.0277778
        k(   18) = (   0.0000000   0.1666667  -0.5000000), wk =   0.0138889
        k(   19) = (   0.0000000   0.2500000   0.2500000), wk =   0.0138889
        k(   20) = (   0.0000000   0.2500000   0.3333333), wk =   0.0277778
        k(   21) = (   0.0000000   0.2500000   0.4166667), wk =   0.0277778
        k(   22) = (   0.0000000   0.2500000  -0.5000000), wk =   0.0138889
        k(   23) = (   0.0000000   0.3333333   0.3333333), wk =   0.0138889
        k(   24) = (   0.0000000   0.3333333   0.4166667), wk =   0.0277778
        k(   25) = (   0.0000000   0.3333333  -0.5000000), wk =   0.0138889
        k(   26) = (   0.0000000   0.4166667   0.4166667), wk =   0.0138889
        k(   27) = (   0.0000000   0.4166667  -0.5000000), wk =   0.0138889
        k(   28) = (   0.0000000  -0.5000000  -0.5000000), wk =   0.0034722
        k(   29) = (   0.0833333   0.0833333   0.0833333), wk =   0.0092593
        k(   30) = (   0.0833333   0.0833333   0.1666667), wk =   0.0277778
        k(   31) = (   0.0833333   0.0833333   0.2500000), wk =   0.0277778
        k(   32) = (   0.0833333   0.0833333   0.3333333), wk =   0.0277778
        k(   33) = (   0.0833333   0.0833333   0.4166667), wk =   0.0277778
        k(   34) = (   0.0833333   0.0833333  -0.5000000), wk =   0.0138889
        k(   35) = (   0.0833333   0.1666667   0.1666667), wk =   0.0277778
        k(   36) = (   0.0833333   0.1666667   0.2500000), wk =   0.0555556
        k(   37) = (   0.0833333   0.1666667   0.3333333), wk =   0.0555556
        k(   38) = (   0.0833333   0.1666667   0.4166667), wk =   0.0555556
        k(   39) = (   0.0833333   0.1666667  -0.5000000), wk =   0.0277778
        k(   40) = (   0.0833333   0.2500000   0.2500000), wk =   0.0277778
        k(   41) = (   0.0833333   0.2500000   0.3333333), wk =   0.0555556
        k(   42) = (   0.0833333   0.2500000   0.4166667), wk =   0.0555556
        k(   43) = (   0.0833333   0.2500000  -0.5000000), wk =   0.0277778
        k(   44) = (   0.0833333   0.3333333   0.3333333), wk =   0.0277778
        k(   45) = (   0.0833333   0.3333333   0.4166667), wk =   0.0555556
        k(   46) = (   0.0833333   0.3333333  -0.5000000), wk =   0.0277778
        k(   47) = (   0.0833333   0.4166667   0.4166667), wk =   0.0277778
        k(   48) = (   0.0833333   0.4166667  -0.5000000), wk =   0.0277778
        k(   49) = (   0.0833333  -0.5000000  -0.5000000), wk =   0.0069444
        k(   50) = (   0.1666667   0.1666667   0.1666667), wk =   0.0092593
        k(   51) = (   0.1666667   0.1666667   0.2500000), wk =   0.0277778
        k(   52) = (   0.1666667   0.1666667   0.3333333), wk =   0.0277778
        k(   53) = (   0.1666667   0.1666667   0.4166667), wk =   0.0277778
        k(   54) = (   0.1666667   0.1666667  -0.5000000), wk =   0.0138889
        k(   55) = (   0.1666667   0.2500000   0.2500000), wk =   0.0277778
        k(   56) = (   0.1666667   0.2500000   0.3333333), wk =   0.0555556
        k(   57) = (   0.1666667   0.2500000   0.4166667), wk =   0.0555556
        k(   58) = (   0.1666667   0.2500000  -0.5000000), wk =   0.0277778
        k(   59) = (   0.1666667   0.3333333   0.3333333), wk =   0.0277778
        k(   60) = (   0.1666667   0.3333333   0.4166667), wk =   0.0555556
        k(   61) = (   0.1666667   0.3333333  -0.5000000), wk =   0.0277778
        k(   62) = (   0.1666667   0.4166667   0.4166667), wk =   0.0277778
        k(   63) = (   0.1666667   0.4166667  -0.5000000), wk =   0.0277778
        k(   64) = (   0.1666667  -0.5000000  -0.5000000), wk =   0.0069444
        k(   65) = (   0.2500000   0.2500000   0.2500000), wk =   0.0092593
        k(   66) = (   0.2500000   0.2500000   0.3333333), wk =   0.0277778
        k(   67) = (   0.2500000   0.2500000   0.4166667), wk =   0.0277778
        k(   68) = (   0.2500000   0.2500000  -0.5000000), wk =   0.0138889
        k(   69) = (   0.2500000   0.3333333   0.3333333), wk =   0.0277778
        k(   70) = (   0.2500000   0.3333333   0.4166667), wk =   0.0555556
        k(   71) = (   0.2500000   0.3333333  -0.5000000), wk =   0.0277778
        k(   72) = (   0.2500000   0.4166667   0.4166667), wk =   0.0277778
        k(   73) = (   0.2500000   0.4166667  -0.5000000), wk =   0.0277778
        k(   74) = (   0.2500000  -0.5000000  -0.5000000), wk =   0.0069444
        k(   75) = (   0.3333333   0.3333333   0.3333333), wk =   0.0092593
        k(   76) = (   0.3333333   0.3333333   0.4166667), wk =   0.0277778
        k(   77) = (   0.3333333   0.3333333  -0.5000000), wk =   0.0138889
        k(   78) = (   0.3333333   0.4166667   0.4166667), wk =   0.0277778
        k(   79) = (   0.3333333   0.4166667  -0.5000000), wk =   0.0277778
        k(   80) = (   0.3333333  -0.5000000  -0.5000000), wk =   0.0069444
        k(   81) = (   0.4166667   0.4166667   0.4166667), wk =   0.0092593
        k(   82) = (   0.4166667   0.4166667  -0.5000000), wk =   0.0138889
        k(   83) = (   0.4166667  -0.5000000  -0.5000000), wk =   0.0069444
        k(   84) = (  -0.5000000  -0.5000000  -0.5000000), wk =   0.0011574

     Dense  grid:     6031 G-vectors     FFT dimensions: (  24,  24,  24)

     Estimated max dynamical RAM per process >       4.75 MB

     Estimated total dynamical RAM >      47.50 MB

     Initial potential from superposition of free atoms

     starting charge      21.9998, renormalised to      22.0000
     Starting wfcs are   18 randomized atomic wfcs
     Checking if some PAW data can be deallocated... 

     total cpu time spent up to now is        0.6 secs

     Self-consistent Calculation

     iteration #  1     ecut=    50.00 Ry     beta= 0.70
     Davidson diagonalization with overlap
     ethr =  1.00E-02,  avg # of iterations =  6.8

     Threshold (ethr) on eigenvalues was too large:
     Diagonalizing with lowered threshold

     Davidson diagonalization with overlap
     ethr =  1.71E-04,  avg # of iterations =  7.5

     total cpu time spent up to now is        2.5 secs

     total energy              =   -1549.08930311 Ry
     estimated scf accuracy    <       0.03650363 Ry

     iteration #  2     ecut=    50.00 Ry     beta= 0.70
     Davidson diagonalization with overlap
     ethr =  1.66E-04,  avg # of iterations =  1.5

     total cpu time spent up to now is        3.0 secs

     total energy              =   -1549.09294153 Ry
     estimated scf accuracy    <       0.00340973 Ry

     iteration #  3     ecut=    50.00 Ry     beta= 0.70
     Davidson diagonalization with overlap
     c_bands:  1 eigenvalues not converged
     c_bands:  1 eigenvalues not converged
     c_bands:  1 eigenvalues not converged
     c_bands:  1 eigenvalues not converged
     ethr =  1.55E-05,  avg # of iterations =  7.0

     total cpu time spent up to now is        3.9 secs

     total energy              =   -1549.09372657 Ry
     estimated scf accuracy    <       0.00005185 Ry

     iteration #  4     ecut=    50.00 Ry     beta= 0.70
     Davidson diagonalization with overlap
     c_bands:  1 eigenvalues not converged
     c_bands:  1 eigenvalues not converged
     c_bands:  1 eigenvalues not converged
     ethr =  2.36E-07,  avg # of iterations =  8.6

     total cpu time spent up to now is        5.2 secs

     total energy              =   -1549.09387279 Ry
     estimated scf accuracy    <       0.00001699 Ry

     iteration #  5     ecut=    50.00 Ry     beta= 0.70
     Davidson diagonalization with overlap
     ethr =  7.72E-08,  avg # of iterations =  2.7

     total cpu time spent up to now is        5.8 secs

     End of self-consistent calculation

          k = 0.0000 0.0000 0.0000 (   739 PWs)   bands (ev):

    17.0651  19.5099  19.5099  25.0918  25.0918  25.0918  29.8806  29.8806
    33.5051  33.5051  33.5051  43.0333  43.0333  43.0334  52.2920

          k = 0.0000 0.0000 0.0833 (   743 PWs)   bands (ev):

    17.3078  19.6317  19.7250  25.0932  25.0932  25.2004  29.5917  29.9883
    32.9202  32.9202  33.3040  42.1630  43.8672  43.8672  52.5495

          k = 0.0000 0.0000 0.1667 (   739 PWs)   bands (ev):

    18.0098  19.9949  20.3317  25.1182  25.1182  25.5235  28.7927  30.2957
    31.5938  31.5938  32.7342  40.1630  45.9324  45.9325  53.2451

          k = 0.0000 0.0000 0.2500 (   751 PWs)   bands (ev):

    19.0892  20.5922  21.2059  25.2182  25.2182  26.0517  27.6422  30.0930
    30.0930  30.7555  31.8812  37.8420  48.6331  48.6332  54.2121

          k = 0.0000 0.0000 0.3333 (   743 PWs)   bands (ev):

    20.3937  21.4111  22.1106  25.4574  25.4574  26.3111  26.7689  28.6926
    28.6926  30.8521  31.2975  35.6431  51.6336  51.6336  53.4779

          k = 0.0000 0.0000 0.4167 (   744 PWs)   bands (ev):

    21.6697  22.4311  22.6785  24.9382  25.8940  25.8940  27.5041  27.5041
    27.6503  29.7498  31.8844  33.8536  52.1242  52.5466  54.6794

          k = 0.0000 0.0000-0.5000 (   756 PWs)   bands (ev):

    22.5433  22.5440  23.6213  23.6229  26.5686  26.5686  26.5702  26.5702
    28.6594  28.6613  32.6400  32.6417  51.7071  51.7076  57.4059

          k = 0.0000 0.0833 0.0833 (   744 PWs)   bands (ev):

    17.5414  19.7934  19.8964  24.8525  25.0836  25.5543  29.5462  29.8988
    32.0159  32.3493  33.5834  42.8321  43.1068  44.5335  52.6080

          k = 0.0000 0.0833 0.1667 (   749 PWs)   bands (ev):

    18.2128  20.1575  20.4882  24.6823  25.0803  26.0798  28.9217  30.1555
    30.6137  31.0685  33.3628  40.8888  44.9630  46.3077  53.1007

          k = 0.0000 0.0833 0.2500 (   751 PWs)   bands (ev):

    19.2302  20.7275  21.3574  24.6535  25.1284  26.7441  27.9408  29.1514
    29.6606  30.6367  32.6752  38.4809  47.4478  48.7813  53.8676

          k = 0.0000 0.0833 0.3333 (   756 PWs)   bands (ev):

    20.4299  21.4876  22.2448  24.8054  25.1596  26.9649  27.5506  27.8093
    28.4415  31.2055  31.7150  36.1476  49.8252  51.6347  53.6465

          k = 0.0000 0.0833 0.4167 (   750 PWs)   bands (ev):

    21.5730  22.3107  22.8563  24.6680  25.1769  26.6548  26.6776  27.5712
    28.4894  30.6320  31.8449  34.1615  50.8881  51.9423  54.6108

          k = 0.0000 0.0833-0.5000 (   754 PWs)   bands (ev):

    22.3593  22.3599  23.6678  23.6692  25.7965  25.7973  27.0087  27.0099
    29.5319  29.5330  32.7344  32.7360  51.0579  51.0583  56.1492

          k = 0.0000 0.1667 0.1667 (   748 PWs)   bands (ev):

    18.7797  20.5201  21.0344  24.2382  25.0380  26.8965  29.0411  29.1365
    29.9229  29.9777  33.8009  42.0618  43.3646  47.4503  53.0013

          k = 0.0000 0.1667 0.2500 (   753 PWs)   bands (ev):

    19.5839  20.9747  21.9125  23.9709  25.1069  27.6940  27.8146  28.5816
    28.7632  30.3359  33.6400  39.8946  45.1389  49.3132  52.9267

          k = 0.0000 0.1667 0.3333 (   748 PWs)   bands (ev):

    20.4363  21.4593  22.8577  23.9251  25.2294  26.4208  27.9809  28.0131
    28.8181  30.9453  32.9961  37.3035  47.2348  51.7221  52.1420

          k = 0.0000 0.1667 0.4167 (   748 PWs)   bands (ev):

    21.1638  21.7658  23.6523  24.1338  25.0083  25.3842  27.7786  27.8596
    29.8885  31.7231  32.0608  34.9131  48.7292  50.6759  54.1289

          k = 0.0000 0.1667-0.5000 (   754 PWs)   bands (ev):

    21.6534  21.6537  24.3717  24.3730  24.6179  24.6182  27.8851  27.8856
    30.9900  30.9906  32.9847  32.9861  49.6089  49.6093  54.1612

          k = 0.0000 0.2500 0.2500 (   758 PWs)   bands (ev):

    19.9825  21.1548  22.8630  23.4756  25.4545  26.3113  27.9926  28.9679
    29.0584  30.1579  34.1060  40.4137  43.7732  50.3968  51.9994

          k = 0.0000 0.2500 0.3333 (   743 PWs)   bands (ev):

    20.3039  21.2000  23.2259  23.9557  25.1307  26.0528  27.7420  28.9897
    30.1529  30.5907  33.9759  38.3055  44.9968  50.8768  52.2605

          k = 0.0000 0.2500 0.4167 (   744 PWs)   bands (ev):

    20.5685  21.0719  23.2550  24.2107  24.9262  26.1993  28.1238  28.9936
    31.3264  31.5134  33.3587  35.6732  46.5873  49.3213  51.7446

          k = 0.0000 0.2500-0.5000 (   740 PWs)   bands (ev):

    20.8312  20.8313  23.5818  23.5819  25.7003  25.7016  28.7400  28.7401
    32.4272  32.4275  33.2672  33.2683  47.9423  47.9426  51.7638

          k = 0.0000 0.3333 0.3333 (   748 PWs)   bands (ev):

    20.1292  20.8131  22.7834  24.0648  25.2833  27.3352  27.9355  29.5975
    30.4334  31.4584  34.4211  37.8687  44.2253  49.9350  50.0548

          k = 0.0000 0.3333 0.4167 (   748 PWs)   bands (ev):

    20.0562  20.4281  22.6343  23.2780  26.5165  27.9285  28.5817  29.8315
    31.2108  32.6539  34.2776  35.8090  45.0328  47.9911  49.4726

          k = 0.0000 0.3333-0.5000 (   740 PWs)   bands (ev):

    20.1560  20.1560  22.7976  22.7977  27.4345  27.4358  29.4061  29.4066
    33.3215  33.3225  33.6383  33.6385  46.3639  46.3641  49.5921

          k = 0.0000 0.4167 0.4167 (   744 PWs)   bands (ev):

    19.7589  19.9562  22.3130  22.6365  28.1552  29.1264  29.3597  30.7083
    30.7998  33.7435  34.6587  34.7725  44.5985  46.4696  48.2501

          k = 0.0000 0.4167-0.5000 (   754 PWs)   bands (ev):

    19.7235  19.7235  22.3117  22.3118  29.2502  29.2515  29.9080  29.9090
    32.8169  32.8176  34.4564  34.4565  45.1933  45.1934  48.1320

          k = 0.0000-0.5000-0.5000 (   768 PWs)   bands (ev):

    19.5753  19.5754  22.1473  22.1473  29.8124  29.8133  30.8264  30.8286
    31.9987  31.9987  34.7472  34.7472  44.7642  44.7643  47.6218

          k = 0.0833 0.0833 0.0833 (   748 PWs)   bands (ev):

    17.7686  20.0097  20.0097  24.8331  24.8331  25.9244  29.6730  29.6730
    30.8682  33.0028  33.0028  43.5981  43.6533  43.6534  52.7370

          k = 0.0833 0.0833 0.1667 (   748 PWs)   bands (ev):

    18.4177  20.3465  20.6176  24.5796  24.7886  26.5652  29.0480  29.3944
    30.0261  31.6943  33.1218  41.5707  45.0319  45.6722  53.2142

          k = 0.0833 0.0833 0.2500 (   746 PWs)   bands (ev):

    19.3875  20.8951  21.4783  24.5231  24.7404  27.3455  27.9963  28.1711
    30.2285  30.5351  32.6569  39.1380  47.0244  48.2777  53.9370

          k = 0.0833 0.0833 0.3333 (   752 PWs)   bands (ev):

    20.5025  21.6334  22.3061  24.6413  24.7365  26.8750  27.2934  28.2481
    28.8862  31.1279  31.8486  36.7361  49.0145  51.0932  53.2266

          k = 0.0833 0.0833 0.4167 (   746 PWs)   bands (ev):

    21.5439  22.5186  22.6617  24.2580  25.2066  26.1785  26.8332  27.7977
    29.2030  30.9407  31.8375  34.5962  50.1145  51.5222  53.7334

          k = 0.0833 0.0833-0.5000 (   754 PWs)   bands (ev):

    22.3307  22.3310  23.4613  23.4625  25.7320  25.7321  27.0590  27.0601
    30.0848  30.0858  32.9241  32.9255  50.5538  50.5545  55.3660

          k = 0.0833 0.1667 0.1667 (   746 PWs)   bands (ev):

    18.9877  20.7464  21.1221  24.1929  24.6459  27.4353  27.9164  29.1774
    29.8713  30.9950  33.2244  42.8523  43.4362  46.5883  53.2982

          k = 0.0833 0.1667 0.2500 (   743 PWs)   bands (ev):

    19.7846  21.2040  21.9766  23.9270  24.6461  26.6117  28.4227  28.7324
    29.7582  30.2759  33.1177  40.5578  45.0998  48.4776  53.1912

          k = 0.0833 0.1667 0.3333 (   748 PWs)   bands (ev):

    20.5977  21.6985  22.8062  23.8716  24.7983  25.7062  28.1057  28.6917
    29.5225  30.9138  32.5456  38.0015  46.9279  50.7807  52.1262

          k = 0.0833 0.1667 0.4167 (   750 PWs)   bands (ev):

    21.2701  21.9857  23.2916  23.8693  25.0194  25.3491  27.7881  28.0578
    30.4094  31.7455  31.8931  35.5985  48.3295  50.4941  52.8273

          k = 0.0833 0.1667-0.5000 (   754 PWs)   bands (ev):

    21.7767  21.7769  23.6611  23.6616  25.1925  25.1931  27.8319  27.8324
    31.0182  31.0192  33.5062  33.5072  49.3055  49.3058  53.7688

          k = 0.0833 0.2500 0.2500 (   746 PWs)   bands (ev):

    20.2227  21.4006  22.9048  23.4345  24.9313  25.4385  28.8820  29.1089
    29.6885  30.1370  33.5000  41.2053  43.6256  49.4136  52.2417

          k = 0.0833 0.2500 0.3333 (   747 PWs)   bands (ev):

    20.5359  21.4304  23.1940  23.8429  24.7277  25.5371  28.3258  28.9767
    30.5132  31.0110  33.3297  39.1092  44.8052  50.7747  50.9785

          k = 0.0833 0.2500 0.4167 (   749 PWs)   bands (ev):

    20.7597  21.2631  23.1993  23.7551  25.1761  25.9579  28.3627  28.8462
    31.0291  32.5309  32.6538  36.6202  46.3339  49.2403  51.6635

          k = 0.0833 0.2500-0.5000 (   754 PWs)   bands (ev):

    21.0004  21.0004  23.4085  23.4085  25.7618  25.7630  28.7155  28.7155
    31.7520  31.7531  34.3808  34.3814  47.7347  47.7351  51.6596

          k = 0.0833 0.3333 0.3333 (   747 PWs)   bands (ev):

    20.3766  21.0151  22.7666  23.8088  25.2515  26.7419  28.3221  29.5292
    30.4459  32.3346  33.6386  38.8499  43.9962  49.9599  50.1304

          k = 0.0833 0.3333 0.4167 (   749 PWs)   bands (ev):

    20.2852  20.6184  22.6256  23.1840  26.4665  27.5732  28.7714  29.6559
    30.9295  33.2295  33.7048  37.0957  44.7994  47.8685  49.6099

          k = 0.0833 0.3333-0.5000 (   746 PWs)   bands (ev):

    20.3591  20.3592  22.7724  22.7725  27.3254  27.3267  29.4046  29.4051
    32.1209  32.1219  35.2330  35.2333  46.1616  46.1618  49.6575

          k = 0.0833 0.4167 0.4167 (   746 PWs)   bands (ev):

    19.9964  20.1632  22.3199  22.6258  28.0031  29.1395  29.2658  30.1420
    30.7233  33.0501  34.8134  36.6700  44.3498  46.2715  48.4508

          k = 0.0833 0.4167-0.5000 (   746 PWs)   bands (ev):

    19.9505  19.9505  22.3214  22.3214  29.1234  29.1246  29.8503  29.8511
    31.8921  31.8931  35.7842  35.7842  44.9584  44.9586  48.3005

          k = 0.0833-0.5000-0.5000 (   744 PWs)   bands (ev):

    19.8110  19.8111  22.1637  22.1637  29.8833  29.8842  30.8385  30.8407
    30.9015  30.9015  35.9612  35.9612  44.5121  44.5123  47.8274

          k = 0.1667 0.1667 0.1667 (   748 PWs)   bands (ev):

    19.5588  21.3779  21.3779  24.0766  24.0766  26.4508  28.4792  29.5622
    29.5622  31.9579  31.9579  43.6132  44.7424  44.7424  54.0716

          k = 0.1667 0.1667 0.2500 (   746 PWs)   bands (ev):

    20.3130  21.7788  22.2237  23.8147  23.9301  25.2530  29.0973  29.6722
    30.1151  30.5899  32.2888  41.9110  44.7945  47.0795  53.6221

          k = 0.1667 0.1667 0.3333 (   745 PWs)   bands (ev):

    20.9560  22.2799  22.6874  23.7748  24.0981  24.7921  28.5861  29.4099
    30.5541  31.1228  32.0295  39.3979  45.9469  49.4350  51.8060

          k = 0.1667 0.1667 0.4167 (   750 PWs)   bands (ev):

    21.3859  22.3152  22.8074  23.5773  24.7984  25.1955  28.2064  28.5679
    30.8972  31.5120  32.7425  36.9393  47.2112  49.9053  51.4145

          k = 0.1667 0.1667-0.5000 (   768 PWs)   bands (ev):

    21.8009  21.8011  23.2629  23.2634  25.3212  25.3221  28.1605  28.1608
    31.1200  31.1213  34.6903  34.6909  48.4349  48.4352  52.6832

          k = 0.1667 0.2500 0.2500 (   749 PWs)   bands (ev):

    20.9002  22.1042  23.0172  23.3358  23.9759  24.1840  29.4286  30.0599
    30.1272  31.0598  32.2634  42.9819  43.3052  47.3656  52.7735

          k = 0.1667 0.2500 0.3333 (   748 PWs)   bands (ev):

    21.1706  22.0392  23.1561  23.3401  24.3689  24.5036  29.2361  29.3613
    30.4969  32.1968  32.5119  40.6706  44.3638  48.8043  51.0437

          k = 0.1667 0.2500 0.4167 (   751 PWs)   bands (ev):

    21.2204  21.6754  23.1568  23.2314  25.2703  25.2810  28.9492  28.9782
    30.9235  31.7526  34.1171  38.2355  45.6511  48.9068  50.2309

          k = 0.1667 0.2500-0.5000 (   750 PWs)   bands (ev):

    21.3572  21.3574  23.2000  23.2000  25.6400  25.6411  28.8792  28.8793
    31.2674  31.2688  36.0141  36.0145  47.1247  47.1248  51.1556

          k = 0.1667 0.3333 0.3333 (   748 PWs)   bands (ev):

    21.0854  21.5019  22.7384  23.4066  25.1355  25.5373  29.1711  29.6810
    30.4695  32.3690  34.0055  40.7165  43.4209  48.9456  49.6968

          k = 0.1667 0.3333 0.4167 (   745 PWs)   bands (ev):

    20.9178  21.0827  22.6417  23.0840  26.2285  26.5572  29.2750  29.6742
    30.8061  32.0330  35.4984  39.0032  44.2025  47.4754  49.3800

          k = 0.1667 0.3333-0.5000 (   744 PWs)   bands (ev):

    20.8867  20.8869  22.7882  22.7882  26.8336  26.8346  29.5396  29.5401
    31.3524  31.3539  37.1318  37.1320  45.6074  45.6074  49.6623

          k = 0.1667 0.4167 0.4167 (   746 PWs)   bands (ev):

    20.6733  20.7125  22.3587  22.6725  27.4973  27.9175  29.6351  30.0072
    30.7618  31.8552  36.7174  38.7710  43.6926  45.7372  48.8691

          k = 0.1667 0.4167-0.5000 (   744 PWs)   bands (ev):

    20.5846  20.5848  22.3838  22.3838  28.3181  28.3187  29.9518  29.9527
    31.1807  31.1823  37.8172  37.8172  44.3326  44.3327  48.6700

          k = 0.1667-0.5000-0.5000 (   736 PWs)   bands (ev):

    20.4833  20.4835  22.2292  22.2292  29.1822  29.1822  30.0835  30.0846
    30.8717  30.8739  38.0270  38.0270  43.8358  43.8358  48.3373

          k = 0.2500 0.2500 0.2500 (   738 PWs)   bands (ev):

    21.7906  23.0827  23.1620  23.1620  23.2364  23.2364  29.9055  29.9055
    31.0369  31.0369  32.6107  43.0567  45.0523  45.0523  52.7904

          k = 0.2500 0.2500 0.3333 (   746 PWs)   bands (ev):

    21.9216  22.2527  23.1889  23.2809  23.6779  24.3368  29.6849  30.0932
    30.4334  31.3980  34.1802  42.0331  43.9001  47.0547  50.7117

          k = 0.2500 0.2500 0.4167 (   753 PWs)   bands (ev):

    21.6019  21.7199  23.2126  23.3209  24.7714  25.2609  29.4651  29.5402
    30.8497  31.3081  35.7992  39.7629  44.6847  48.1742  48.7677

          k = 0.2500 0.2500-0.5000 (   748 PWs)   bands (ev):

    21.5061  21.5064  23.2789  23.2791  25.4472  25.4483  29.3675  29.3680
    31.0938  31.0954  37.6277  37.6279  46.1460  46.1462  50.1079

          k = 0.2500 0.3333 0.3333 (   740 PWs)   bands (ev):

    21.7685  22.1324  22.7516  23.5989  24.3481  24.8884  30.0282  30.0490
    30.4743  31.3289  35.8045  42.7428  42.7749  46.8540  49.2762

          k = 0.2500 0.3333 0.4167 (   739 PWs)   bands (ev):

    21.4664  21.7285  22.8193  23.3909  25.4172  25.7499  29.8956  29.9906
    30.7820  31.2695  37.3546  40.8325  43.5300  46.8274  47.9308

          k = 0.2500 0.3333-0.5000 (   748 PWs)   bands (ev):

    21.4531  21.4535  23.0797  23.0799  26.0156  26.0164  29.9047  29.9056
    31.0426  31.0443  38.9774  38.9775  44.8492  44.8494  49.0994

          k = 0.2500 0.4167 0.4167 (   738 PWs)   bands (ev):

    21.3464  21.6698  22.4753  23.0156  26.4873  26.6329  30.1157  30.2703
    30.8074  31.2048  38.6866  40.9202  42.8449  45.0288  48.0779

          k = 0.2500 0.4167-0.5000 (   738 PWs)   bands (ev):

    21.4472  21.4475  22.6181  22.6182  27.0312  27.0315  30.2606  30.2618
    30.9792  30.9811  39.8843  39.8843  43.5381  43.5383  48.7524

          k = 0.2500-0.5000-0.5000 (   740 PWs)   bands (ev):

    21.4832  21.4836  22.3865  22.3865  27.5410  27.5410  30.3733  30.3746
    30.9173  30.9195  40.2318  40.2318  42.9308  42.9310  48.8210

          k = 0.3333 0.3333 0.3333 (   729 PWs)   bands (ev):

    21.6528  22.8638  22.8638  23.8557  24.4882  24.4882  30.4399  30.4399
    30.6778  30.6778  37.5034  42.3622  44.7106  44.7106  48.0787

          k = 0.3333 0.3333 0.4167 (   738 PWs)   bands (ev):

    21.6150  22.2998  23.1125  23.9906  24.8184  25.3083  30.3746  30.3845
    30.7788  30.9472  39.0277  41.9463  43.3098  45.8267  46.5119

          k = 0.3333 0.3333-0.5000 (   744 PWs)   bands (ev):

    21.8223  21.8226  23.5018  23.5024  25.4695  25.4703  30.3254  30.3266
    30.9496  30.9515  40.5040  40.5040  44.0322  44.0328  48.0952

          k = 0.3333 0.4167 0.4167 (   738 PWs)   bands (ev):

    21.7996  22.7152  22.7236  23.7991  25.3219  25.6004  30.5667  30.5973
    30.8432  30.9423  40.3781  42.0703  43.0377  44.3704  46.5730

          k = 0.3333 0.4167-0.5000 (   734 PWs)   bands (ev):

    22.1698  22.1701  23.2238  23.2243  25.7898  25.7901  30.6063  30.6078
    30.9454  30.9475  41.4819  41.4820  43.1390  43.1395  47.8627

          k = 0.3333-0.5000-0.5000 (   736 PWs)   bands (ev):

    22.6062  22.6069  22.6883  22.6883  26.0919  26.0919  30.6831  30.6847
    30.9633  30.9655  42.0301  42.0307  42.4373  42.4373  48.7557

          k = 0.4167 0.4167 0.4167 (   729 PWs)   bands (ev):

    22.2095  23.1494  23.1494  24.6111  24.6111  24.8472  30.8589  30.8589
    30.8669  30.8669  41.3507  41.6110  43.9740  45.0499  45.0499

          k = 0.4167 0.4167-0.5000 (   722 PWs)   bands (ev):

    22.7184  22.7187  23.7790  23.7800  24.9510  24.9514  30.8576  30.8595
    30.9608  30.9629  41.5269  41.5275  44.1103  44.1106  46.8661

          k = 0.4167-0.5000-0.5000 (   716 PWs)   bands (ev):

    23.1833  23.1833  23.5355  23.5365  24.8752  24.8752  30.9211  30.9232
    30.9973  30.9995  41.3607  41.3615  44.5537  44.5538  47.0842

          k =-0.5000-0.5000-0.5000 (   720 PWs)   bands (ev):

    23.9055  23.9055  23.9055  23.9067  23.9067  23.9067  31.0097  31.0097
    31.0119  31.0119  41.1110  41.1120  46.4616  46.4617  46.4619

     the Fermi energy is    36.2789 ev

!    total energy              =   -1549.09387770 Ry

     total all-electron energy =    -76046.786060 Ry
     estimated scf accuracy    <       0.00000031 Ry
     smearing contrib. (-TS)   =      -0.10426616 Ry
     internal energy E=F+TS    =   -1548.98961153 Ry

     The total energy is F=E-TS. E is the sum of the following terms:
     one-electron contribution =      72.32038048 Ry
     hartree contribution      =       6.81198069 Ry
     xc contribution           =     -66.30124156 Ry
     ewald contribution        =    -176.16442655 Ry
     one-center paw contrib.   =   -1385.65630459 Ry

     convergence has been achieved in   5 iterations

     Forces acting on atoms (cartesian axes, Ry/au):

     atom    1 type  1   force =     0.00000000    0.00000000    0.00000000
     atom    2 type  1   force =     0.00000000    0.00000000    0.00000000

     Total force =     0.000000     Total SCF correction =     0.000000

     Writing all to output data dir ./pwscf.save/
 
     init_run     :      0.21s CPU      0.28s WALL (       1 calls)
     electrons    :      5.01s CPU      5.41s WALL (       1 calls)
     forces       :      0.03s CPU      0.04s WALL (       1 calls)

     Called by init_run:
     wfcinit      :      0.14s CPU      0.14s WALL (       1 calls)
     potinit      :      0.04s CPU      0.07s WALL (       1 calls)
     hinit0       :      0.03s CPU      0.06s WALL (       1 calls)

     Called by electrons:
     c_bands      :      4.54s CPU      4.69s WALL (       6 calls)
     sum_band     :      0.27s CPU      0.28s WALL (       6 calls)
     v_of_rho     :      0.00s CPU      0.00s WALL (       6 calls)
     newd         :      0.00s CPU      0.01s WALL (       6 calls)
     PAW_pot      :      0.21s CPU      0.24s WALL (       6 calls)
     mix_rho      :      0.00s CPU      0.02s WALL (       6 calls)

     Called by c_bands:
     init_us_2    :      0.02s CPU      0.02s WALL (    1176 calls)
     init_us_2:cp :      0.02s CPU      0.02s WALL (    1176 calls)
     cegterg      :      4.45s CPU      4.60s WALL (     504 calls)

     Called by *egterg:
     cdiaghg      :      2.24s CPU      2.31s WALL (    3281 calls)
     h_psi        :      1.41s CPU      1.47s WALL (    3449 calls)
     s_psi        :      0.03s CPU      0.03s WALL (    3449 calls)
     g_psi        :      0.01s CPU      0.01s WALL (    2861 calls)

     Called by h_psi:
     h_psi:calbec :      0.12s CPU      0.12s WALL (    3449 calls)
     vloc_psi     :      1.24s CPU      1.29s WALL (    3449 calls)
     add_vuspsi   :      0.04s CPU      0.04s WALL (    3449 calls)

     General routines
     calbec       :      0.14s CPU      0.15s WALL (    4289 calls)
     fft          :      0.00s CPU      0.00s WALL (      78 calls)
     ffts         :      0.00s CPU      0.00s WALL (       6 calls)
     fftw         :      1.30s CPU      1.35s WALL (   65940 calls)
 
     Parallel routines
 
     PWSCF        :      5.53s CPU      8.34s WALL

 
   This run was terminated on:  11:27: 0   6Apr2024            

=------------------------------------------------------------------------------=
   JOB DONE.
=------------------------------------------------------------------------------=
