MPI startup(): Warning: I_MPI_PMI_LIBRARY will be ignored since the hydra process manager was found
MPI startup(): Warning: I_MPI_PMI_LIBRARY will be ignored since the hydra process manager was found
MPI startup(): Warning: I_MPI_PMI_LIBRARY will be ignored since the hydra process manager was found
MPI startup(): Warning: I_MPI_PMI_LIBRARY will be ignored since the hydra process manager was found
MPI startup(): Warning: I_MPI_PMI_LIBRARY will be ignored since the hydra process manager was found
MPI startup(): Warning: I_MPI_PMI_LIBRARY will be ignored since the hydra process manager was found
MPI startup(): Warning: I_MPI_PMI_LIBRARY will be ignored since the hydra process manager was found
MPI startup(): Warning: I_MPI_PMI_LIBRARY will be ignored since the hydra process manager was found
MPI startup(): Warning: I_MPI_PMI_LIBRARY will be ignored since the hydra process manager was found
MPI startup(): Warning: I_MPI_PMI_LIBRARY will be ignored since the hydra process manager was found

     Program PWSCF v.7.0 starts on  6Apr2024 at 11:27: 0 

     This program is part of the open-source Quantum ESPRESSO suite
     for quantum simulation of materials; please cite
         "P. Giannozzi et al., J. Phys.:Condens. Matter 21 395502 (2009);
         "P. Giannozzi et al., J. Phys.:Condens. Matter 29 465901 (2017);
         "P. Giannozzi et al., J. Chem. Phys. 152 154105 (2020);
          URL http://www.quantum-espresso.org", 
     in publications or presentations arising from this work. More details at
     http://www.quantum-espresso.org/quote

     Parallel version (MPI), running on    10 processors

     MPI processes distributed on     1 nodes
     R & G space division:  proc/nbgrp/npool/nimage =      10
     229493 MiB available memory on the printing compute node when the environment starts
 
     Reading input from VolumeBCC_5.1.in
Warning: card &CELL ignored
Warning: card / ignored

     Current dimensions of program PWSCF are:
     Max number of different atomic species (ntypx) = 10
     Max number of k-points (npk) =  40000
     Max angular momentum in pseudopotentials (lmaxx) =  4
     file Au.pbe-n-kjpaw_psl.1.0.0.UPF: wavefunction(s)  6S 5D renormalized
     Found identity + (  0.5000  0.5000  0.5000) symmetry
     This is a supercell, fractional translations are disabled
     Message from routine setup:
     using ibrav=0 with symmetry is DISCOURAGED, use correct ibrav instead

     Subspace diagonalization in iterative solution of the eigenvalue problem:
     one sub-group per band group will be used
     scalapack distributed-memory algorithm (size of sub-group:  3*  3 procs)

 
     Parallelization info
     --------------------
     sticks:   dense  smooth     PW     G-vecs:    dense   smooth      PW
     Min          42      42     13                  634      634     119
     Max          43      43     14                  637      637     122
     Sum         421     421    137                 6355     6355    1213
 
     Using Slab Decomposition
 


     bravais-lattice index     =            0
     lattice parameter (alat)  =       5.0993  a.u.
     unit-cell volume          =     132.5933 (a.u.)^3
     number of atoms/cell      =            2
     number of atomic types    =            1
     number of electrons       =        22.00
     number of Kohn-Sham states=           15
     kinetic-energy cutoff     =      50.0000  Ry
     charge density cutoff     =     200.0000  Ry
     scf convergence threshold =      1.0E-06
     mixing beta               =       0.7000
     number of iterations used =            8  plain     mixing
     Exchange-correlation= SLA  PW   PBX  PBC
                           (   1   4   3   4   0   0   0)

     celldm(1)=   5.099261  celldm(2)=   0.000000  celldm(3)=   0.000000
     celldm(4)=   0.000000  celldm(5)=   0.000000  celldm(6)=   0.000000

     crystal axes: (cart. coord. in units of alat)
               a(1) = (   1.000000   0.000000   0.000000 )  
               a(2) = (   0.000000   1.000000   0.000000 )  
               a(3) = (   0.000000   0.000000   1.000000 )  

     reciprocal axes: (cart. coord. in units 2 pi/alat)
               b(1) = (  1.000000  0.000000  0.000000 )  
               b(2) = (  0.000000  1.000000  0.000000 )  
               b(3) = (  0.000000  0.000000  1.000000 )  


     PseudoPot. # 1 for Au read from file:
     ./Au.pbe-n-kjpaw_psl.1.0.0.UPF
     MD5 check sum: 4db85c736373c707a97ce4c36c2a9d23
     Pseudo is Projector augmented-wave + core cor, Zval = 11.0
     Generated using &quot;atomic&quot; code by A. Dal Corso  v.6.3
     Shape of augmentation charge: PSQ
     Using radial grid of 1279 points,  6 beta functions with: 
                l(1) =   0
                l(2) =   0
                l(3) =   1
                l(4) =   1
                l(5) =   2
                l(6) =   2
     Q(r) pseudized with 0 coefficients 


     atomic species   valence    mass     pseudopotential
        Au            11.00   196.96657     Au( 1.00)

     48 Sym. Ops., with inversion, found



   Cartesian axes

     site n.     atom                  positions (alat units)
         1           Au  tau(   1) = (   0.0000000   0.0000000   0.0000000  )
         2           Au  tau(   2) = (   0.5000000   0.5000000   0.5000000  )

     number of k points=    84  Gaussian smearing, width (Ry)=  0.2000
                       cart. coord. in units 2pi/alat
        k(    1) = (   0.0000000   0.0000000   0.0000000), wk =   0.0011574
        k(    2) = (   0.0000000   0.0000000   0.0833333), wk =   0.0069444
        k(    3) = (   0.0000000   0.0000000   0.1666667), wk =   0.0069444
        k(    4) = (   0.0000000   0.0000000   0.2500000), wk =   0.0069444
        k(    5) = (   0.0000000   0.0000000   0.3333333), wk =   0.0069444
        k(    6) = (   0.0000000   0.0000000   0.4166667), wk =   0.0069444
        k(    7) = (   0.0000000   0.0000000  -0.5000000), wk =   0.0034722
        k(    8) = (   0.0000000   0.0833333   0.0833333), wk =   0.0138889
        k(    9) = (   0.0000000   0.0833333   0.1666667), wk =   0.0277778
        k(   10) = (   0.0000000   0.0833333   0.2500000), wk =   0.0277778
        k(   11) = (   0.0000000   0.0833333   0.3333333), wk =   0.0277778
        k(   12) = (   0.0000000   0.0833333   0.4166667), wk =   0.0277778
        k(   13) = (   0.0000000   0.0833333  -0.5000000), wk =   0.0138889
        k(   14) = (   0.0000000   0.1666667   0.1666667), wk =   0.0138889
        k(   15) = (   0.0000000   0.1666667   0.2500000), wk =   0.0277778
        k(   16) = (   0.0000000   0.1666667   0.3333333), wk =   0.0277778
        k(   17) = (   0.0000000   0.1666667   0.4166667), wk =   0.0277778
        k(   18) = (   0.0000000   0.1666667  -0.5000000), wk =   0.0138889
        k(   19) = (   0.0000000   0.2500000   0.2500000), wk =   0.0138889
        k(   20) = (   0.0000000   0.2500000   0.3333333), wk =   0.0277778
        k(   21) = (   0.0000000   0.2500000   0.4166667), wk =   0.0277778
        k(   22) = (   0.0000000   0.2500000  -0.5000000), wk =   0.0138889
        k(   23) = (   0.0000000   0.3333333   0.3333333), wk =   0.0138889
        k(   24) = (   0.0000000   0.3333333   0.4166667), wk =   0.0277778
        k(   25) = (   0.0000000   0.3333333  -0.5000000), wk =   0.0138889
        k(   26) = (   0.0000000   0.4166667   0.4166667), wk =   0.0138889
        k(   27) = (   0.0000000   0.4166667  -0.5000000), wk =   0.0138889
        k(   28) = (   0.0000000  -0.5000000  -0.5000000), wk =   0.0034722
        k(   29) = (   0.0833333   0.0833333   0.0833333), wk =   0.0092593
        k(   30) = (   0.0833333   0.0833333   0.1666667), wk =   0.0277778
        k(   31) = (   0.0833333   0.0833333   0.2500000), wk =   0.0277778
        k(   32) = (   0.0833333   0.0833333   0.3333333), wk =   0.0277778
        k(   33) = (   0.0833333   0.0833333   0.4166667), wk =   0.0277778
        k(   34) = (   0.0833333   0.0833333  -0.5000000), wk =   0.0138889
        k(   35) = (   0.0833333   0.1666667   0.1666667), wk =   0.0277778
        k(   36) = (   0.0833333   0.1666667   0.2500000), wk =   0.0555556
        k(   37) = (   0.0833333   0.1666667   0.3333333), wk =   0.0555556
        k(   38) = (   0.0833333   0.1666667   0.4166667), wk =   0.0555556
        k(   39) = (   0.0833333   0.1666667  -0.5000000), wk =   0.0277778
        k(   40) = (   0.0833333   0.2500000   0.2500000), wk =   0.0277778
        k(   41) = (   0.0833333   0.2500000   0.3333333), wk =   0.0555556
        k(   42) = (   0.0833333   0.2500000   0.4166667), wk =   0.0555556
        k(   43) = (   0.0833333   0.2500000  -0.5000000), wk =   0.0277778
        k(   44) = (   0.0833333   0.3333333   0.3333333), wk =   0.0277778
        k(   45) = (   0.0833333   0.3333333   0.4166667), wk =   0.0555556
        k(   46) = (   0.0833333   0.3333333  -0.5000000), wk =   0.0277778
        k(   47) = (   0.0833333   0.4166667   0.4166667), wk =   0.0277778
        k(   48) = (   0.0833333   0.4166667  -0.5000000), wk =   0.0277778
        k(   49) = (   0.0833333  -0.5000000  -0.5000000), wk =   0.0069444
        k(   50) = (   0.1666667   0.1666667   0.1666667), wk =   0.0092593
        k(   51) = (   0.1666667   0.1666667   0.2500000), wk =   0.0277778
        k(   52) = (   0.1666667   0.1666667   0.3333333), wk =   0.0277778
        k(   53) = (   0.1666667   0.1666667   0.4166667), wk =   0.0277778
        k(   54) = (   0.1666667   0.1666667  -0.5000000), wk =   0.0138889
        k(   55) = (   0.1666667   0.2500000   0.2500000), wk =   0.0277778
        k(   56) = (   0.1666667   0.2500000   0.3333333), wk =   0.0555556
        k(   57) = (   0.1666667   0.2500000   0.4166667), wk =   0.0555556
        k(   58) = (   0.1666667   0.2500000  -0.5000000), wk =   0.0277778
        k(   59) = (   0.1666667   0.3333333   0.3333333), wk =   0.0277778
        k(   60) = (   0.1666667   0.3333333   0.4166667), wk =   0.0555556
        k(   61) = (   0.1666667   0.3333333  -0.5000000), wk =   0.0277778
        k(   62) = (   0.1666667   0.4166667   0.4166667), wk =   0.0277778
        k(   63) = (   0.1666667   0.4166667  -0.5000000), wk =   0.0277778
        k(   64) = (   0.1666667  -0.5000000  -0.5000000), wk =   0.0069444
        k(   65) = (   0.2500000   0.2500000   0.2500000), wk =   0.0092593
        k(   66) = (   0.2500000   0.2500000   0.3333333), wk =   0.0277778
        k(   67) = (   0.2500000   0.2500000   0.4166667), wk =   0.0277778
        k(   68) = (   0.2500000   0.2500000  -0.5000000), wk =   0.0138889
        k(   69) = (   0.2500000   0.3333333   0.3333333), wk =   0.0277778
        k(   70) = (   0.2500000   0.3333333   0.4166667), wk =   0.0555556
        k(   71) = (   0.2500000   0.3333333  -0.5000000), wk =   0.0277778
        k(   72) = (   0.2500000   0.4166667   0.4166667), wk =   0.0277778
        k(   73) = (   0.2500000   0.4166667  -0.5000000), wk =   0.0277778
        k(   74) = (   0.2500000  -0.5000000  -0.5000000), wk =   0.0069444
        k(   75) = (   0.3333333   0.3333333   0.3333333), wk =   0.0092593
        k(   76) = (   0.3333333   0.3333333   0.4166667), wk =   0.0277778
        k(   77) = (   0.3333333   0.3333333  -0.5000000), wk =   0.0138889
        k(   78) = (   0.3333333   0.4166667   0.4166667), wk =   0.0277778
        k(   79) = (   0.3333333   0.4166667  -0.5000000), wk =   0.0277778
        k(   80) = (   0.3333333  -0.5000000  -0.5000000), wk =   0.0069444
        k(   81) = (   0.4166667   0.4166667   0.4166667), wk =   0.0092593
        k(   82) = (   0.4166667   0.4166667  -0.5000000), wk =   0.0138889
        k(   83) = (   0.4166667  -0.5000000  -0.5000000), wk =   0.0069444
        k(   84) = (  -0.5000000  -0.5000000  -0.5000000), wk =   0.0011574

     Dense  grid:     6355 G-vectors     FFT dimensions: (  24,  24,  24)

     Estimated max dynamical RAM per process >       4.96 MB

     Estimated total dynamical RAM >      49.56 MB

     Initial potential from superposition of free atoms

     starting charge      21.9998, renormalised to      22.0000
     Starting wfcs are   18 randomized atomic wfcs
     Checking if some PAW data can be deallocated... 

     total cpu time spent up to now is        1.4 secs

     Self-consistent Calculation

     iteration #  1     ecut=    50.00 Ry     beta= 0.70
     Davidson diagonalization with overlap
     ethr =  1.00E-02,  avg # of iterations =  6.5

     Threshold (ethr) on eigenvalues was too large:
     Diagonalizing with lowered threshold

     Davidson diagonalization with overlap
     c_bands:  1 eigenvalues not converged
     ethr =  1.54E-04,  avg # of iterations =  7.9

     total cpu time spent up to now is        3.6 secs

     total energy              =   -1549.37294085 Ry
     estimated scf accuracy    <       0.03842933 Ry

     iteration #  2     ecut=    50.00 Ry     beta= 0.70
     Davidson diagonalization with overlap
     ethr =  1.75E-04,  avg # of iterations =  1.9

     total cpu time spent up to now is        4.1 secs

     total energy              =   -1549.37748611 Ry
     estimated scf accuracy    <       0.00274347 Ry

     iteration #  3     ecut=    50.00 Ry     beta= 0.70
     Davidson diagonalization with overlap
     c_bands:  1 eigenvalues not converged
     c_bands:  1 eigenvalues not converged
     c_bands:  1 eigenvalues not converged
     c_bands:  1 eigenvalues not converged
     c_bands:  1 eigenvalues not converged
     ethr =  1.25E-05,  avg # of iterations =  7.0

     total cpu time spent up to now is        5.1 secs

     total energy              =   -1549.37830634 Ry
     estimated scf accuracy    <       0.00017441 Ry

     iteration #  4     ecut=    50.00 Ry     beta= 0.70
     Davidson diagonalization with overlap
     c_bands:  1 eigenvalues not converged
     c_bands:  1 eigenvalues not converged
     c_bands:  1 eigenvalues not converged
     c_bands:  1 eigenvalues not converged
     c_bands:  1 eigenvalues not converged
     ethr =  7.93E-07,  avg # of iterations =  7.1

     total cpu time spent up to now is        6.3 secs

     total energy              =   -1549.37842690 Ry
     estimated scf accuracy    <       0.00003125 Ry

     iteration #  5     ecut=    50.00 Ry     beta= 0.70
     Davidson diagonalization with overlap
     c_bands:  1 eigenvalues not converged
     c_bands:  1 eigenvalues not converged
     ethr =  1.42E-07,  avg # of iterations =  4.2

     total cpu time spent up to now is        7.0 secs

     End of self-consistent calculation

          k = 0.0000 0.0000 0.0000 (   751 PWs)   bands (ev):

    15.6011  18.2999  18.2999  23.3754  23.3754  23.3754  27.7924  27.7924
    31.0411  31.0411  31.0411  40.3862  40.3862  40.3862  51.3072

          k = 0.0000 0.0000 0.0833 (   775 PWs)   bands (ev):

    15.8271  18.4132  18.4929  23.3774  23.3774  23.4758  27.5373  27.8879
    30.5204  30.5204  30.8618  39.5147  41.1450  41.1450  50.2624

          k = 0.0000 0.0000 0.1667 (   779 PWs)   bands (ev):

    16.4826  18.7521  19.0373  23.4011  23.4011  23.7741  26.8272  28.1595
    29.3240  29.3240  30.3520  37.5370  43.0481  43.0482  50.8035

          k = 0.0000 0.0000 0.2500 (   799 PWs)   bands (ev):

    17.4960  19.3090  19.8152  23.4933  23.4933  24.2613  25.7945  27.9564
    27.9565  28.5633  29.5851  35.2648  45.5644  45.5644  51.5638

          k = 0.0000 0.0000 0.3333 (   792 PWs)   bands (ev):

    18.7333  20.0713  20.6036  23.7124  23.7124  24.5874  24.9220  26.6746
    26.6746  28.6547  29.0372  33.1266  48.3825  48.3830  50.4514

          k = 0.0000 0.0000 0.4167 (   808 PWs)   bands (ev):

    19.9668  21.0182  21.0601  23.3315  24.1114  24.1114  25.5855  25.5855
    25.7322  27.6528  29.5559  31.4007  49.3242  49.9166  51.2770

          k = 0.0000 0.0000-0.5000 (   804 PWs)   bands (ev):

    20.8513  20.8519  22.1193  22.1207  24.7287  24.7287  24.7301  24.7301
    26.6572  26.6589  30.2492  30.2507  49.0491  49.0495  53.8999

          k = 0.0000 0.0833 0.0833 (   776 PWs)   bands (ev):

    16.0454  18.5604  18.6495  23.1594  23.3690  23.7985  27.4963  27.8094
    29.7068  30.0090  31.1114  40.1579  40.3402  41.7622  50.3395

          k = 0.0000 0.0833 0.1667 (   785 PWs)   bands (ev):

    16.6750  18.8983  19.1819  23.0060  23.3668  24.2801  26.9393  28.0359
    28.4349  28.8490  30.9150  38.2056  42.0765  43.4119  50.7335

          k = 0.0000 0.0833 0.2500 (   794 PWs)   bands (ev):

    17.6362  19.4281  19.9564  22.9811  23.4118  24.8902  26.0557  27.1000
    27.5637  28.4586  30.2990  35.8537  44.3864  45.7239  51.3237

          k = 0.0000 0.0833 0.3333 (   793 PWs)   bands (ev):

    18.7847  20.1302  20.7338  23.1205  23.4523  25.1549  25.6314  25.8711
    26.4485  28.9560  29.4329  33.5922  46.6482  48.4066  50.9696

          k = 0.0000 0.0833 0.4167 (   798 PWs)   bands (ev):

    19.9030  20.8295  21.2967  23.0444  23.4602  24.8246  24.8341  25.6529
    26.4927  28.4501  29.5213  31.6844  47.9095  49.2755  51.2304

          k = 0.0000 0.0833-0.5000 (   808 PWs)   bands (ev):

    20.7121  20.7126  22.1317  22.1329  24.0271  24.0278  25.1355  25.1365
    27.4470  27.4479  30.3359  30.3373  48.3204  48.3213  52.8548

          k = 0.0000 0.1667 0.1667 (   782 PWs)   bands (ev):

    17.2164  19.2246  19.6816  22.6023  23.3253  25.0259  27.0375  27.0884
    27.8062  27.8803  31.3061  39.3308  40.4217  44.5063  50.6193

          k = 0.0000 0.1667 0.2500 (   795 PWs)   bands (ev):

    17.9976  19.6370  20.4733  22.3592  23.3778  25.7688  25.8661  26.6189
    26.7469  28.1937  31.1631  37.1714  42.1018  46.2714  50.4577

          k = 0.0000 0.1667 0.3333 (   797 PWs)   bands (ev):

    18.8479  20.0660  21.3206  22.3175  23.4836  24.6022  26.0360  26.0898
    26.7848  28.7266  30.5858  34.6657  44.0980  48.5452  49.5069

          k = 0.0000 0.1667 0.4167 (   792 PWs)   bands (ev):

    19.5964  20.3002  22.0466  22.5081  23.2986  23.6524  25.8538  25.9217
    27.7638  29.4149  29.7414  32.3819  45.6526  47.9420  51.1048

          k = 0.0000 0.1667-0.5000 (   794 PWs)   bands (ev):

    20.1242  20.1245  22.7206  22.7218  22.9508  22.9511  25.9424  25.9428
    28.7688  28.7693  30.5689  30.5701  46.7345  46.7351  51.0919

          k = 0.0000 0.2500 0.2500 (   784 PWs)   bands (ev):

    18.4294  19.7826  21.3435  21.9070  23.6614  24.5028  26.0485  26.9184
    27.0327  28.0386  31.5789  37.6706  40.7010  47.3375  49.5446

          k = 0.0000 0.2500 0.3333 (   791 PWs)   bands (ev):

    18.8008  19.7990  21.6783  22.3356  23.4208  24.1904  25.8286  26.9597
    27.9994  28.4148  31.4629  35.6164  41.8697  48.2412  48.9658

          k = 0.0000 0.2500 0.4167 (   797 PWs)   bands (ev):

    19.1062  19.6498  21.7041  22.5779  23.2193  24.3565  26.1766  26.9461
    29.0684  29.2318  30.9091  33.1017  43.4540  46.4608  48.9269

          k = 0.0000 0.2500-0.5000 (   802 PWs)   bands (ev):

    19.3926  19.3927  22.0023  22.0025  23.9238  23.9249  26.7241  26.7241
    30.0678  30.0681  30.8405  30.8415  44.9178  44.9180  48.9979

          k = 0.0000 0.3333 0.3333 (   796 PWs)   bands (ev):

    18.6973  19.4222  21.2728  22.4442  23.5502  25.3520  26.0126  27.4935
    28.2766  29.1857  31.8599  35.2202  41.0584  46.8465  47.5595

          k = 0.0000 0.3333 0.4167 (   792 PWs)   bands (ev):

    18.6663  19.0501  21.1354  21.7235  24.6779  25.9439  26.5952  27.6978
    28.9641  30.2692  31.7315  33.2597  41.8432  44.8725  47.0131

          k = 0.0000 0.3333-0.5000 (   792 PWs)   bands (ev):

    18.7813  18.7813  21.2840  21.2841  25.5167  25.5178  27.3263  27.3268
    30.9145  30.9153  31.1576  31.1578  43.1988  43.1991  47.1176

          k = 0.0000 0.4167 0.4167 (   796 PWs)   bands (ev):

    18.4097  18.6097  20.8404  21.1358  26.1785  27.0838  27.2778  28.5110
    28.5832  31.2509  32.0714  32.3119  41.3626  43.2225  45.9780

          k = 0.0000 0.4167-0.5000 (   794 PWs)   bands (ev):

    18.3879  18.3880  20.8387  20.8387  27.1859  27.1869  27.7775  27.7784
    30.4803  30.4808  31.8904  31.8904  41.9443  41.9445  45.8443

          k = 0.0000-0.5000-0.5000 (   784 PWs)   bands (ev):

    18.2533  18.2533  20.6881  20.6881  27.6889  27.6897  28.6110  28.6128
    29.7617  29.7617  32.1500  32.1500  41.4913  41.4913  45.3938

          k = 0.0833 0.0833 0.0833 (   781 PWs)   bands (ev):

    16.2581  18.7552  18.7552  23.1425  23.1425  24.1350  27.6087  27.6087
    28.6683  30.5943  30.5943  40.7802  40.9043  40.9043  50.4902

          k = 0.0833 0.0833 0.1667 (   789 PWs)   bands (ev):

    16.8684  19.0690  19.3012  22.9121  23.1042  24.7202  27.0505  27.3244
    27.9208  29.4141  30.7013  38.8264  42.1462  42.7616  50.8685

          k = 0.0833 0.0833 0.2500 (   795 PWs)   bands (ev):

    17.7890  19.5795  20.0670  22.8575  23.0648  25.4345  26.0447  26.2596
    28.0796  28.3684  30.2850  36.4532  44.0073  45.1832  51.3658

          k = 0.0833 0.0833 0.3333 (   793 PWs)   bands (ev):

    18.8652  20.2649  20.7847  22.9863  23.0434  25.0190  25.4538  26.2619
    26.8532  28.8875  29.5549  34.1310  45.9055  47.8185  50.5168

          k = 0.0833 0.0833 0.4167 (   800 PWs)   bands (ev):

    19.8929  21.0519  21.0833  22.6607  23.4650  24.3794  25.0080  25.8597
    27.1394  28.7295  29.5161  32.0851  47.1294  48.8277  50.3213

          k = 0.0833 0.0833-0.5000 (   804 PWs)   bands (ev):

    20.6859  20.6863  21.9474  21.9483  23.9546  23.9547  25.1925  25.1934
    27.9486  27.9494  30.5118  30.5131  47.7777  47.7781  52.0035

          k = 0.0833 0.1667 0.1667 (   794 PWs)   bands (ev):

    17.4110  19.4293  19.7627  22.5614  22.9724  25.5128  25.9719  27.1598
    27.7836  28.7798  30.7921  40.0485  40.5055  43.6287  50.9122

          k = 0.0833 0.1667 0.2500 (   797 PWs)   bands (ev):

    18.1845  19.8464  20.5308  22.3178  22.9641  24.7767  26.4185  26.7516
    27.6528  28.1391  30.6968  37.7686  42.0960  45.3972  50.6700

          k = 0.0833 0.1667 0.3333 (   791 PWs)   bands (ev):

    19.0013  20.2870  21.2681  22.2684  23.0851  23.9503  26.1812  26.6811
    27.4208  28.6987  30.1816  35.3002  43.8480  47.5519  49.4297

          k = 0.0833 0.1667 0.4167 (   795 PWs)   bands (ev):

    19.6997  20.4974  21.7231  22.2763  23.2777  23.6141  25.8740  26.1065
    28.2352  29.4542  29.5735  33.0129  45.2939  47.7350  49.5277

          k = 0.0833 0.1667-0.5000 (   792 PWs)   bands (ev):

    20.2346  20.2348  22.0889  22.0894  23.4482  23.4486  25.9016  25.9021
    28.7902  28.7910  31.0550  31.0559  46.4291  46.4293  50.5847

          k = 0.0833 0.2500 0.2500 (   790 PWs)   bands (ev):

    18.6494  20.0065  21.3809  21.8686  23.1915  23.7028  26.8572  27.0819
    27.5684  28.0175  31.0372  38.3928  40.5859  46.3183  49.7427

          k = 0.0833 0.2500 0.3333 (   790 PWs)   bands (ev):

    19.0158  20.0091  21.6474  22.2317  23.0518  23.7166  26.3567  26.9570
    28.3398  28.7802  30.8833  36.3474  41.7210  47.6363  48.2585

          k = 0.0833 0.2500 0.4167 (   792 PWs)   bands (ev):

    19.2851  19.8247  21.6516  22.1612  23.4415  24.1160  26.3929  26.8256
    28.7935  30.1692  30.2707  33.9705  43.2419  46.3508  48.6461

          k = 0.0833 0.2500-0.5000 (   792 PWs)   bands (ev):

    19.5498  19.5499  21.8438  21.8439  23.9644  23.9655  26.7056  26.7056
    29.4474  29.4483  31.8725  31.8730  44.7232  44.7233  48.8125

          k = 0.0833 0.3333 0.3333 (   786 PWs)   bands (ev):

    18.9263  19.6072  21.2554  22.2094  23.5178  24.8010  26.3609  27.4423
    28.2860  29.9864  31.1586  36.1198  40.8671  46.7644  47.8038

          k = 0.0833 0.3333 0.4167 (   790 PWs)   bands (ev):

    18.8780  19.2255  21.1246  21.6348  24.6253  25.5951  26.7666  27.5477
    28.7079  30.7894  31.2452  34.4358  41.6480  44.7447  47.1346

          k = 0.0833 0.3333-0.5000 (   794 PWs)   bands (ev):

    18.9691  18.9692  21.2577  21.2577  25.4031  25.4041  27.3269  27.3273
    29.7821  29.7829  32.6673  32.6675  43.0214  43.0216  47.1305

          k = 0.0833 0.4167 0.4167 (   796 PWs)   bands (ev):

    18.6281  18.8002  20.8438  21.1221  26.0320  27.0540  27.2094  27.9753
    28.5237  30.6328  32.2661  34.0369  41.1501  43.0536  46.1402

          k = 0.0833 0.4167-0.5000 (   796 PWs)   bands (ev):

    18.5964  18.5964  20.8440  20.8440  27.0587  27.0597  27.7240  27.7247
    29.5825  29.5834  33.1798  33.1799  41.7436  41.7438  45.9722

          k = 0.0833-0.5000-0.5000 (   792 PWs)   bands (ev):

    18.4689  18.4690  20.6997  20.6997  27.7537  27.7545  28.6215  28.6234
    28.6907  28.6907  33.3435  33.3435  41.2753  41.2753  45.5621

          k = 0.1667 0.1667 0.1667 (   802 PWs)   bands (ev):

    17.9501  19.9994  19.9994  22.4561  22.4561  24.6265  26.4611  27.5034
    27.5034  29.6497  29.6497  40.6966  41.7855  41.7855  51.7387

          k = 0.1667 0.1667 0.2500 (   790 PWs)   bands (ev):

    18.6830  20.3697  20.7537  22.2053  22.3232  23.5282  27.0818  27.5495
    27.9933  28.4066  29.9482  39.0099  41.8510  43.9574  50.8525

          k = 0.1667 0.1667 0.3333 (   791 PWs)   bands (ev):

    19.3551  20.8304  21.1382  22.1824  22.4263  23.1120  26.6160  27.3333
    28.3679  28.8835  29.7128  36.5856  42.9629  46.1747  49.0175

          k = 0.1667 0.1667 0.4167 (   793 PWs)   bands (ev):

    19.8348  20.7694  21.3123  22.0056  23.0414  23.4582  26.2643  26.5719
    28.6729  29.2386  30.3627  34.2541  44.2298  47.0868  48.0978

          k = 0.1667 0.1667-0.5000 (   782 PWs)   bands (ev):

    20.2683  20.2684  21.7243  21.7247  23.5371  23.5378  26.2115  26.2117
    28.8763  28.8775  32.1562  32.1567  45.5345  45.5351  49.4425

          k = 0.1667 0.2500 0.2500 (   790 PWs)   bands (ev):

    19.2688  20.6475  21.4816  21.7752  22.3348  22.5480  27.3724  27.9432
    27.9864  28.8165  29.9200  40.0381  40.3388  44.2504  50.1072

          k = 0.1667 0.2500 0.3333 (   790 PWs)   bands (ev):

    19.6074  20.5625  21.6057  21.7744  22.7125  22.7699  27.1956  27.2933
    28.3254  29.8568  30.1499  37.7864  41.3815  45.6344  48.1629

          k = 0.1667 0.2500 0.4167 (   792 PWs)   bands (ev):

    19.7230  20.2034  21.6049  21.6781  23.4575  23.5225  26.9234  26.9582
    28.6971  29.4500  31.6315  35.4694  42.6562  45.9732  47.0686

          k = 0.1667 0.2500-0.5000 (   790 PWs)   bands (ev):

    19.8866  19.8868  21.6461  21.6461  23.8210  23.8219  26.8629  26.8630
    29.0052  29.0065  33.3900  33.3902  44.1494  44.1495  48.1154

          k = 0.1667 0.3333 0.3333 (   794 PWs)   bands (ev):

    19.5835  20.0545  21.2226  21.8342  23.4019  23.6892  27.1258  27.5861
    28.3029  30.0061  31.5238  37.8684  40.3821  45.8881  46.5330

          k = 0.1667 0.3333 0.4167 (   790 PWs)   bands (ev):

    19.4652  19.6563  21.1300  21.5319  24.3896  24.6337  27.2204  27.5770
    28.5951  29.6978  32.9108  36.2215  41.1490  44.3751  46.4699

          k = 0.1667 0.3333-0.5000 (   790 PWs)   bands (ev):

    19.4597  19.4598  21.2604  21.2604  24.9202  24.9210  27.4548  27.4553
    29.0804  29.0816  34.4442  34.4443  42.5403  42.5404  46.9528

          k = 0.1667 0.4167 0.4167 (   795 PWs)   bands (ev):

    19.2507  19.3079  20.8704  21.1521  25.5472  25.8901  27.5417  27.8693
    28.5562  29.5339  34.0567  36.0312  40.5845  42.5986  46.2223

          k = 0.1667 0.4167-0.5000 (   790 PWs)   bands (ev):

    19.1795  19.1797  20.8903  20.8903  26.2828  26.2832  27.8203  27.8211
    28.9260  28.9274  35.1128  35.1128  41.2088  41.2089  46.2068

          k = 0.1667-0.5000-0.5000 (   788 PWs)   bands (ev):

    19.0847  19.0848  20.7499  20.7499  27.0692  27.0692  27.9363  27.9372
    28.6505  28.6523  35.3283  35.3283  40.6917  40.6917  45.9589

          k = 0.2500 0.2500 0.2500 (   784 PWs)   bands (ev):

    20.0868  21.5284  21.6097  21.6097  21.6791  21.6791  27.7996  27.7996
    28.8072  28.8072  30.2364  40.1427  41.9849  41.9850  49.9269

          k = 0.2500 0.2500 0.3333 (   791 PWs)   bands (ev):

    20.3301  20.7566  21.6286  21.7121  21.9942  22.6693  27.5981  27.9536
    28.2667  29.1303  31.6826  39.0681  40.9897  43.9070  47.7346

          k = 0.2500 0.2500 0.4167 (   788 PWs)   bands (ev):

    20.1024  20.2541  21.6440  21.7424  22.9767  23.4885  27.3980  27.4578
    28.6309  29.0445  33.1873  36.9015  41.7691  45.1986  45.6070

          k = 0.2500 0.2500-0.5000 (   792 PWs)   bands (ev):

    20.0408  20.0410  21.7017  21.7018  23.6235  23.6244  27.3067  27.3071
    28.8472  28.8485  34.8958  34.8959  43.1989  43.1991  47.0005

          k = 0.2500 0.3333 0.3333 (   787 PWs)   bands (ev):

    20.3085  20.5657  21.2244  21.9882  22.5852  23.1615  27.9007  27.9149
    28.3026  29.0634  33.1849  39.7983  39.8317  43.7854  46.1328

          k = 0.2500 0.3333 0.4167 (   790 PWs)   bands (ev):

    20.0204  20.2289  21.2737  21.7899  23.5701  23.9304  27.7782  27.8651
    28.5716  29.0062  34.6361  37.9409  40.5998  43.7857  44.8993

          k = 0.2500 0.3333-0.5000 (   788 PWs)   bands (ev):

    19.9945  19.9948  21.5054  21.5055  24.1449  24.1456  27.7870  27.7877
    28.8010  28.8024  36.1727  36.1728  41.8844  41.8848  46.1489

          k = 0.2500 0.4167 0.4167 (   797 PWs)   bands (ev):

    19.8999  20.1689  20.9631  21.4413  24.5615  24.7303  27.9736  28.1100
    28.5947  28.9461  35.9012  38.0900  39.8467  42.0009  45.1915

          k = 0.2500 0.4167-0.5000 (   788 PWs)   bands (ev):

    19.9777  19.9780  21.0839  21.0840  25.0773  25.0775  28.1010  28.1020
    28.7450  28.7466  37.0711  37.0711  40.5389  40.5392  46.0266

          k = 0.2500-0.5000-0.5000 (   788 PWs)   bands (ev):

    20.0004  20.0008  20.8789  20.8789  25.5429  25.5429  28.1996  28.2007
    28.6903  28.6922  37.4465  37.4465  39.9027  39.9029  46.2602

          k = 0.3333 0.3333 0.3333 (   789 PWs)   bands (ev):

    20.2024  21.3142  21.3142  22.0730  22.7820  22.7820  28.2685  28.2685
    28.4776  28.4776  34.7620  39.4703  41.7052  41.7052  44.9443

          k = 0.3333 0.3333 0.4167 (   790 PWs)   bands (ev):

    20.1592  20.7750  21.5293  22.3205  23.0043  23.5115  28.2085  28.2159
    28.5676  28.7165  36.1973  39.0018  40.4469  42.8424  43.4877

          k = 0.3333 0.3333-0.5000 (   792 PWs)   bands (ev):

    20.3402  20.3405  21.8761  21.8766  23.6321  23.6328  28.1638  28.1648
    28.7175  28.7191  37.6068  37.6068  41.1504  41.1509  45.0905

          k = 0.3333 0.4167 0.4167 (   785 PWs)   bands (ev):

    20.3210  21.1386  21.1741  22.1349  23.4826  23.7707  28.3774  28.4046
    28.6247  28.7118  37.4795  39.1662  40.1395  41.4537  43.6056

          k = 0.3333 0.4167-0.5000 (   790 PWs)   bands (ev):

    20.6520  20.6522  21.6114  21.6118  23.9292  23.9295  28.4121  28.4134
    28.7144  28.7161  38.5573  38.5573  40.2752  40.2756  44.9160

          k = 0.3333-0.5000-0.5000 (   780 PWs)   bands (ev):

    21.0288  21.0294  21.1377  21.1377  24.2074  24.2074  28.4791  28.4805
    28.7305  28.7323  39.1102  39.1106  39.5774  39.5774  45.6940

          k = 0.4167 0.4167 0.4167 (   789 PWs)   bands (ev):

    20.6902  21.5475  21.5475  22.8634  22.8634  23.0461  28.6376  28.6376
    28.6445  28.6445  38.4141  38.7553  41.1071  42.1097  42.1097

          k = 0.4167 0.4167-0.5000 (   790 PWs)   bands (ev):

    21.1501  21.1503  22.1097  22.1106  23.1600  23.1603  28.6362  28.6378
    28.7276  28.7294  38.6491  38.6496  41.2159  41.2162  43.9176

          k = 0.4167-0.5000-0.5000 (   796 PWs)   bands (ev):

    21.5727  21.5727  21.8794  21.8802  23.0955  23.0955  28.6922  28.6939
    28.7600  28.7619  38.5178  38.5185  41.6401  41.6404  44.1144

          k =-0.5000-0.5000-0.5000 (   840 PWs)   bands (ev):

    22.2179  22.2179  22.2179  22.2189  22.2189  22.2189  28.7709  28.7709
    28.7727  28.7727  38.2962  38.2970  43.5291  43.5291  43.5292

     the Fermi energy is    33.7101 ev

!    total energy              =   -1549.37844066 Ry

     total all-electron energy =    -76047.070623 Ry
     estimated scf accuracy    <       0.00000020 Ry
     smearing contrib. (-TS)   =      -0.11382610 Ry
     internal energy E=F+TS    =   -1549.26461456 Ry

     The total energy is F=E-TS. E is the sum of the following terms:
     one-electron contribution =      67.57175414 Ry
     hartree contribution      =       7.40878155 Ry
     xc contribution           =     -65.98661886 Ry
     ewald contribution        =    -172.71022214 Ry
     one-center paw contrib.   =   -1385.54830925 Ry

     convergence has been achieved in   5 iterations

     Forces acting on atoms (cartesian axes, Ry/au):

     atom    1 type  1   force =     0.00000000    0.00000000    0.00000000
     atom    2 type  1   force =     0.00000000    0.00000000   -0.00000000

     Total force =     0.000000     Total SCF correction =     0.000000

     Writing all to output data dir ./pwscf.save/
 
     init_run     :      0.23s CPU      0.25s WALL (       1 calls)
     electrons    :      5.46s CPU      5.65s WALL (       1 calls)
     forces       :      0.02s CPU      0.03s WALL (       1 calls)

     Called by init_run:
     wfcinit      :      0.15s CPU      0.16s WALL (       1 calls)
     potinit      :      0.04s CPU      0.04s WALL (       1 calls)
     hinit0       :      0.04s CPU      0.05s WALL (       1 calls)

     Called by electrons:
     c_bands      :      5.02s CPU      5.15s WALL (       6 calls)
     sum_band     :      0.28s CPU      0.29s WALL (       6 calls)
     v_of_rho     :      0.00s CPU      0.00s WALL (       6 calls)
     newd         :      0.00s CPU      0.00s WALL (       6 calls)
     PAW_pot      :      0.18s CPU      0.22s WALL (       6 calls)
     mix_rho      :      0.00s CPU      0.00s WALL (       6 calls)

     Called by c_bands:
     init_us_2    :      0.02s CPU      0.02s WALL (    1176 calls)
     init_us_2:cp :      0.02s CPU      0.02s WALL (    1176 calls)
     cegterg      :      4.94s CPU      5.07s WALL (     504 calls)

     Called by *egterg:
     cdiaghg      :      2.55s CPU      2.61s WALL (    3321 calls)
     h_psi        :      1.47s CPU      1.52s WALL (    3489 calls)
     s_psi        :      0.03s CPU      0.03s WALL (    3489 calls)
     g_psi        :      0.01s CPU      0.01s WALL (    2901 calls)

     Called by h_psi:
     h_psi:calbec :      0.12s CPU      0.13s WALL (    3489 calls)
     vloc_psi     :      1.30s CPU      1.34s WALL (    3489 calls)
     add_vuspsi   :      0.04s CPU      0.04s WALL (    3489 calls)

     General routines
     calbec       :      0.16s CPU      0.16s WALL (    4329 calls)
     fft          :      0.00s CPU      0.00s WALL (      78 calls)
     ffts         :      0.00s CPU      0.00s WALL (       6 calls)
     fftw         :      1.38s CPU      1.43s WALL (   63432 calls)
 
     Parallel routines
 
     PWSCF        :      6.63s CPU      7.97s WALL

 
   This run was terminated on:  11:27: 8   6Apr2024            

=------------------------------------------------------------------------------=
   JOB DONE.
=------------------------------------------------------------------------------=
