MPI startup(): Warning: I_MPI_PMI_LIBRARY will be ignored since the hydra process manager was found
MPI startup(): Warning: I_MPI_PMI_LIBRARY will be ignored since the hydra process manager was found
MPI startup(): Warning: I_MPI_PMI_LIBRARY will be ignored since the hydra process manager was found
MPI startup(): Warning: I_MPI_PMI_LIBRARY will be ignored since the hydra process manager was found
MPI startup(): Warning: I_MPI_PMI_LIBRARY will be ignored since the hydra process manager was found
MPI startup(): Warning: I_MPI_PMI_LIBRARY will be ignored since the hydra process manager was found
MPI startup(): Warning: I_MPI_PMI_LIBRARY will be ignored since the hydra process manager was found
MPI startup(): Warning: I_MPI_PMI_LIBRARY will be ignored since the hydra process manager was found
MPI startup(): Warning: I_MPI_PMI_LIBRARY will be ignored since the hydra process manager was found
MPI startup(): Warning: I_MPI_PMI_LIBRARY will be ignored since the hydra process manager was found

     Program PWSCF v.7.0 starts on  6Apr2024 at 11:27: 0 

     This program is part of the open-source Quantum ESPRESSO suite
     for quantum simulation of materials; please cite
         "P. Giannozzi et al., J. Phys.:Condens. Matter 21 395502 (2009);
         "P. Giannozzi et al., J. Phys.:Condens. Matter 29 465901 (2017);
         "P. Giannozzi et al., J. Chem. Phys. 152 154105 (2020);
          URL http://www.quantum-espresso.org", 
     in publications or presentations arising from this work. More details at
     http://www.quantum-espresso.org/quote

     Parallel version (MPI), running on    10 processors

     MPI processes distributed on     1 nodes
     R & G space division:  proc/nbgrp/npool/nimage =      10
     229550 MiB available memory on the printing compute node when the environment starts
 
     Reading input from VolumeBCC_5.3.in
Warning: card &CELL ignored
Warning: card / ignored

     Current dimensions of program PWSCF are:
     Max number of different atomic species (ntypx) = 10
     Max number of k-points (npk) =  40000
     Max angular momentum in pseudopotentials (lmaxx) =  4
     file Au.pbe-n-kjpaw_psl.1.0.0.UPF: wavefunction(s)  6S 5D renormalized
     Found identity + (  0.5000  0.5000  0.5000) symmetry
     This is a supercell, fractional translations are disabled
     Message from routine setup:
     using ibrav=0 with symmetry is DISCOURAGED, use correct ibrav instead

     Subspace diagonalization in iterative solution of the eigenvalue problem:
     one sub-group per band group will be used
     scalapack distributed-memory algorithm (size of sub-group:  3*  3 procs)

 
     Parallelization info
     --------------------
     sticks:   dense  smooth     PW     G-vecs:    dense   smooth      PW
     Min          43      43     14                  709      709     134
     Max          44      44     15                  714      714     137
     Sum         437     437    145                 7123     7123    1357
 
     Using Slab Decomposition
 


     bravais-lattice index     =            0
     lattice parameter (alat)  =       5.2992  a.u.
     unit-cell volume          =     148.8123 (a.u.)^3
     number of atoms/cell      =            2
     number of atomic types    =            1
     number of electrons       =        22.00
     number of Kohn-Sham states=           15
     kinetic-energy cutoff     =      50.0000  Ry
     charge density cutoff     =     200.0000  Ry
     scf convergence threshold =      1.0E-06
     mixing beta               =       0.7000
     number of iterations used =            8  plain     mixing
     Exchange-correlation= SLA  PW   PBX  PBC
                           (   1   4   3   4   0   0   0)

     celldm(1)=   5.299232  celldm(2)=   0.000000  celldm(3)=   0.000000
     celldm(4)=   0.000000  celldm(5)=   0.000000  celldm(6)=   0.000000

     crystal axes: (cart. coord. in units of alat)
               a(1) = (   1.000000   0.000000   0.000000 )  
               a(2) = (   0.000000   1.000000   0.000000 )  
               a(3) = (   0.000000   0.000000   1.000000 )  

     reciprocal axes: (cart. coord. in units 2 pi/alat)
               b(1) = (  1.000000  0.000000  0.000000 )  
               b(2) = (  0.000000  1.000000  0.000000 )  
               b(3) = (  0.000000  0.000000  1.000000 )  


     PseudoPot. # 1 for Au read from file:
     ./Au.pbe-n-kjpaw_psl.1.0.0.UPF
     MD5 check sum: 4db85c736373c707a97ce4c36c2a9d23
     Pseudo is Projector augmented-wave + core cor, Zval = 11.0
     Generated using &quot;atomic&quot; code by A. Dal Corso  v.6.3
     Shape of augmentation charge: PSQ
     Using radial grid of 1279 points,  6 beta functions with: 
                l(1) =   0
                l(2) =   0
                l(3) =   1
                l(4) =   1
                l(5) =   2
                l(6) =   2
     Q(r) pseudized with 0 coefficients 


     atomic species   valence    mass     pseudopotential
        Au            11.00   196.96657     Au( 1.00)

     48 Sym. Ops., with inversion, found



   Cartesian axes

     site n.     atom                  positions (alat units)
         1           Au  tau(   1) = (   0.0000000   0.0000000   0.0000000  )
         2           Au  tau(   2) = (   0.5000000   0.5000000   0.5000000  )

     number of k points=    84  Gaussian smearing, width (Ry)=  0.2000
                       cart. coord. in units 2pi/alat
        k(    1) = (   0.0000000   0.0000000   0.0000000), wk =   0.0011574
        k(    2) = (   0.0000000   0.0000000   0.0833333), wk =   0.0069444
        k(    3) = (   0.0000000   0.0000000   0.1666667), wk =   0.0069444
        k(    4) = (   0.0000000   0.0000000   0.2500000), wk =   0.0069444
        k(    5) = (   0.0000000   0.0000000   0.3333333), wk =   0.0069444
        k(    6) = (   0.0000000   0.0000000   0.4166667), wk =   0.0069444
        k(    7) = (   0.0000000   0.0000000  -0.5000000), wk =   0.0034722
        k(    8) = (   0.0000000   0.0833333   0.0833333), wk =   0.0138889
        k(    9) = (   0.0000000   0.0833333   0.1666667), wk =   0.0277778
        k(   10) = (   0.0000000   0.0833333   0.2500000), wk =   0.0277778
        k(   11) = (   0.0000000   0.0833333   0.3333333), wk =   0.0277778
        k(   12) = (   0.0000000   0.0833333   0.4166667), wk =   0.0277778
        k(   13) = (   0.0000000   0.0833333  -0.5000000), wk =   0.0138889
        k(   14) = (   0.0000000   0.1666667   0.1666667), wk =   0.0138889
        k(   15) = (   0.0000000   0.1666667   0.2500000), wk =   0.0277778
        k(   16) = (   0.0000000   0.1666667   0.3333333), wk =   0.0277778
        k(   17) = (   0.0000000   0.1666667   0.4166667), wk =   0.0277778
        k(   18) = (   0.0000000   0.1666667  -0.5000000), wk =   0.0138889
        k(   19) = (   0.0000000   0.2500000   0.2500000), wk =   0.0138889
        k(   20) = (   0.0000000   0.2500000   0.3333333), wk =   0.0277778
        k(   21) = (   0.0000000   0.2500000   0.4166667), wk =   0.0277778
        k(   22) = (   0.0000000   0.2500000  -0.5000000), wk =   0.0138889
        k(   23) = (   0.0000000   0.3333333   0.3333333), wk =   0.0138889
        k(   24) = (   0.0000000   0.3333333   0.4166667), wk =   0.0277778
        k(   25) = (   0.0000000   0.3333333  -0.5000000), wk =   0.0138889
        k(   26) = (   0.0000000   0.4166667   0.4166667), wk =   0.0138889
        k(   27) = (   0.0000000   0.4166667  -0.5000000), wk =   0.0138889
        k(   28) = (   0.0000000  -0.5000000  -0.5000000), wk =   0.0034722
        k(   29) = (   0.0833333   0.0833333   0.0833333), wk =   0.0092593
        k(   30) = (   0.0833333   0.0833333   0.1666667), wk =   0.0277778
        k(   31) = (   0.0833333   0.0833333   0.2500000), wk =   0.0277778
        k(   32) = (   0.0833333   0.0833333   0.3333333), wk =   0.0277778
        k(   33) = (   0.0833333   0.0833333   0.4166667), wk =   0.0277778
        k(   34) = (   0.0833333   0.0833333  -0.5000000), wk =   0.0138889
        k(   35) = (   0.0833333   0.1666667   0.1666667), wk =   0.0277778
        k(   36) = (   0.0833333   0.1666667   0.2500000), wk =   0.0555556
        k(   37) = (   0.0833333   0.1666667   0.3333333), wk =   0.0555556
        k(   38) = (   0.0833333   0.1666667   0.4166667), wk =   0.0555556
        k(   39) = (   0.0833333   0.1666667  -0.5000000), wk =   0.0277778
        k(   40) = (   0.0833333   0.2500000   0.2500000), wk =   0.0277778
        k(   41) = (   0.0833333   0.2500000   0.3333333), wk =   0.0555556
        k(   42) = (   0.0833333   0.2500000   0.4166667), wk =   0.0555556
        k(   43) = (   0.0833333   0.2500000  -0.5000000), wk =   0.0277778
        k(   44) = (   0.0833333   0.3333333   0.3333333), wk =   0.0277778
        k(   45) = (   0.0833333   0.3333333   0.4166667), wk =   0.0555556
        k(   46) = (   0.0833333   0.3333333  -0.5000000), wk =   0.0277778
        k(   47) = (   0.0833333   0.4166667   0.4166667), wk =   0.0277778
        k(   48) = (   0.0833333   0.4166667  -0.5000000), wk =   0.0277778
        k(   49) = (   0.0833333  -0.5000000  -0.5000000), wk =   0.0069444
        k(   50) = (   0.1666667   0.1666667   0.1666667), wk =   0.0092593
        k(   51) = (   0.1666667   0.1666667   0.2500000), wk =   0.0277778
        k(   52) = (   0.1666667   0.1666667   0.3333333), wk =   0.0277778
        k(   53) = (   0.1666667   0.1666667   0.4166667), wk =   0.0277778
        k(   54) = (   0.1666667   0.1666667  -0.5000000), wk =   0.0138889
        k(   55) = (   0.1666667   0.2500000   0.2500000), wk =   0.0277778
        k(   56) = (   0.1666667   0.2500000   0.3333333), wk =   0.0555556
        k(   57) = (   0.1666667   0.2500000   0.4166667), wk =   0.0555556
        k(   58) = (   0.1666667   0.2500000  -0.5000000), wk =   0.0277778
        k(   59) = (   0.1666667   0.3333333   0.3333333), wk =   0.0277778
        k(   60) = (   0.1666667   0.3333333   0.4166667), wk =   0.0555556
        k(   61) = (   0.1666667   0.3333333  -0.5000000), wk =   0.0277778
        k(   62) = (   0.1666667   0.4166667   0.4166667), wk =   0.0277778
        k(   63) = (   0.1666667   0.4166667  -0.5000000), wk =   0.0277778
        k(   64) = (   0.1666667  -0.5000000  -0.5000000), wk =   0.0069444
        k(   65) = (   0.2500000   0.2500000   0.2500000), wk =   0.0092593
        k(   66) = (   0.2500000   0.2500000   0.3333333), wk =   0.0277778
        k(   67) = (   0.2500000   0.2500000   0.4166667), wk =   0.0277778
        k(   68) = (   0.2500000   0.2500000  -0.5000000), wk =   0.0138889
        k(   69) = (   0.2500000   0.3333333   0.3333333), wk =   0.0277778
        k(   70) = (   0.2500000   0.3333333   0.4166667), wk =   0.0555556
        k(   71) = (   0.2500000   0.3333333  -0.5000000), wk =   0.0277778
        k(   72) = (   0.2500000   0.4166667   0.4166667), wk =   0.0277778
        k(   73) = (   0.2500000   0.4166667  -0.5000000), wk =   0.0277778
        k(   74) = (   0.2500000  -0.5000000  -0.5000000), wk =   0.0069444
        k(   75) = (   0.3333333   0.3333333   0.3333333), wk =   0.0092593
        k(   76) = (   0.3333333   0.3333333   0.4166667), wk =   0.0277778
        k(   77) = (   0.3333333   0.3333333  -0.5000000), wk =   0.0138889
        k(   78) = (   0.3333333   0.4166667   0.4166667), wk =   0.0277778
        k(   79) = (   0.3333333   0.4166667  -0.5000000), wk =   0.0277778
        k(   80) = (   0.3333333  -0.5000000  -0.5000000), wk =   0.0069444
        k(   81) = (   0.4166667   0.4166667   0.4166667), wk =   0.0092593
        k(   82) = (   0.4166667   0.4166667  -0.5000000), wk =   0.0138889
        k(   83) = (   0.4166667  -0.5000000  -0.5000000), wk =   0.0069444
        k(   84) = (  -0.5000000  -0.5000000  -0.5000000), wk =   0.0011574

     Dense  grid:     7123 G-vectors     FFT dimensions: (  24,  24,  24)

     Estimated max dynamical RAM per process >       5.40 MB

     Estimated total dynamical RAM >      53.95 MB

     Initial potential from superposition of free atoms

     starting charge      21.9998, renormalised to      22.0000
     Starting wfcs are   18 randomized atomic wfcs
     Checking if some PAW data can be deallocated... 

     total cpu time spent up to now is        1.3 secs

     Self-consistent Calculation

     iteration #  1     ecut=    50.00 Ry     beta= 0.70
     Davidson diagonalization with overlap
     ethr =  1.00E-02,  avg # of iterations =  5.6

     Threshold (ethr) on eigenvalues was too large:
     Diagonalizing with lowered threshold

     Davidson diagonalization with overlap
     c_bands:  1 eigenvalues not converged
     c_bands:  1 eigenvalues not converged
     ethr =  1.71E-04,  avg # of iterations =  6.8

     total cpu time spent up to now is        3.4 secs

     total energy              =   -1549.78384284 Ry
     estimated scf accuracy    <       0.05234266 Ry

     iteration #  2     ecut=    50.00 Ry     beta= 0.70
     Davidson diagonalization with overlap
     ethr =  2.38E-04,  avg # of iterations =  2.0

     total cpu time spent up to now is        3.9 secs

     total energy              =   -1549.79366035 Ry
     estimated scf accuracy    <       0.00232181 Ry

     iteration #  3     ecut=    50.00 Ry     beta= 0.70
     Davidson diagonalization with overlap
     c_bands:  1 eigenvalues not converged
     c_bands:  1 eigenvalues not converged
     c_bands:  1 eigenvalues not converged
     c_bands:  1 eigenvalues not converged
     c_bands:  1 eigenvalues not converged
     ethr =  1.06E-05,  avg # of iterations =  8.0

     total cpu time spent up to now is        5.2 secs

     total energy              =   -1549.79484775 Ry
     estimated scf accuracy    <       0.00047526 Ry

     iteration #  4     ecut=    50.00 Ry     beta= 0.70
     Davidson diagonalization with overlap
     ethr =  2.16E-06,  avg # of iterations =  4.5

     total cpu time spent up to now is        6.0 secs

     total energy              =   -1549.79493760 Ry
     estimated scf accuracy    <       0.00016579 Ry

     iteration #  5     ecut=    50.00 Ry     beta= 0.70
     Davidson diagonalization with overlap
     ethr =  7.54E-07,  avg # of iterations =  2.6

     total cpu time spent up to now is        6.6 secs

     total energy              =   -1549.79496746 Ry
     estimated scf accuracy    <       0.00001119 Ry

     iteration #  6     ecut=    50.00 Ry     beta= 0.70
     Davidson diagonalization with overlap
     ethr =  5.08E-08,  avg # of iterations =  5.8

     total cpu time spent up to now is        7.7 secs

     total energy              =   -1549.79498142 Ry
     estimated scf accuracy    <       0.00000388 Ry

     iteration #  7     ecut=    50.00 Ry     beta= 0.70
     Davidson diagonalization with overlap
     ethr =  1.76E-08,  avg # of iterations =  2.0

     total cpu time spent up to now is        8.2 secs

     End of self-consistent calculation

          k = 0.0000 0.0000 0.0000 (   895 PWs)   bands (ev):

    13.0460  16.0607  16.0607  20.2611  20.2611  20.2611  24.0158  24.0158
    26.6385  26.6385  26.6385  35.6925  35.6925  35.6925  44.7912

          k = 0.0000 0.0000 0.0833 (   896 PWs)   bands (ev):

    13.2441  16.1599  16.2190  20.2638  20.2638  20.3469  23.8161  24.0911
    26.2271  26.2271  26.4951  34.8116  36.3214  36.3215  45.5409

          k = 0.0000 0.0000 0.1667 (   892 PWs)   bands (ev):

    13.8212  16.4554  16.6610  20.2868  20.2868  20.6015  23.2538  24.3041
    25.2572  25.2572  26.0853  32.8709  37.9373  37.9373  46.4263

          k = 0.0000 0.0000 0.2500 (   900 PWs)   bands (ev):

    14.7220  16.9394  17.2838  20.3675  20.3675  21.0169  22.4215  24.1240
    24.1240  24.6178  25.4634  30.6895  40.1231  40.1231  45.9531

          k = 0.0000 0.0000 0.3333 (   868 PWs)   bands (ev):

    15.8400  17.5995  17.8897  20.5539  20.5539  21.4303  21.5783  23.0499
    23.0499  24.7014  24.9847  28.6627  42.6131  42.6131  44.9491

          k = 0.0000 0.0000 0.4167 (   872 PWs)   bands (ev):

    16.9885  18.1783  18.4151  20.3818  20.8908  20.8908  22.1332  22.1332
    22.2636  23.8725  25.3988  27.0472  44.2101  45.2215  45.2226

          k = 0.0000 0.0000-0.5000 (   884 PWs)   bands (ev):

    17.8702  17.8705  19.3563  19.3571  21.4113  21.4113  21.4121  21.4121
    23.0416  23.0426  25.9964  25.9973  44.1752  44.1753  47.7148

          k = 0.0000 0.0833 0.0833 (   887 PWs)   bands (ev):

    13.4365  16.2827  16.3506  20.0844  20.2585  20.6167  23.7828  24.0303
    25.5686  25.8186  26.6952  35.4159  35.4261  36.8496  46.3465

          k = 0.0000 0.0833 0.1667 (   885 PWs)   bands (ev):

    13.9945  16.5742  16.7852  19.9598  20.2602  21.0229  23.3389  24.2076
    24.5239  24.8705  26.5393  33.4368  36.9588  38.2745  46.3951

          k = 0.0000 0.0833 0.2500 (   880 PWs)   bands (ev):

    14.8565  17.0320  17.4072  19.9428  20.3028  21.5392  22.6224  23.4121
    23.8004  24.5357  26.0437  31.1911  38.9533  40.2958  46.7428

          k = 0.0000 0.0833 0.3333 (   881 PWs)   bands (ev):

    15.9080  17.6273  18.0149  20.0625  20.3573  21.8622  22.1660  22.3807
    22.8653  24.9211  25.3379  29.0622  40.9805  42.6698  46.0168

          k = 0.0000 0.0833 0.4167 (   879 PWs)   bands (ev):

    16.9665  18.0782  18.5481  20.0814  20.3496  21.5075  21.5213  22.1981
    22.8923  24.5277  25.3727  27.2921  42.4429  44.3506  45.2099

          k = 0.0000 0.0833-0.5000 (   878 PWs)   bands (ev):

    17.7853  17.7855  19.3312  19.3319  20.8276  20.8280  21.7612  21.7618
    23.6928  23.6934  26.0720  26.0728  43.2557  43.2558  47.0068

          k = 0.0000 0.1667 0.1667 (   881 PWs)   bands (ev):

    14.4873  16.8404  17.2060  19.6252  20.2260  21.6475  23.4045  23.4050
    24.0078  24.0874  26.8521  34.4959  35.1867  39.2718  46.2833

          k = 0.0000 0.1667 0.2500 (   883 PWs)   bands (ev):

    15.2157  17.1810  17.8568  19.4243  20.2635  22.2989  22.3530  23.0586
    23.1226  24.3289  26.7389  32.3438  36.7132  40.8556  45.9548

          k = 0.0000 0.1667 0.3333 (   885 PWs)   bands (ev):

    16.0401  17.5154  18.5484  19.3912  20.3517  21.3173  22.5313  22.6073
    23.1247  24.7412  26.2743  29.9980  38.5129  42.8854  44.5283

          k = 0.0000 0.1667 0.4167 (   887 PWs)   bands (ev):

    16.8004  17.6346  19.1630  19.5524  20.2247  20.5168  22.3813  22.4332
    23.9449  25.2926  25.5852  27.9028  40.0836  42.8234  45.1980

          k = 0.0000 0.1667-0.5000 (   876 PWs)   bands (ev):

    17.3714  17.3714  19.7499  19.7505  19.9256  19.9258  22.4457  22.4460
    24.7822  24.7825  26.2804  26.2811  41.4082  41.4084  45.7040

          k = 0.0000 0.2500 0.2500 (   876 PWs)   bands (ev):

    15.6779  17.2741  18.5896  19.0464  20.4660  21.2350  22.5451  23.2315
    23.3717  24.2093  27.0712  32.8344  35.2343  41.8769  44.8480

          k = 0.0000 0.2500 0.3333 (   884 PWs)   bands (ev):

    16.1109  17.2487  18.8548  19.4150  20.3234  20.8916  22.3714  23.2994
    24.1330  24.4970  26.9790  30.8720  36.3104  42.9550  43.3715

          k = 0.0000 0.2500 0.4167 (   882 PWs)   bands (ev):

    16.4729  17.0713  18.8767  19.6129  20.1532  21.0725  22.6595  23.2714
    25.0212  25.1554  26.5325  28.5621  37.8404  41.0509  44.1003

          k = 0.0000 0.2500-0.5000 (   884 PWs)   bands (ev):

    16.7928  16.7928  19.1277  19.1278  20.7404  20.7410  23.0972  23.0973
    25.8457  25.8459  26.5410  26.5416  39.3802  39.3802  44.1336

          k = 0.0000 0.3333 0.3333 (   886 PWs)   bands (ev):

    16.1164  16.8959  18.5136  19.5002  20.4371  21.8610  22.5321  23.7156
    24.3874  25.1145  27.2960  30.5639  35.4263  41.0972  43.2511

          k = 0.0000 0.3333 0.4167 (   885 PWs)   bands (ev):

    16.1520  16.5505  18.3973  18.8923  21.3853  22.4204  23.0060  23.8801
    24.9510  26.0056  27.1931  28.7717  36.1650  39.1817  42.6803

          k = 0.0000 0.3333-0.5000 (   890 PWs)   bands (ev):

    16.2909  16.2909  18.5220  18.5220  22.0888  22.0894  23.5881  23.5884
    26.6606  26.6610  26.7300  26.7301  37.5148  37.5148  42.6939

          k = 0.0000 0.4167 0.4167 (   890 PWs)   bands (ev):

    15.9641  16.1651  18.1481  18.3964  22.6492  23.3976  23.5544  24.5590
    24.6902  26.8039  27.4644  27.9894  35.6156  37.4575  41.8472

          k = 0.0000 0.4167-0.5000 (   880 PWs)   bands (ev):

    15.9641  15.9642  18.1462  18.1462  23.4870  23.4876  23.9607  23.9612
    26.3717  26.3720  27.3194  27.3194  36.1777  36.1779  41.6948

          k = 0.0000-0.5000-0.5000 (   888 PWs)   bands (ev):

    15.8515  15.8516  18.0188  18.0188  23.8706  23.8711  24.6312  24.6323
    25.8675  25.8675  27.5270  27.5270  35.6947  35.6948  41.3364

          k = 0.0833 0.0833 0.0833 (   889 PWs)   bands (ev):

    13.6246  16.4424  16.4424  20.0720  20.0720  20.8972  23.8714  23.8714
    24.7208  26.2865  26.2865  35.7649  36.0328  36.0328  47.2223

          k = 0.0833 0.0833 0.1667 (   889 PWs)   bands (ev):

    14.1679  16.7150  16.8868  19.8821  20.0454  21.3877  23.4253  23.6044
    24.1161  25.3298  26.3725  33.9506  37.0172  37.6044  46.5292

          k = 0.0833 0.0833 0.2500 (   881 PWs)   bands (ev):

    14.9990  17.1573  17.4999  19.8348  20.0219  21.9889  22.5311  22.7824
    24.2252  24.4644  26.0378  31.6908  38.6387  39.6980  46.6192

          k = 0.0833 0.0833 0.3333 (   881 PWs)   bands (ev):

    15.9954  17.7478  18.0450  19.9763  19.9827  21.6701  22.1068  22.6866
    23.2006  24.8672  25.4414  29.5153  40.3514  42.0124  45.5402

          k = 0.0833 0.0833 0.4167 (   879 PWs)   bands (ev):

    16.9807  18.1809  18.4473  19.7440  20.3294  21.1303  21.6993  22.3704
    23.4272  24.7574  25.3716  27.6347  41.6946  43.8578  44.2659

          k = 0.0833 0.0833-0.5000 (   874 PWs)   bands (ev):

    17.7691  17.7692  19.1731  19.1736  20.7532  20.7533  21.8222  21.8227
    24.1066  24.1070  26.2260  26.2268  42.6575  42.6575  45.9806

          k = 0.0833 0.1667 0.1667 (   890 PWs)   bands (ev):

    14.6596  17.0099  17.2758  19.5926  19.9365  22.0492  22.4710  23.5035
    24.0078  24.8085  26.4451  35.0879  35.2843  38.3721  46.5170

          k = 0.0833 0.1667 0.2500 (   885 PWs)   bands (ev):

    15.3802  17.3573  17.9032  19.3893  19.9242  21.4655  22.8117  23.1638
    23.8727  24.2835  26.3693  32.8265  36.7548  39.9275  46.0246

          k = 0.0833 0.1667 0.3333 (   884 PWs)   bands (ev):

    16.1785  17.7043  18.4959  19.3512  20.0098  20.7741  22.6902  23.0633
    23.6497  24.7196  25.9513  30.5206  38.3508  41.8244  44.3922

          k = 0.0833 0.1667 0.4167 (   886 PWs)   bands (ev):

    16.8969  17.7933  18.8979  19.3768  20.1606  20.4812  22.4130  22.5884
    24.3319  25.3491  25.4347  28.4356  39.8071  42.6081  43.6570

          k = 0.0833 0.1667-0.5000 (   884 PWs)   bands (ev):

    17.4622  17.4622  19.2340  19.2342  20.3155  20.3158  22.4198  22.4201
    24.7925  24.7930  26.7040  26.7046  41.1327  41.1328  44.8888

          k = 0.0833 0.2500 0.2500 (   884 PWs)   bands (ev):

    15.8656  17.4620  18.6201  19.0139  20.0798  20.5625  23.2141  23.4165
    23.7679  24.1891  26.6405  33.4349  35.1682  40.8108  44.8487

          k = 0.0833 0.2500 0.3333 (   884 PWs)   bands (ev):

    16.2966  17.4246  18.8276  19.3240  20.0165  20.4878  22.8042  23.3071
    24.4277  24.7892  26.5163  31.4722  36.2286  42.0449  42.9128

          k = 0.0833 0.2500 0.4167 (   888 PWs)   bands (ev):

    16.6299  17.2182  18.8321  19.2670  20.3280  20.8427  22.8364  23.1851
    24.7837  25.9582  26.0144  29.2865  37.6987  40.9433  43.1907

          k = 0.0833 0.2500-0.5000 (   890 PWs)   bands (ev):

    16.9285  16.9286  18.9971  18.9972  20.7518  20.7523  23.0854  23.0854
    25.3265  25.3270  27.4208  27.4211  39.2297  39.2297  43.7214

          k = 0.0833 0.3333 0.3333 (   889 PWs)   bands (ev):

    16.3136  17.0516  18.4965  19.3033  20.4052  21.3809  22.8156  23.6836
    24.3926  25.7955  26.7378  31.3151  35.2932  41.0376  42.4394

          k = 0.0833 0.3333 0.4167 (   891 PWs)   bands (ev):

    16.3343  16.7000  18.3851  18.8153  21.3318  22.0954  23.1455  23.7623
    24.7221  26.4420  26.8650  29.7423  36.0324  39.0840  42.6393

          k = 0.0833 0.3333-0.5000 (   892 PWs)   bands (ev):

    16.4522  16.4523  18.4965  18.4965  21.9757  21.9763  23.5897  23.5900
    25.6131  25.6136  28.1166  28.1168  37.3893  37.3894  42.5729

          k = 0.0833 0.4167 0.4167 (   891 PWs)   bands (ev):

    16.1503  16.3276  18.1472  18.3808  22.5172  23.3598  23.4996  24.1143
    24.5681  26.3332  27.7391  29.3942  35.4610  37.3384  42.0544

          k = 0.0833 0.4167-0.5000 (   882 PWs)   bands (ev):

    16.1413  16.1414  18.1465  18.1465  23.3789  23.3795  23.9089  23.9093
    25.4763  25.4767  28.5690  28.5691  36.0340  36.0341  41.7368

          k = 0.0833-0.5000-0.5000 (   884 PWs)   bands (ev):

    16.0342  16.0344  18.0246  18.0246  23.9246  23.9251  24.6393  24.6404
    24.8087  24.8087  28.7140  28.7140  35.5359  35.5361  41.4320

          k = 0.1667 0.1667 0.1667 (   898 PWs)   bands (ev):

    15.1434  17.4788  17.4788  19.5083  19.5083  21.3358  22.8377  23.7777
    23.7777  25.5183  25.5183  35.4808  36.5559  36.5559  46.7616

          k = 0.1667 0.1667 0.2500 (   886 PWs)   bands (ev):

    15.8273  17.7950  18.0848  19.2856  19.4015  20.4095  23.4313  23.7486
    24.1638  24.4919  25.7611  33.8686  36.6028  38.4359  45.8050

          k = 0.1667 0.1667 0.3333 (   891 PWs)   bands (ev):

    16.5148  18.1855  18.3465  19.2892  19.4284  20.0700  23.0452  23.6016
    24.4400  24.8787  25.5667  31.6116  37.6295  40.4062  43.8864

          k = 0.1667 0.1667 0.4167 (   890 PWs)   bands (ev):

    17.0532  17.9858  18.5883  19.1497  19.9132  20.3348  22.7460  22.9748
    24.6817  25.1667  26.1236  29.5008  38.8666  41.9007  42.2077

          k = 0.1667 0.1667-0.5000 (   882 PWs)   bands (ev):

    17.5090  17.5091  18.9255  18.9256  20.3532  20.3536  22.6882  22.6883
    24.8538  24.8545  27.6583  27.6586  40.2487  40.2488  43.6298

          k = 0.1667 0.2500 0.2500 (   883 PWs)   bands (ev):

    16.3934  17.9982  18.7012  18.9340  19.3792  19.5819  23.6556  24.1219
    24.1438  24.8109  25.7307  34.8457  35.0343  38.7354  44.8547

          k = 0.1667 0.2500 0.3333 (   888 PWs)   bands (ev):

    16.8119  17.8837  18.7860  18.9374  19.6878  19.7244  23.5068  23.5719
    24.4161  25.6747  25.9402  32.6882  36.0554  40.0154  42.7595

          k = 0.1667 0.2500 0.4167 (   886 PWs)   bands (ev):

    17.0231  17.5375  18.7865  18.8602  20.2457  20.3749  23.2702  23.3076
    24.7016  25.3323  27.2087  30.5739  37.2878  40.5890  41.4250

          k = 0.1667 0.2500-0.5000 (   896 PWs)   bands (ev):

    17.2268  17.2269  18.8268  18.8268  20.5853  20.5858  23.2232  23.2232
    24.9543  24.9550  28.7325  28.7326  38.7671  38.7672  42.6309

          k = 0.1667 0.3333 0.3333 (   884 PWs)   bands (ev):

    16.8825  17.4301  18.4622  18.9821  20.2937  20.4257  23.4381  23.8092
    24.4001  25.7888  27.1079  32.8457  34.9537  40.4266  40.8646

          k = 0.1667 0.3333 0.4167 (   893 PWs)   bands (ev):

    16.8432  17.0708  18.3792  18.7173  21.1089  21.2385  23.5142  23.7981
    24.6234  25.5296  28.3116  31.3007  35.6989  38.8067  41.1968

          k = 0.1667 0.3333-0.5000 (   892 PWs)   bands (ev):

    16.8771  16.8772  18.4859  18.4860  21.5252  21.5257  23.6991  23.6994
    25.0155  25.0162  29.6755  29.6756  37.0521  37.0521  41.9937

          k = 0.1667 0.4167 0.4167 (   888 PWs)   bands (ev):

    16.6821  16.7628  18.1591  18.3913  22.0811  22.3205  23.7694  24.0248
    24.5915  25.3921  29.3323  31.1886  35.0453  37.0217  41.3484

          k = 0.1667 0.4167-0.5000 (   892 PWs)   bands (ev):

    16.6384  16.6385  18.1725  18.1725  22.6848  22.6851  23.9866  23.9871
    24.8898  24.8906  30.3199  30.3200  35.6537  35.6538  41.6848

          k = 0.1667-0.5000-0.5000 (   884 PWs)   bands (ev):

    16.5561  16.5563  18.0551  18.0551  23.3516  23.3516  24.0763  24.0768
    24.6615  24.6626  30.5519  30.5519  35.1028  35.1028  41.6116

          k = 0.2500 0.2500 0.2500 (   886 PWs)   bands (ev):

    17.1024  18.7055  18.8022  18.8022  18.8486  18.8486  23.9987  23.9987
    24.8130  24.8130  26.0074  34.9232  36.5683  36.5683  44.7466

          k = 0.2500 0.2500 0.3333 (   890 PWs)   bands (ev):

    17.4683  18.0384  18.7999  18.8782  19.0132  19.6717  23.8309  24.1101
    24.3659  25.0717  27.2403  33.8132  35.7952  38.3313  42.2455

          k = 0.2500 0.2500 0.4167 (   894 PWs)   bands (ev):

    17.3895  17.5921  18.8071  18.8936  19.8044  20.3247  23.6655  23.7066
    24.6473  24.9922  28.5446  31.8318  36.5538  39.8103  39.9766

          k = 0.2500 0.2500-0.5000 (   904 PWs)   bands (ev):

    17.3834  17.3836  18.8540  18.8541  20.3887  20.3893  23.5877  23.5880
    24.8212  24.8220  30.0455  30.0456  37.9091  37.9092  41.4242

          k = 0.2500 0.3333 0.3333 (   896 PWs)   bands (ev):

    17.6540  17.7452  18.4516  19.0878  19.4748  20.0703  24.0669  24.0773
    24.3933  25.0089  28.5303  34.5655  34.5912  38.3313  40.5072

          k = 0.2500 0.3333 0.4167 (   899 PWs)   bands (ev):

    17.3944  17.5202  18.4785  18.9082  20.3095  20.6916  23.9654  24.0357
    24.6007  24.9548  29.8064  32.8105  35.3689  38.3505  39.4740

          k = 0.2500 0.3333-0.5000 (   892 PWs)   bands (ev):

    17.3516  17.3518  18.6668  18.6669  20.8328  20.8332  23.9720  23.9725
    24.7825  24.7833  31.1902  31.1902  36.5916  36.5917  40.8070

          k = 0.2500 0.4167 0.4167 (   894 PWs)   bands (ev):

    17.2789  17.4687  18.2205  18.6050  21.1657  21.3566  24.1188  24.2248
    24.6191  24.9014  30.9512  33.0741  34.4957  36.6202  39.9591

          k = 0.2500 0.4167-0.5000 (   892 PWs)   bands (ev):

    17.3248  17.3250  18.3106  18.3106  21.6266  21.6268  24.2173  24.2180
    24.7369  24.7379  32.0707  32.0707  35.2038  35.2039  40.9900

          k = 0.2500-0.5000-0.5000 (   912 PWs)   bands (ev):

    17.3320  17.3323  18.1453  18.1453  22.0204  22.0204  24.2932  24.2939
    24.6921  24.6932  32.5041  32.5041  34.5087  34.5087  41.5801

          k = 0.3333 0.3333 0.3333 (   892 PWs)   bands (ev):

    17.5642  18.5122  18.5122  18.9377  19.7307  19.7307  24.3613  24.3613
    24.5289  24.5289  29.8946  34.2979  36.3693  36.3694  39.3839

          k = 0.3333 0.3333 0.4167 (   903 PWs)   bands (ev):

    17.5165  18.0197  18.6781  19.3317  19.8043  20.3168  24.3109  24.3166
    24.5955  24.7161  31.1687  33.7630  35.3409  37.5325  38.0900

          k = 0.3333 0.3333-0.5000 (   900 PWs)   bands (ev):

    17.6571  17.6573  18.9594  18.9597  20.3805  20.3809  24.2746  24.2753
    24.7132  24.7142  32.4556  32.4557  36.0140  36.0143  39.6979

          k = 0.3333 0.4167 0.4167 (   905 PWs)   bands (ev):

    17.6444  18.3076  18.3776  19.1594  20.2342  20.5246  24.4430  24.4637
    24.6404  24.7099  32.3264  33.9828  34.9839  36.2695  38.2918

          k = 0.3333 0.4167-0.5000 (   900 PWs)   bands (ev):

    17.9137  17.9139  18.7206  18.7209  20.6379  20.6381  24.4692  24.4700
    24.7104  24.7114  33.3521  33.3521  35.1745  35.1748  39.6027

          k = 0.3333-0.5000-0.5000 (   900 PWs)   bands (ev):

    18.2031  18.2035  18.3410  18.3410  20.8756  20.8756  24.5207  24.5216
    24.7228  24.7239  33.9056  33.9058  34.4866  34.4866  40.2305

          k = 0.4167 0.4167 0.4167 (   904 PWs)   bands (ev):

    17.9498  18.6712  18.6712  19.7546  19.7546  19.8609  24.6491  24.6491
    24.6548  24.6548  33.1913  33.6631  36.0079  36.8589  36.8589

          k = 0.4167 0.4167-0.5000 (   900 PWs)   bands (ev):

    18.3310  18.3311  19.1280  19.1285  19.9847  19.9849  24.6477  24.6487
    24.7199  24.7210  33.5206  33.5208  36.0580  36.0582  38.6288

          k = 0.4167-0.5000-0.5000 (   908 PWs)   bands (ev):

    18.6843  18.6843  18.9229  18.9235  19.9371  19.9371  24.6914  24.6924
    24.7454  24.7465  33.4529  33.4533  36.4365  36.4366  38.7981

          k =-0.5000-0.5000-0.5000 (   912 PWs)   bands (ev):

    19.2091  19.2091  19.2091  19.2097  19.2097  19.2097  24.7537  24.7537
    24.7548  24.7548  33.2838  33.2842  38.2718  38.2719  38.2721

     the Fermi energy is    29.1723 ev

!    total energy              =   -1549.79498124 Ry

     total all-electron energy =    -76047.487163 Ry
     estimated scf accuracy    <       0.00000073 Ry
     smearing contrib. (-TS)   =      -0.13502362 Ry
     internal energy E=F+TS    =   -1549.65995763 Ry

     The total energy is F=E-TS. E is the sum of the following terms:
     one-electron contribution =      58.66138092 Ry
     hartree contribution      =       8.70227465 Ry
     xc contribution           =     -65.45226064 Ry
     ewald contribution        =    -166.19285525 Ry
     one-center paw contrib.   =   -1385.37849731 Ry

     convergence has been achieved in   7 iterations

     Forces acting on atoms (cartesian axes, Ry/au):

     atom    1 type  1   force =     0.00000000    0.00000000   -0.00000000
     atom    2 type  1   force =     0.00000000    0.00000000    0.00000000

     Total force =     0.000000     Total SCF correction =     0.000000

     Writing all to output data dir ./pwscf.save/
 
     init_run     :      0.24s CPU      0.27s WALL (       1 calls)
     electrons    :      6.70s CPU      6.91s WALL (       1 calls)
     forces       :      0.03s CPU      0.03s WALL (       1 calls)

     Called by init_run:
     wfcinit      :      0.16s CPU      0.16s WALL (       1 calls)
     potinit      :      0.03s CPU      0.04s WALL (       1 calls)
     hinit0       :      0.04s CPU      0.06s WALL (       1 calls)

     Called by electrons:
     c_bands      :      6.06s CPU      6.21s WALL (       8 calls)
     sum_band     :      0.39s CPU      0.41s WALL (       8 calls)
     v_of_rho     :      0.01s CPU      0.01s WALL (       8 calls)
     newd         :      0.01s CPU      0.01s WALL (       8 calls)
     PAW_pot      :      0.26s CPU      0.28s WALL (       8 calls)
     mix_rho      :      0.00s CPU      0.00s WALL (       8 calls)

     Called by c_bands:
     init_us_2    :      0.02s CPU      0.03s WALL (    1512 calls)
     init_us_2:cp :      0.02s CPU      0.02s WALL (    1512 calls)
     cegterg      :      5.95s CPU      6.10s WALL (     672 calls)

     Called by *egterg:
     cdiaghg      :      2.93s CPU      2.99s WALL (    3712 calls)
     h_psi        :      1.89s CPU      1.95s WALL (    3880 calls)
     s_psi        :      0.04s CPU      0.04s WALL (    3880 calls)
     g_psi        :      0.01s CPU      0.01s WALL (    3124 calls)

     Called by h_psi:
     h_psi:calbec :      0.14s CPU      0.14s WALL (    3880 calls)
     vloc_psi     :      1.70s CPU      1.75s WALL (    3880 calls)
     add_vuspsi   :      0.04s CPU      0.05s WALL (    3880 calls)

     General routines
     calbec       :      0.18s CPU      0.19s WALL (    4888 calls)
     fft          :      0.00s CPU      0.00s WALL (     100 calls)
     ffts         :      0.00s CPU      0.00s WALL (       8 calls)
     fftw         :      1.84s CPU      1.90s WALL (   77824 calls)
 
     Parallel routines
 
     PWSCF        :      7.68s CPU      9.11s WALL

 
   This run was terminated on:  11:27: 9   6Apr2024            

=------------------------------------------------------------------------------=
   JOB DONE.
=------------------------------------------------------------------------------=
