MPI startup(): Warning: I_MPI_PMI_LIBRARY will be ignored since the hydra process manager was found
MPI startup(): Warning: I_MPI_PMI_LIBRARY will be ignored since the hydra process manager was found
MPI startup(): Warning: I_MPI_PMI_LIBRARY will be ignored since the hydra process manager was found
MPI startup(): Warning: I_MPI_PMI_LIBRARY will be ignored since the hydra process manager was found
MPI startup(): Warning: I_MPI_PMI_LIBRARY will be ignored since the hydra process manager was found
MPI startup(): Warning: I_MPI_PMI_LIBRARY will be ignored since the hydra process manager was found
MPI startup(): Warning: I_MPI_PMI_LIBRARY will be ignored since the hydra process manager was found
MPI startup(): Warning: I_MPI_PMI_LIBRARY will be ignored since the hydra process manager was found
MPI startup(): Warning: I_MPI_PMI_LIBRARY will be ignored since the hydra process manager was found
MPI startup(): Warning: I_MPI_PMI_LIBRARY will be ignored since the hydra process manager was found

     Program PWSCF v.7.0 starts on  6Apr2024 at 11:27:22 

     This program is part of the open-source Quantum ESPRESSO suite
     for quantum simulation of materials; please cite
         "P. Giannozzi et al., J. Phys.:Condens. Matter 21 395502 (2009);
         "P. Giannozzi et al., J. Phys.:Condens. Matter 29 465901 (2017);
         "P. Giannozzi et al., J. Chem. Phys. 152 154105 (2020);
          URL http://www.quantum-espresso.org", 
     in publications or presentations arising from this work. More details at
     http://www.quantum-espresso.org/quote

     Parallel version (MPI), running on    10 processors

     MPI processes distributed on     1 nodes
     R & G space division:  proc/nbgrp/npool/nimage =      10
     237767 MiB available memory on the printing compute node when the environment starts
 
     Reading input from VolumeBCC_10.4.in
Warning: card &CELL ignored
Warning: card / ignored

     Current dimensions of program PWSCF are:
     Max number of different atomic species (ntypx) = 10
     Max number of k-points (npk) =  40000
     Max angular momentum in pseudopotentials (lmaxx) =  4
     file Au.pbe-n-kjpaw_psl.1.0.0.UPF: wavefunction(s)  6S 5D renormalized
     Found identity + (  0.5000  0.5000  0.5000) symmetry
     This is a supercell, fractional translations are disabled
     Message from routine setup:
     using ibrav=0 with symmetry is DISCOURAGED, use correct ibrav instead

     Subspace diagonalization in iterative solution of the eigenvalue problem:
     one sub-group per band group will be used
     scalapack distributed-memory algorithm (size of sub-group:  3*  3 procs)

 
     Parallelization info
     --------------------
     sticks:   dense  smooth     PW     G-vecs:    dense   smooth      PW
     Min         172     172     49                 5370     5370     828
     Max         173     173     52                 5373     5373     829
     Sum        1725    1725    497                53715    53715    8289
 
     Using Slab Decomposition
 


     bravais-lattice index     =            0
     lattice parameter (alat)  =      10.3985  a.u.
     unit-cell volume          =    1124.3751 (a.u.)^3
     number of atoms/cell      =            2
     number of atomic types    =            1
     number of electrons       =        22.00
     number of Kohn-Sham states=           15
     kinetic-energy cutoff     =      50.0000  Ry
     charge density cutoff     =     200.0000  Ry
     scf convergence threshold =      1.0E-06
     mixing beta               =       0.7000
     number of iterations used =            8  plain     mixing
     Exchange-correlation= SLA  PW   PBX  PBC
                           (   1   4   3   4   0   0   0)

     celldm(1)=  10.398493  celldm(2)=   0.000000  celldm(3)=   0.000000
     celldm(4)=   0.000000  celldm(5)=   0.000000  celldm(6)=   0.000000

     crystal axes: (cart. coord. in units of alat)
               a(1) = (   1.000000   0.000000   0.000000 )  
               a(2) = (   0.000000   1.000000   0.000000 )  
               a(3) = (   0.000000   0.000000   1.000000 )  

     reciprocal axes: (cart. coord. in units 2 pi/alat)
               b(1) = (  1.000000  0.000000  0.000000 )  
               b(2) = (  0.000000  1.000000  0.000000 )  
               b(3) = (  0.000000  0.000000  1.000000 )  


     PseudoPot. # 1 for Au read from file:
     ./Au.pbe-n-kjpaw_psl.1.0.0.UPF
     MD5 check sum: 4db85c736373c707a97ce4c36c2a9d23
     Pseudo is Projector augmented-wave + core cor, Zval = 11.0
     Generated using &quot;atomic&quot; code by A. Dal Corso  v.6.3
     Shape of augmentation charge: PSQ
     Using radial grid of 1279 points,  6 beta functions with: 
                l(1) =   0
                l(2) =   0
                l(3) =   1
                l(4) =   1
                l(5) =   2
                l(6) =   2
     Q(r) pseudized with 0 coefficients 


     atomic species   valence    mass     pseudopotential
        Au            11.00   196.96657     Au( 1.00)

     48 Sym. Ops., with inversion, found



   Cartesian axes

     site n.     atom                  positions (alat units)
         1           Au  tau(   1) = (   0.0000000   0.0000000   0.0000000  )
         2           Au  tau(   2) = (   0.5000000   0.5000000   0.5000000  )

     number of k points=    84  Gaussian smearing, width (Ry)=  0.2000
                       cart. coord. in units 2pi/alat
        k(    1) = (   0.0000000   0.0000000   0.0000000), wk =   0.0011574
        k(    2) = (   0.0000000   0.0000000   0.0833333), wk =   0.0069444
        k(    3) = (   0.0000000   0.0000000   0.1666667), wk =   0.0069444
        k(    4) = (   0.0000000   0.0000000   0.2500000), wk =   0.0069444
        k(    5) = (   0.0000000   0.0000000   0.3333333), wk =   0.0069444
        k(    6) = (   0.0000000   0.0000000   0.4166667), wk =   0.0069444
        k(    7) = (   0.0000000   0.0000000  -0.5000000), wk =   0.0034722
        k(    8) = (   0.0000000   0.0833333   0.0833333), wk =   0.0138889
        k(    9) = (   0.0000000   0.0833333   0.1666667), wk =   0.0277778
        k(   10) = (   0.0000000   0.0833333   0.2500000), wk =   0.0277778
        k(   11) = (   0.0000000   0.0833333   0.3333333), wk =   0.0277778
        k(   12) = (   0.0000000   0.0833333   0.4166667), wk =   0.0277778
        k(   13) = (   0.0000000   0.0833333  -0.5000000), wk =   0.0138889
        k(   14) = (   0.0000000   0.1666667   0.1666667), wk =   0.0138889
        k(   15) = (   0.0000000   0.1666667   0.2500000), wk =   0.0277778
        k(   16) = (   0.0000000   0.1666667   0.3333333), wk =   0.0277778
        k(   17) = (   0.0000000   0.1666667   0.4166667), wk =   0.0277778
        k(   18) = (   0.0000000   0.1666667  -0.5000000), wk =   0.0138889
        k(   19) = (   0.0000000   0.2500000   0.2500000), wk =   0.0138889
        k(   20) = (   0.0000000   0.2500000   0.3333333), wk =   0.0277778
        k(   21) = (   0.0000000   0.2500000   0.4166667), wk =   0.0277778
        k(   22) = (   0.0000000   0.2500000  -0.5000000), wk =   0.0138889
        k(   23) = (   0.0000000   0.3333333   0.3333333), wk =   0.0138889
        k(   24) = (   0.0000000   0.3333333   0.4166667), wk =   0.0277778
        k(   25) = (   0.0000000   0.3333333  -0.5000000), wk =   0.0138889
        k(   26) = (   0.0000000   0.4166667   0.4166667), wk =   0.0138889
        k(   27) = (   0.0000000   0.4166667  -0.5000000), wk =   0.0138889
        k(   28) = (   0.0000000  -0.5000000  -0.5000000), wk =   0.0034722
        k(   29) = (   0.0833333   0.0833333   0.0833333), wk =   0.0092593
        k(   30) = (   0.0833333   0.0833333   0.1666667), wk =   0.0277778
        k(   31) = (   0.0833333   0.0833333   0.2500000), wk =   0.0277778
        k(   32) = (   0.0833333   0.0833333   0.3333333), wk =   0.0277778
        k(   33) = (   0.0833333   0.0833333   0.4166667), wk =   0.0277778
        k(   34) = (   0.0833333   0.0833333  -0.5000000), wk =   0.0138889
        k(   35) = (   0.0833333   0.1666667   0.1666667), wk =   0.0277778
        k(   36) = (   0.0833333   0.1666667   0.2500000), wk =   0.0555556
        k(   37) = (   0.0833333   0.1666667   0.3333333), wk =   0.0555556
        k(   38) = (   0.0833333   0.1666667   0.4166667), wk =   0.0555556
        k(   39) = (   0.0833333   0.1666667  -0.5000000), wk =   0.0277778
        k(   40) = (   0.0833333   0.2500000   0.2500000), wk =   0.0277778
        k(   41) = (   0.0833333   0.2500000   0.3333333), wk =   0.0555556
        k(   42) = (   0.0833333   0.2500000   0.4166667), wk =   0.0555556
        k(   43) = (   0.0833333   0.2500000  -0.5000000), wk =   0.0277778
        k(   44) = (   0.0833333   0.3333333   0.3333333), wk =   0.0277778
        k(   45) = (   0.0833333   0.3333333   0.4166667), wk =   0.0555556
        k(   46) = (   0.0833333   0.3333333  -0.5000000), wk =   0.0277778
        k(   47) = (   0.0833333   0.4166667   0.4166667), wk =   0.0277778
        k(   48) = (   0.0833333   0.4166667  -0.5000000), wk =   0.0277778
        k(   49) = (   0.0833333  -0.5000000  -0.5000000), wk =   0.0069444
        k(   50) = (   0.1666667   0.1666667   0.1666667), wk =   0.0092593
        k(   51) = (   0.1666667   0.1666667   0.2500000), wk =   0.0277778
        k(   52) = (   0.1666667   0.1666667   0.3333333), wk =   0.0277778
        k(   53) = (   0.1666667   0.1666667   0.4166667), wk =   0.0277778
        k(   54) = (   0.1666667   0.1666667  -0.5000000), wk =   0.0138889
        k(   55) = (   0.1666667   0.2500000   0.2500000), wk =   0.0277778
        k(   56) = (   0.1666667   0.2500000   0.3333333), wk =   0.0555556
        k(   57) = (   0.1666667   0.2500000   0.4166667), wk =   0.0555556
        k(   58) = (   0.1666667   0.2500000  -0.5000000), wk =   0.0277778
        k(   59) = (   0.1666667   0.3333333   0.3333333), wk =   0.0277778
        k(   60) = (   0.1666667   0.3333333   0.4166667), wk =   0.0555556
        k(   61) = (   0.1666667   0.3333333  -0.5000000), wk =   0.0277778
        k(   62) = (   0.1666667   0.4166667   0.4166667), wk =   0.0277778
        k(   63) = (   0.1666667   0.4166667  -0.5000000), wk =   0.0277778
        k(   64) = (   0.1666667  -0.5000000  -0.5000000), wk =   0.0069444
        k(   65) = (   0.2500000   0.2500000   0.2500000), wk =   0.0092593
        k(   66) = (   0.2500000   0.2500000   0.3333333), wk =   0.0277778
        k(   67) = (   0.2500000   0.2500000   0.4166667), wk =   0.0277778
        k(   68) = (   0.2500000   0.2500000  -0.5000000), wk =   0.0138889
        k(   69) = (   0.2500000   0.3333333   0.3333333), wk =   0.0277778
        k(   70) = (   0.2500000   0.3333333   0.4166667), wk =   0.0555556
        k(   71) = (   0.2500000   0.3333333  -0.5000000), wk =   0.0277778
        k(   72) = (   0.2500000   0.4166667   0.4166667), wk =   0.0277778
        k(   73) = (   0.2500000   0.4166667  -0.5000000), wk =   0.0277778
        k(   74) = (   0.2500000  -0.5000000  -0.5000000), wk =   0.0069444
        k(   75) = (   0.3333333   0.3333333   0.3333333), wk =   0.0092593
        k(   76) = (   0.3333333   0.3333333   0.4166667), wk =   0.0277778
        k(   77) = (   0.3333333   0.3333333  -0.5000000), wk =   0.0138889
        k(   78) = (   0.3333333   0.4166667   0.4166667), wk =   0.0277778
        k(   79) = (   0.3333333   0.4166667  -0.5000000), wk =   0.0277778
        k(   80) = (   0.3333333  -0.5000000  -0.5000000), wk =   0.0069444
        k(   81) = (   0.4166667   0.4166667   0.4166667), wk =   0.0092593
        k(   82) = (   0.4166667   0.4166667  -0.5000000), wk =   0.0138889
        k(   83) = (   0.4166667  -0.5000000  -0.5000000), wk =   0.0069444
        k(   84) = (  -0.5000000  -0.5000000  -0.5000000), wk =   0.0011574

     Dense  grid:    53715 G-vectors     FFT dimensions: (  48,  48,  48)

     Estimated max dynamical RAM per process >      33.21 MB

     Estimated total dynamical RAM >     332.10 MB

     Initial potential from superposition of free atoms

     starting charge      21.9998, renormalised to      22.0000
     Starting wfcs are   18 randomized atomic wfcs
     Checking if some PAW data can be deallocated... 

     total cpu time spent up to now is        1.6 secs

     Self-consistent Calculation

     iteration #  1     ecut=    50.00 Ry     beta= 0.70
     Davidson diagonalization with overlap
     ethr =  1.00E-02,  avg # of iterations =  2.0

     Threshold (ethr) on eigenvalues was too large:
     Diagonalizing with lowered threshold

     Davidson diagonalization with overlap
     ethr =  7.97E-04,  avg # of iterations =  2.0

     total cpu time spent up to now is        4.5 secs

     total energy              =   -1550.10447296 Ry
     estimated scf accuracy    <       0.17429543 Ry

     iteration #  2     ecut=    50.00 Ry     beta= 0.70
     Davidson diagonalization with overlap
     ethr =  7.92E-04,  avg # of iterations =  2.1

     total cpu time spent up to now is        6.1 secs

     total energy              =   -1550.17538873 Ry
     estimated scf accuracy    <       0.17433700 Ry

     iteration #  3     ecut=    50.00 Ry     beta= 0.70
     Davidson diagonalization with overlap
     ethr =  7.92E-04,  avg # of iterations =  1.0

     total cpu time spent up to now is        7.2 secs

     total energy              =   -1550.19638189 Ry
     estimated scf accuracy    <       0.00982982 Ry

     iteration #  4     ecut=    50.00 Ry     beta= 0.70
     Davidson diagonalization with overlap
     ethr =  4.47E-05,  avg # of iterations =  2.4

     total cpu time spent up to now is        8.8 secs

     total energy              =   -1550.19585864 Ry
     estimated scf accuracy    <       0.00331504 Ry

     iteration #  5     ecut=    50.00 Ry     beta= 0.70
     Davidson diagonalization with overlap
     ethr =  1.51E-05,  avg # of iterations =  4.8

     total cpu time spent up to now is       11.2 secs

     total energy              =   -1550.19518812 Ry
     estimated scf accuracy    <       0.01718674 Ry

     iteration #  6     ecut=    50.00 Ry     beta= 0.70
     Davidson diagonalization with overlap
     ethr =  1.51E-05,  avg # of iterations =  2.5

     total cpu time spent up to now is       12.9 secs

     total energy              =   -1550.19871438 Ry
     estimated scf accuracy    <       0.00002989 Ry

     iteration #  7     ecut=    50.00 Ry     beta= 0.70
     Davidson diagonalization with overlap
     c_bands:  1 eigenvalues not converged
     ethr =  1.36E-07,  avg # of iterations =  8.4

     total cpu time spent up to now is       16.4 secs

     total energy              =   -1550.19879854 Ry
     estimated scf accuracy    <       0.00008541 Ry

     iteration #  8     ecut=    50.00 Ry     beta= 0.70
     Davidson diagonalization with overlap
     ethr =  1.36E-07,  avg # of iterations =  6.2

     total cpu time spent up to now is       19.1 secs

     total energy              =   -1550.19882969 Ry
     estimated scf accuracy    <       0.00041169 Ry

     iteration #  9     ecut=    50.00 Ry     beta= 0.70
     Davidson diagonalization with overlap
     ethr =  1.36E-07,  avg # of iterations =  2.0

     total cpu time spent up to now is       20.5 secs

     total energy              =   -1550.19876783 Ry
     estimated scf accuracy    <       0.00021824 Ry

     iteration # 10     ecut=    50.00 Ry     beta= 0.70
     Davidson diagonalization with overlap
     ethr =  1.36E-07,  avg # of iterations =  2.0

     total cpu time spent up to now is       22.0 secs

     total energy              =   -1550.19874293 Ry
     estimated scf accuracy    <       0.00004923 Ry

     iteration # 11     ecut=    50.00 Ry     beta= 0.70
     Davidson diagonalization with overlap
     ethr =  1.36E-07,  avg # of iterations =  4.0

     total cpu time spent up to now is       24.2 secs

     total energy              =   -1550.19875943 Ry
     estimated scf accuracy    <       0.00006019 Ry

     iteration # 12     ecut=    50.00 Ry     beta= 0.70
     Davidson diagonalization with overlap
     ethr =  1.36E-07,  avg # of iterations =  2.0

     total cpu time spent up to now is       25.7 secs

     End of self-consistent calculation

          k = 0.0000 0.0000 0.0000 (  6667 PWs)   bands (ev):

    -3.9344  -3.9344  -3.9078  -3.9078  -3.9078  -3.8368  -3.8368  -3.7975
    -3.7975  -3.7975  -3.0866  -1.2134   3.3706   3.3706   3.3706

          k = 0.0000 0.0000 0.0833 (  6715 PWs)   bands (ev):

    -3.9327  -3.9310  -3.9067  -3.9067  -3.9059  -3.8384  -3.8365  -3.8003
    -3.8003  -3.7994  -3.0593  -1.2454   3.2983   3.4081   3.4081

          k = 0.0000 0.0000 0.1667 (  6735 PWs)   bands (ev):

    -3.9276  -3.9212  -3.9032  -3.9032  -3.9003  -3.8431  -3.8359  -3.8080
    -3.8080  -3.8049  -2.9782  -1.3414   3.1502   3.5197   3.5197

          k = 0.0000 0.0000 0.2500 (  6719 PWs)   bands (ev):

    -3.9195  -3.9067  -3.8972  -3.8972  -3.8915  -3.8505  -3.8366  -3.8198
    -3.8198  -3.8135  -2.8454  -1.4985   3.0374   3.7023   3.7023

          k = 0.0000 0.0000 0.3333 (  6688 PWs)   bands (ev):

    -3.9091  -3.8898  -3.8887  -3.8887  -3.8800  -3.8603  -3.8401  -3.8341
    -3.8341  -3.8248  -2.6657  -1.7070   3.0254   3.9509   3.9512

          k = 0.0000 0.0000 0.4167 (  6696 PWs)   bands (ev):

    -3.8970  -3.8776  -3.8776  -3.8730  -3.8718  -3.8666  -3.8494  -3.8494
    -3.8472  -3.8381  -2.4473  -1.9491   3.1375   3.7274   4.2583

          k = 0.0000 0.0000-0.5000 (  6696 PWs)   bands (ev):

    -3.8844  -3.8843  -3.8643  -3.8643  -3.8643  -3.8643  -3.8584  -3.8584
    -3.8523  -3.8523  -2.2029  -2.2028   3.3744   3.3744   4.6143

          k = 0.0000 0.0833 0.0833 (  6733 PWs)   bands (ev):

    -3.9302  -3.9284  -3.9097  -3.9058  -3.8999  -3.8389  -3.8370  -3.8073
    -3.8029  -3.7968  -3.0321  -1.2743   3.1849   3.4452   3.4891

          k = 0.0000 0.0833 0.1667 (  6732 PWs)   bands (ev):

    -3.9250  -3.9191  -3.9099  -3.9031  -3.8909  -3.8428  -3.8365  -3.8186
    -3.8106  -3.7983  -2.9513  -1.3619   3.0125   3.5554   3.6262

          k = 0.0000 0.0833 0.2500 (  6737 PWs)   bands (ev):

    -3.9173  -3.9070  -3.9050  -3.8984  -3.8796  -3.8496  -3.8368  -3.8327
    -3.8220  -3.8039  -2.8191  -1.5078   2.8869   3.7357   3.8173

          k = 0.0000 0.0833 0.3333 (  6697 PWs)   bands (ev):

    -3.9076  -3.9006  -3.8916  -3.8886  -3.8666  -3.8582  -3.8484  -3.8396
    -3.8356  -3.8130  -2.6409  -1.7051   2.8646   3.9810   3.9816

          k = 0.0000 0.0833 0.4167 (  6698 PWs)   bands (ev):

    -3.8966  -3.8911  -3.8844  -3.8730  -3.8666  -3.8641  -3.8525  -3.8492
    -3.8458  -3.8247  -2.4252  -1.9380   2.9677   3.5385   4.2840

          k = 0.0000 0.0833-0.5000 (  6712 PWs)   bands (ev):

    -3.8863  -3.8863  -3.8787  -3.8787  -3.8663  -3.8663  -3.8542  -3.8542
    -3.8383  -3.8382  -2.1852  -2.1850   3.1957   3.1957   4.6328

          k = 0.0000 0.1667 0.1667 (  6723 PWs)   bands (ev):

    -3.9193  -3.9148  -3.9116  -3.9026  -3.8782  -3.8436  -3.8373  -3.8335
    -3.8176  -3.7947  -2.8714  -1.4263   2.7861   3.6615   3.8115

          k = 0.0000 0.1667 0.2500 (  6728 PWs)   bands (ev):

    -3.9162  -3.9125  -3.9011  -3.8989  -3.8641  -3.8503  -3.8476  -3.8373
    -3.8280  -3.7956  -2.7417  -1.5402   2.6114   3.8346   4.0440

          k = 0.0000 0.1667 0.3333 (  6717 PWs)   bands (ev):

    -3.9136  -3.9050  -3.8983  -3.8839  -3.8673  -3.8534  -3.8493  -3.8394
    -3.8387  -3.8008  -2.5684  -1.7042   2.5472   3.5511   4.0695

          k = 0.0000 0.1667 0.4167 (  6714 PWs)   bands (ev):

    -3.9071  -3.8979  -3.8949  -3.8832  -3.8704  -3.8593  -3.8485  -3.8429
    -3.8347  -3.8095  -2.3613  -1.9088   2.6158   3.1339   4.3567

          k = 0.0000 0.1667-0.5000 (  6714 PWs)   bands (ev):

    -3.8968  -3.8968  -3.8939  -3.8938  -3.8633  -3.8633  -3.8489  -3.8489
    -3.8212  -3.8211  -2.1351  -2.1350   2.8159   2.8159   4.6846

          k = 0.0000 0.2500 0.2500 (  6715 PWs)   bands (ev):

    -3.9219  -3.9079  -3.9040  -3.8880  -3.8685  -3.8481  -3.8467  -3.8377
    -3.8360  -3.7918  -2.6173  -1.6065   2.3736   3.5430   3.9953

          k = 0.0000 0.2500 0.3333 (  6713 PWs)   bands (ev):

    -3.9234  -3.9057  -3.9046  -3.8859  -3.8749  -3.8484  -3.8434  -3.8381
    -3.8326  -3.7926  -2.4537  -1.7173   2.2451   3.0794   4.2109

          k = 0.0000 0.2500 0.4167 (  6707 PWs)   bands (ev):

    -3.9204  -3.9056  -3.9034  -3.9011  -3.8631  -3.8517  -3.8472  -3.8404
    -3.8184  -3.7976  -2.2630  -1.8735   2.2566   2.6926   4.4712

          k = 0.0000 0.2500-0.5000 (  6726 PWs)   bands (ev):

    -3.9128  -3.9128  -3.9043  -3.9043  -3.8559  -3.8558  -3.8449  -3.8449
    -3.8065  -3.8065  -2.0625  -2.0624   2.4107   2.4107   4.7597

          k = 0.0000 0.3333 0.3333 (  6716 PWs)   bands (ev):

    -3.9289  -3.9115  -3.9071  -3.9026  -3.8636  -3.8458  -3.8454  -3.8380
    -3.8174  -3.7889  -2.3069  -1.7621   2.0409   2.6471   4.3973

          k = 0.0000 0.3333 0.4167 (  6709 PWs)   bands (ev):

    -3.9296  -3.9161  -3.9143  -3.9109  -3.8535  -3.8455  -3.8455  -3.8389
    -3.8047  -3.7899  -2.1434  -1.8514   1.9772   2.2987   4.6143

          k = 0.0000 0.3333-0.5000 (  6708 PWs)   bands (ev):

    -3.9253  -3.9253  -3.9139  -3.9139  -3.8479  -3.8478  -3.8421  -3.8421
    -3.7953  -3.7953  -1.9840  -1.9839   2.0669   2.0669   4.8413

          k = 0.0000 0.4167 0.4167 (  6700 PWs)   bands (ev):

    -3.9340  -3.9271  -3.9195  -3.9173  -3.8452  -3.8437  -3.8426  -3.8382
    -3.7945  -3.7868  -2.0219  -1.8634   1.8286   2.0014   4.7677

          k = 0.0000 0.4167-0.5000 (  6714 PWs)   bands (ev):

    -3.9332  -3.9332  -3.9205  -3.9205  -3.8426  -3.8426  -3.8398  -3.8398
    -3.7884  -3.7884  -1.9220  -1.9219   1.8370   1.8370   4.9059

          k = 0.0000-0.5000-0.5000 (  6728 PWs)   bands (ev):

    -3.9359  -3.9359  -3.9229  -3.9229  -3.8414  -3.8413  -3.8383  -3.8383
    -3.7860  -3.7860  -1.8983  -1.8981   1.7559   1.7559   4.9306

          k = 0.0833 0.0833 0.0833 (  6730 PWs)   bands (ev):

    -3.9268  -3.9268  -3.9086  -3.9086  -3.8947  -3.8384  -3.8384  -3.8149
    -3.7995  -3.7995  -3.0050  -1.3005   3.2225   3.2225   3.6828

          k = 0.0833 0.0833 0.1667 (  6731 PWs)   bands (ev):

    -3.9222  -3.9173  -3.9108  -3.9053  -3.8853  -3.8424  -3.8373  -3.8276
    -3.8072  -3.7988  -2.9245  -1.3807   2.9890   3.3341   3.8830

          k = 0.0833 0.0833 0.2500 (  6726 PWs)   bands (ev):

    -3.9150  -3.9102  -3.9034  -3.8999  -3.8739  -3.8487  -3.8426  -3.8370
    -3.8189  -3.8023  -2.7931  -1.5165   2.8272   3.5172   4.1036

          k = 0.0833 0.0833 0.3333 (  6701 PWs)   bands (ev):

    -3.9064  -3.9058  -3.8924  -3.8878  -3.8612  -3.8580  -3.8565  -3.8390
    -3.8330  -3.8096  -2.6165  -1.7033   2.7810   3.7672   3.8412

          k = 0.0833 0.0833 0.4167 (  6700 PWs)   bands (ev):

    -3.8992  -3.8956  -3.8852  -3.8784  -3.8668  -3.8631  -3.8509  -3.8475
    -3.8414  -3.8198  -2.4036  -1.9273   2.8667   3.4118   4.0776

          k = 0.0833 0.0833-0.5000 (  6728 PWs)   bands (ev):

    -3.8889  -3.8889  -3.8866  -3.8865  -3.8599  -3.8599  -3.8566  -3.8566
    -3.8318  -3.8318  -2.1679  -2.1678   3.0812   3.0813   4.4396

          k = 0.0833 0.1667 0.1667 (  6728 PWs)   bands (ev):

    -3.9161  -3.9138  -3.9105  -3.9053  -3.8744  -3.8428  -3.8425  -3.8382
    -3.8118  -3.7974  -2.8451  -1.4402   2.8240   3.3099   4.1486

          k = 0.0833 0.1667 0.2500 (  6734 PWs)   bands (ev):

    -3.9161  -3.9096  -3.9025  -3.8980  -3.8617  -3.8587  -3.8467  -3.8377
    -3.8223  -3.7978  -2.7165  -1.5467   2.6342   3.4625   3.9619

          k = 0.0833 0.1667 0.3333 (  6704 PWs)   bands (ev):

    -3.9155  -3.9025  -3.8978  -3.8847  -3.8731  -3.8524  -3.8490  -3.8376
    -3.8348  -3.8019  -2.5450  -1.7023   2.5487   3.4897   3.7014

          k = 0.0833 0.1667 0.4167 (  6716 PWs)   bands (ev):

    -3.9112  -3.8966  -3.8926  -3.8900  -3.8672  -3.8573  -3.8464  -3.8454
    -3.8317  -3.8096  -2.3410  -1.8991   2.5989   3.0876   4.0058

          k = 0.0833 0.1667-0.5000 (  6704 PWs)   bands (ev):

    -3.9034  -3.9034  -3.8906  -3.8906  -3.8595  -3.8595  -3.8504  -3.8504
    -3.8200  -3.8200  -2.1192  -2.1191   2.7835   2.7835   4.3637

          k = 0.0833 0.2500 0.2500 (  6708 PWs)   bands (ev):

    -3.9208  -3.9049  -3.9046  -3.8875  -3.8754  -3.8485  -3.8449  -3.8381
    -3.8306  -3.7946  -2.5936  -1.6092   2.4122   3.5020   3.5787

          k = 0.0833 0.2500 0.3333 (  6702 PWs)   bands (ev):

    -3.9230  -3.9047  -3.9028  -3.8901  -3.8742  -3.8478  -3.8395  -3.8392
    -3.8322  -3.7952  -2.4322  -1.7148   2.2779   3.0611   3.7943

          k = 0.0833 0.2500 0.4167 (  6712 PWs)   bands (ev):

    -3.9217  -3.9081  -3.9028  -3.8969  -3.8620  -3.8507  -3.8455  -3.8413
    -3.8192  -3.7998  -2.2447  -1.8651   2.2784   2.6895   4.0789

          k = 0.0833 0.2500-0.5000 (  6706 PWs)   bands (ev):

    -3.9165  -3.9165  -3.8996  -3.8996  -3.8543  -3.8543  -3.8454  -3.8453
    -3.8080  -3.8080  -2.0486  -2.0485   2.4204   2.4204   4.4142

          k = 0.0833 0.3333 0.3333 (  6712 PWs)   bands (ev):

    -3.9277  -3.9103  -3.9100  -3.8989  -3.8635  -3.8451  -3.8433  -3.8382
    -3.8191  -3.7920  -2.2880  -1.7577   2.0802   2.6516   3.9851

          k = 0.0833 0.3333 0.4167 (  6704 PWs)   bands (ev):

    -3.9289  -3.9198  -3.9117  -3.9049  -3.8533  -3.8451  -3.8443  -3.8391
    -3.8072  -3.7930  -2.1279  -1.8438   2.0135   2.3173   4.2394

          k = 0.0833 0.3333-0.5000 (  6718 PWs)   bands (ev):

    -3.9264  -3.9264  -3.9096  -3.9096  -3.8472  -3.8471  -3.8422  -3.8421
    -3.7982  -3.7982  -1.9724  -1.9723   2.0958   2.0958   4.5295

          k = 0.0833 0.4167 0.4167 (  6712 PWs)   bands (ev):

    -3.9326  -3.9282  -3.9169  -3.9125  -3.8452  -3.8429  -3.8423  -3.8382
    -3.7978  -3.7903  -2.0094  -1.8555   1.8686   2.0321   4.4455

          k = 0.0833 0.4167-0.5000 (  6716 PWs)   bands (ev):

    -3.9324  -3.9324  -3.9171  -3.9171  -3.8422  -3.8421  -3.8398  -3.8398
    -3.7920  -3.7920  -1.9124  -1.9122   1.8746   1.8746   4.6504

          k = 0.0833-0.5000-0.5000 (  6700 PWs)   bands (ev):

    -3.9344  -3.9344  -3.9199  -3.9199  -3.8410  -3.8410  -3.8383  -3.8382
    -3.7898  -3.7898  -1.8894  -1.8892   1.7962   1.7962   4.7052

          k = 0.1667 0.1667 0.1667 (  6736 PWs)   bands (ev):

    -3.9109  -3.9109  -3.9073  -3.9073  -3.8656  -3.8579  -3.8408  -3.8408
    -3.8051  -3.8051  -2.7674  -1.4854   2.9368   2.9368   4.1392

          k = 0.1667 0.1667 0.2500 (  6707 PWs)   bands (ev):

    -3.9159  -3.9059  -3.9023  -3.8948  -3.8738  -3.8548  -3.8448  -3.8387
    -3.8167  -3.8022  -2.6423  -1.5701   2.6584   3.1221   3.7184

          k = 0.1667 0.1667 0.3333 (  6720 PWs)   bands (ev):

    -3.9187  -3.8993  -3.8964  -3.8920  -3.8773  -3.8495  -3.8460  -3.8354
    -3.8301  -3.8034  -2.4768  -1.7006   2.5129   3.2950   3.3762

          k = 0.1667 0.1667 0.4167 (  6721 PWs)   bands (ev):

    -3.9179  -3.9039  -3.8924  -3.8910  -3.8643  -3.8530  -3.8464  -3.8429
    -3.8266  -3.8084  -2.2822  -1.8736   2.5153   2.9297   3.6935

          k = 0.1667 0.1667-0.5000 (  6666 PWs)   bands (ev):

    -3.9129  -3.9129  -3.8889  -3.8889  -3.8533  -3.8532  -3.8515  -3.8515
    -3.8166  -3.8165  -2.0744  -2.0743   2.6606   2.6606   4.0672

          k = 0.1667 0.2500 0.2500 (  6692 PWs)   bands (ev):

    -3.9177  -3.9071  -3.8971  -3.8882  -3.8860  -3.8462  -3.8424  -3.8394
    -3.8214  -3.8026  -2.5239  -1.6209   2.5271   3.1014   3.3645

          k = 0.1667 0.2500 0.3333 (  6708 PWs)   bands (ev):

    -3.9214  -3.9049  -3.9037  -3.8906  -3.8729  -3.8462  -3.8407  -3.8320
    -3.8316  -3.8023  -2.3695  -1.7104   2.3684   2.9892   3.3081

          k = 0.1667 0.2500 0.4167 (  6720 PWs)   bands (ev):

    -3.9233  -3.9151  -3.8979  -3.8899  -3.8603  -3.8482  -3.8431  -3.8415
    -3.8206  -3.8051  -2.1921  -1.8428   2.3301   2.6633   3.6088

          k = 0.1667 0.2500-0.5000 (  6704 PWs)   bands (ev):

    -3.9214  -3.9214  -3.8924  -3.8924  -3.8511  -3.8510  -3.8460  -3.8460
    -3.8115  -3.8115  -2.0096  -2.0095   2.4333   2.4333   3.9730

          k = 0.1667 0.3333 0.3333 (  6716 PWs)   bands (ev):

    -3.9239  -3.9160  -3.9069  -3.8904  -3.8633  -3.8442  -3.8386  -3.8373
    -3.8232  -3.8007  -2.2332  -1.7472   2.1976   2.6531   3.4545

          k = 0.1667 0.3333 0.4167 (  6696 PWs)   bands (ev):

    -3.9265  -3.9236  -3.9054  -3.8944  -3.8530  -3.8438  -3.8413  -3.8397
    -3.8137  -3.8016  -2.0833  -1.8234   2.1197   2.3651   3.7151

          k = 0.1667 0.3333-0.5000 (  6696 PWs)   bands (ev):

    -3.9269  -3.9269  -3.9004  -3.9004  -3.8456  -3.8456  -3.8423  -3.8422
    -3.8061  -3.8061  -1.9399  -1.9398   2.1771   2.1771   4.0408

          k = 0.1667 0.4167 0.4167 (  6700 PWs)   bands (ev):

    -3.9283  -3.9282  -3.9099  -3.9019  -3.8453  -3.8415  -3.8410  -3.8382
    -3.8069  -3.8003  -1.9739  -1.8338   1.9878   2.1206   3.9272

          k = 0.1667 0.4167-0.5000 (  6696 PWs)   bands (ev):

    -3.9293  -3.9293  -3.9083  -3.9083  -3.8410  -3.8410  -3.8398  -3.8398
    -3.8021  -3.8021  -1.8852  -1.8851   1.9858   1.9858   4.1756

          k = 0.1667-0.5000-0.5000 (  6696 PWs)   bands (ev):

    -3.9297  -3.9297  -3.9117  -3.9117  -3.8401  -3.8401  -3.8382  -3.8381
    -3.8006  -3.8006  -1.8643  -1.8642   1.9160   1.9160   4.2522

          k = 0.2500 0.2500 0.2500 (  6698 PWs)   bands (ev):

    -3.9124  -3.9124  -3.9029  -3.8839  -3.8839  -3.8414  -3.8414  -3.8390
    -3.8142  -3.8142  -2.4135  -1.6516   2.7162   2.7162   3.1248

          k = 0.2500 0.2500 0.3333 (  6711 PWs)   bands (ev):

    -3.9186  -3.9140  -3.9050  -3.8824  -3.8707  -3.8436  -3.8407  -3.8305
    -3.8271  -3.8105  -2.2715  -1.7138   2.4610   2.8354   2.9758

          k = 0.2500 0.2500 0.4167 (  6712 PWs)   bands (ev):

    -3.9233  -3.9215  -3.8962  -3.8831  -3.8585  -3.8451  -3.8431  -3.8381
    -3.8216  -3.8107  -2.1120  -1.8155   2.3558   2.5737   3.3012

          k = 0.2500 0.2500-0.5000 (  6718 PWs)   bands (ev):

    -3.9245  -3.9245  -3.8880  -3.8880  -3.8490  -3.8489  -3.8441  -3.8441
    -3.8146  -3.8146  -1.9533  -1.9532   2.4004   2.4005   3.6863

          k = 0.2500 0.3333 0.3333 (  6701 PWs)   bands (ev):

    -3.9215  -3.9175  -3.9055  -3.8787  -3.8637  -3.8424  -3.8392  -3.8309
    -3.8272  -3.8131  -2.1486  -1.7387   2.3905   2.6198   2.9980

          k = 0.2500 0.3333 0.4167 (  6712 PWs)   bands (ev):

    -3.9253  -3.9215  -3.8993  -3.8824  -3.8535  -3.8422  -3.8404  -3.8377
    -3.8214  -3.8135  -2.0161  -1.7974   2.2836   2.4148   3.2655

          k = 0.2500 0.3333-0.5000 (  6712 PWs)   bands (ev):

    -3.9251  -3.9251  -3.8903  -3.8903  -3.8453  -3.8452  -3.8413  -3.8412
    -3.8162  -3.8162  -1.8931  -1.8930   2.2894   2.2894   3.6246

          k = 0.2500 0.4167 0.4167 (  6712 PWs)   bands (ev):

    -3.9258  -3.9206  -3.9014  -3.8886  -3.8461  -3.8405  -3.8386  -3.8382
    -3.8196  -3.8147  -1.9213  -1.8041   2.1837   2.2533   3.4472

          k = 0.2500 0.4167-0.5000 (  6704 PWs)   bands (ev):

    -3.9233  -3.9233  -3.8968  -3.8968  -3.8403  -3.8402  -3.8395  -3.8395
    -3.8167  -3.8167  -1.8461  -1.8460   2.1648   2.1648   3.7205

          k = 0.2500-0.5000-0.5000 (  6696 PWs)   bands (ev):

    -3.9217  -3.9217  -3.9005  -3.9005  -3.8390  -3.8390  -3.8380  -3.8380
    -3.8168  -3.8168  -1.8283  -1.8281   2.1130   2.1130   3.8002

          k = 0.3333 0.3333 0.3333 (  6713 PWs)   bands (ev):

    -3.9246  -3.9084  -3.9084  -3.8659  -3.8659  -3.8399  -3.8399  -3.8294
    -3.8262  -3.8262  -2.0449  -1.7445   2.5314   2.6556   2.6556

          k = 0.3333 0.3333 0.4167 (  6714 PWs)   bands (ev):

    -3.9243  -3.9145  -3.8969  -3.8727  -3.8544  -3.8403  -3.8403  -3.8356
    -3.8280  -3.8242  -1.9372  -1.7773   2.4270   2.4488   2.9882

          k = 0.3333 0.3333-0.5000 (  6720 PWs)   bands (ev):

    -3.9206  -3.9206  -3.8841  -3.8841  -3.8455  -3.8455  -3.8396  -3.8395
    -3.8252  -3.8251  -1.8433  -1.8431   2.3806   2.3806   3.3826

          k = 0.3333 0.4167 0.4167 (  6718 PWs)   bands (ev):

    -3.9203  -3.9099  -3.8954  -3.8748  -3.8500  -3.8398  -3.8383  -3.8368
    -3.8325  -3.8291  -1.8615  -1.7764   2.4003   2.4527   3.0612

          k = 0.3333 0.4167-0.5000 (  6730 PWs)   bands (ev):

    -3.9142  -3.9142  -3.8858  -3.8857  -3.8426  -3.8426  -3.8385  -3.8384
    -3.8316  -3.8316  -1.8045  -1.8044   2.3961   2.3961   3.3704

          k = 0.3333-0.5000-0.5000 (  6728 PWs)   bands (ev):

    -3.9102  -3.9102  -3.8891  -3.8891  -3.8381  -3.8381  -3.8379  -3.8378
    -3.8365  -3.8365  -1.7899  -1.7897   2.3835   2.3835   3.4378

          k = 0.4167 0.4167 0.4167 (  6725 PWs)   bands (ev):

    -3.9123  -3.8960  -3.8960  -3.8624  -3.8624  -3.8436  -3.8382  -3.8382
    -3.8362  -3.8362  -1.8076  -1.7626   2.5216   2.7903   2.7903

          k = 0.4167 0.4167-0.5000 (  6746 PWs)   bands (ev):

    -3.9030  -3.9030  -3.8795  -3.8795  -3.8523  -3.8523  -3.8379  -3.8379
    -3.8371  -3.8370  -1.7723  -1.7722   2.6271   2.6271   3.1908

          k = 0.4167-0.5000-0.5000 (  6748 PWs)   bands (ev):

    -3.8953  -3.8953  -3.8806  -3.8806  -3.8573  -3.8573  -3.8378  -3.8378
    -3.8377  -3.8377  -1.7601  -1.7600   2.7228   2.7228   3.2055

          k =-0.5000-0.5000-0.5000 (  6776 PWs)   bands (ev):

    -3.8774  -3.8774  -3.8774  -3.8774  -3.8774  -3.8774  -3.8377  -3.8377
    -3.8377  -3.8377  -1.7489  -1.7487   3.1255   3.1255   3.1255

     the Fermi energy is    -0.8053 ev

!    total energy              =   -1550.19877347 Ry

     total all-electron energy =    -76047.890956 Ry
     estimated scf accuracy    <       0.00000009 Ry
     smearing contrib. (-TS)   =      -0.55675781 Ry
     internal energy E=F+TS    =   -1549.64201567 Ry

     The total energy is F=E-TS. E is the sum of the following terms:
     one-electron contribution =     -65.25632575 Ry
     hartree contribution      =      48.69959829 Ry
     xc contribution           =     -63.42880640 Ry
     ewald contribution        =     -84.69443587 Ry
     one-center paw contrib.   =   -1384.96204593 Ry

     convergence has been achieved in  12 iterations

     Forces acting on atoms (cartesian axes, Ry/au):

     atom    1 type  1   force =     0.00000000    0.00000000    0.00000000
     atom    2 type  1   force =     0.00000000    0.00000000    0.00000000

     Total force =     0.000000     Total SCF correction =     0.000000

     Writing all to output data dir ./pwscf.save/
 
     init_run     :      0.69s CPU      1.08s WALL (       1 calls)
     electrons    :     23.18s CPU     24.20s WALL (       1 calls)
     forces       :      0.17s CPU      0.31s WALL (       1 calls)

     Called by init_run:
     wfcinit      :      0.49s CPU      0.50s WALL (       1 calls)
     potinit      :      0.04s CPU      0.28s WALL (       1 calls)
     hinit0       :      0.11s CPU      0.14s WALL (       1 calls)

     Called by electrons:
     c_bands      :     20.37s CPU     20.67s WALL (      13 calls)
     sum_band     :      2.24s CPU      2.45s WALL (      13 calls)
     v_of_rho     :      0.12s CPU      0.73s WALL (      13 calls)
     newd         :      0.09s CPU      0.18s WALL (      13 calls)
     PAW_pot      :      0.37s CPU      0.38s WALL (      13 calls)
     mix_rho      :      0.01s CPU      0.01s WALL (      13 calls)

     Called by c_bands:
     init_us_2    :      0.23s CPU      0.23s WALL (    2352 calls)
     init_us_2:cp :      0.22s CPU      0.23s WALL (    2352 calls)
     cegterg      :     19.27s CPU     19.54s WALL (    1092 calls)

     Called by *egterg:
     cdiaghg      :      3.53s CPU      3.57s WALL (    4484 calls)
     h_psi        :     12.22s CPU     12.41s WALL (    4652 calls)
     s_psi        :      0.38s CPU      0.38s WALL (    4652 calls)
     g_psi        :      0.07s CPU      0.07s WALL (    3476 calls)

     Called by h_psi:
     h_psi:calbec :      0.52s CPU      0.53s WALL (    4652 calls)
     vloc_psi     :     11.29s CPU     11.46s WALL (    4652 calls)
     add_vuspsi   :      0.37s CPU      0.38s WALL (    4652 calls)

     General routines
     calbec       :      0.69s CPU      0.71s WALL (    6080 calls)
     fft          :      0.19s CPU      1.09s WALL (     155 calls)
     ffts         :      0.03s CPU      0.07s WALL (      13 calls)
     fftw         :     12.20s CPU     12.40s WALL (  128962 calls)
 
     Parallel routines
 
     PWSCF        :     25.44s CPU     28.33s WALL

 
   This run was terminated on:  11:27:50   6Apr2024            

=------------------------------------------------------------------------------=
   JOB DONE.
=------------------------------------------------------------------------------=
