MPI startup(): Warning: I_MPI_PMI_LIBRARY will be ignored since the hydra process manager was found
MPI startup(): Warning: I_MPI_PMI_LIBRARY will be ignored since the hydra process manager was found
MPI startup(): Warning: I_MPI_PMI_LIBRARY will be ignored since the hydra process manager was found
MPI startup(): Warning: I_MPI_PMI_LIBRARY will be ignored since the hydra process manager was found
MPI startup(): Warning: I_MPI_PMI_LIBRARY will be ignored since the hydra process manager was found
MPI startup(): Warning: I_MPI_PMI_LIBRARY will be ignored since the hydra process manager was found
MPI startup(): Warning: I_MPI_PMI_LIBRARY will be ignored since the hydra process manager was found
MPI startup(): Warning: I_MPI_PMI_LIBRARY will be ignored since the hydra process manager was found
MPI startup(): Warning: I_MPI_PMI_LIBRARY will be ignored since the hydra process manager was found
MPI startup(): Warning: I_MPI_PMI_LIBRARY will be ignored since the hydra process manager was found

     Program PWSCF v.7.0 starts on  6Apr2024 at 11:26:55 

     This program is part of the open-source Quantum ESPRESSO suite
     for quantum simulation of materials; please cite
         "P. Giannozzi et al., J. Phys.:Condens. Matter 21 395502 (2009);
         "P. Giannozzi et al., J. Phys.:Condens. Matter 29 465901 (2017);
         "P. Giannozzi et al., J. Chem. Phys. 152 154105 (2020);
          URL http://www.quantum-espresso.org", 
     in publications or presentations arising from this work. More details at
     http://www.quantum-espresso.org/quote

     Parallel version (MPI), running on    10 processors

     MPI processes distributed on     1 nodes
     R & G space division:  proc/nbgrp/npool/nimage =      10
     193347 MiB available memory on the printing compute node when the environment starts
 
     Reading input from VolumeBCC_9.7.in
Warning: card &CELL ignored
Warning: card / ignored

     Current dimensions of program PWSCF are:
     Max number of different atomic species (ntypx) = 10
     Max number of k-points (npk) =  40000
     Max angular momentum in pseudopotentials (lmaxx) =  4
     file Au.pbe-n-kjpaw_psl.1.0.0.UPF: wavefunction(s)  6S 5D renormalized
     Found identity + (  0.5000  0.5000  0.5000) symmetry
     This is a supercell, fractional translations are disabled
     Message from routine setup:
     using ibrav=0 with symmetry is DISCOURAGED, use correct ibrav instead

     Subspace diagonalization in iterative solution of the eigenvalue problem:
     one sub-group per band group will be used
     scalapack distributed-memory algorithm (size of sub-group:  3*  3 procs)

 
     Parallelization info
     --------------------
     sticks:   dense  smooth     PW     G-vecs:    dense   smooth      PW
     Min         148     148     43                 4350     4350     685
     Max         149     149     44                 4355     4355     688
     Sum        1481    1481    437                43507    43507    6859
 
     Using Slab Decomposition
 


     bravais-lattice index     =            0
     lattice parameter (alat)  =       9.6986  a.u.
     unit-cell volume          =     912.2763 (a.u.)^3
     number of atoms/cell      =            2
     number of atomic types    =            1
     number of electrons       =        22.00
     number of Kohn-Sham states=           15
     kinetic-energy cutoff     =      50.0000  Ry
     charge density cutoff     =     200.0000  Ry
     scf convergence threshold =      1.0E-06
     mixing beta               =       0.7000
     number of iterations used =            8  plain     mixing
     Exchange-correlation= SLA  PW   PBX  PBC
                           (   1   4   3   4   0   0   0)

     celldm(1)=   9.698594  celldm(2)=   0.000000  celldm(3)=   0.000000
     celldm(4)=   0.000000  celldm(5)=   0.000000  celldm(6)=   0.000000

     crystal axes: (cart. coord. in units of alat)
               a(1) = (   1.000000   0.000000   0.000000 )  
               a(2) = (   0.000000   1.000000   0.000000 )  
               a(3) = (   0.000000   0.000000   1.000000 )  

     reciprocal axes: (cart. coord. in units 2 pi/alat)
               b(1) = (  1.000000  0.000000  0.000000 )  
               b(2) = (  0.000000  1.000000  0.000000 )  
               b(3) = (  0.000000  0.000000  1.000000 )  


     PseudoPot. # 1 for Au read from file:
     ./Au.pbe-n-kjpaw_psl.1.0.0.UPF
     MD5 check sum: 4db85c736373c707a97ce4c36c2a9d23
     Pseudo is Projector augmented-wave + core cor, Zval = 11.0
     Generated using &quot;atomic&quot; code by A. Dal Corso  v.6.3
     Shape of augmentation charge: PSQ
     Using radial grid of 1279 points,  6 beta functions with: 
                l(1) =   0
                l(2) =   0
                l(3) =   1
                l(4) =   1
                l(5) =   2
                l(6) =   2
     Q(r) pseudized with 0 coefficients 


     atomic species   valence    mass     pseudopotential
        Au            11.00   196.96657     Au( 1.00)

     48 Sym. Ops., with inversion, found



   Cartesian axes

     site n.     atom                  positions (alat units)
         1           Au  tau(   1) = (   0.0000000   0.0000000   0.0000000  )
         2           Au  tau(   2) = (   0.5000000   0.5000000   0.5000000  )

     number of k points=    84  Gaussian smearing, width (Ry)=  0.2000
                       cart. coord. in units 2pi/alat
        k(    1) = (   0.0000000   0.0000000   0.0000000), wk =   0.0011574
        k(    2) = (   0.0000000   0.0000000   0.0833333), wk =   0.0069444
        k(    3) = (   0.0000000   0.0000000   0.1666667), wk =   0.0069444
        k(    4) = (   0.0000000   0.0000000   0.2500000), wk =   0.0069444
        k(    5) = (   0.0000000   0.0000000   0.3333333), wk =   0.0069444
        k(    6) = (   0.0000000   0.0000000   0.4166667), wk =   0.0069444
        k(    7) = (   0.0000000   0.0000000  -0.5000000), wk =   0.0034722
        k(    8) = (   0.0000000   0.0833333   0.0833333), wk =   0.0138889
        k(    9) = (   0.0000000   0.0833333   0.1666667), wk =   0.0277778
        k(   10) = (   0.0000000   0.0833333   0.2500000), wk =   0.0277778
        k(   11) = (   0.0000000   0.0833333   0.3333333), wk =   0.0277778
        k(   12) = (   0.0000000   0.0833333   0.4166667), wk =   0.0277778
        k(   13) = (   0.0000000   0.0833333  -0.5000000), wk =   0.0138889
        k(   14) = (   0.0000000   0.1666667   0.1666667), wk =   0.0138889
        k(   15) = (   0.0000000   0.1666667   0.2500000), wk =   0.0277778
        k(   16) = (   0.0000000   0.1666667   0.3333333), wk =   0.0277778
        k(   17) = (   0.0000000   0.1666667   0.4166667), wk =   0.0277778
        k(   18) = (   0.0000000   0.1666667  -0.5000000), wk =   0.0138889
        k(   19) = (   0.0000000   0.2500000   0.2500000), wk =   0.0138889
        k(   20) = (   0.0000000   0.2500000   0.3333333), wk =   0.0277778
        k(   21) = (   0.0000000   0.2500000   0.4166667), wk =   0.0277778
        k(   22) = (   0.0000000   0.2500000  -0.5000000), wk =   0.0138889
        k(   23) = (   0.0000000   0.3333333   0.3333333), wk =   0.0138889
        k(   24) = (   0.0000000   0.3333333   0.4166667), wk =   0.0277778
        k(   25) = (   0.0000000   0.3333333  -0.5000000), wk =   0.0138889
        k(   26) = (   0.0000000   0.4166667   0.4166667), wk =   0.0138889
        k(   27) = (   0.0000000   0.4166667  -0.5000000), wk =   0.0138889
        k(   28) = (   0.0000000  -0.5000000  -0.5000000), wk =   0.0034722
        k(   29) = (   0.0833333   0.0833333   0.0833333), wk =   0.0092593
        k(   30) = (   0.0833333   0.0833333   0.1666667), wk =   0.0277778
        k(   31) = (   0.0833333   0.0833333   0.2500000), wk =   0.0277778
        k(   32) = (   0.0833333   0.0833333   0.3333333), wk =   0.0277778
        k(   33) = (   0.0833333   0.0833333   0.4166667), wk =   0.0277778
        k(   34) = (   0.0833333   0.0833333  -0.5000000), wk =   0.0138889
        k(   35) = (   0.0833333   0.1666667   0.1666667), wk =   0.0277778
        k(   36) = (   0.0833333   0.1666667   0.2500000), wk =   0.0555556
        k(   37) = (   0.0833333   0.1666667   0.3333333), wk =   0.0555556
        k(   38) = (   0.0833333   0.1666667   0.4166667), wk =   0.0555556
        k(   39) = (   0.0833333   0.1666667  -0.5000000), wk =   0.0277778
        k(   40) = (   0.0833333   0.2500000   0.2500000), wk =   0.0277778
        k(   41) = (   0.0833333   0.2500000   0.3333333), wk =   0.0555556
        k(   42) = (   0.0833333   0.2500000   0.4166667), wk =   0.0555556
        k(   43) = (   0.0833333   0.2500000  -0.5000000), wk =   0.0277778
        k(   44) = (   0.0833333   0.3333333   0.3333333), wk =   0.0277778
        k(   45) = (   0.0833333   0.3333333   0.4166667), wk =   0.0555556
        k(   46) = (   0.0833333   0.3333333  -0.5000000), wk =   0.0277778
        k(   47) = (   0.0833333   0.4166667   0.4166667), wk =   0.0277778
        k(   48) = (   0.0833333   0.4166667  -0.5000000), wk =   0.0277778
        k(   49) = (   0.0833333  -0.5000000  -0.5000000), wk =   0.0069444
        k(   50) = (   0.1666667   0.1666667   0.1666667), wk =   0.0092593
        k(   51) = (   0.1666667   0.1666667   0.2500000), wk =   0.0277778
        k(   52) = (   0.1666667   0.1666667   0.3333333), wk =   0.0277778
        k(   53) = (   0.1666667   0.1666667   0.4166667), wk =   0.0277778
        k(   54) = (   0.1666667   0.1666667  -0.5000000), wk =   0.0138889
        k(   55) = (   0.1666667   0.2500000   0.2500000), wk =   0.0277778
        k(   56) = (   0.1666667   0.2500000   0.3333333), wk =   0.0555556
        k(   57) = (   0.1666667   0.2500000   0.4166667), wk =   0.0555556
        k(   58) = (   0.1666667   0.2500000  -0.5000000), wk =   0.0277778
        k(   59) = (   0.1666667   0.3333333   0.3333333), wk =   0.0277778
        k(   60) = (   0.1666667   0.3333333   0.4166667), wk =   0.0555556
        k(   61) = (   0.1666667   0.3333333  -0.5000000), wk =   0.0277778
        k(   62) = (   0.1666667   0.4166667   0.4166667), wk =   0.0277778
        k(   63) = (   0.1666667   0.4166667  -0.5000000), wk =   0.0277778
        k(   64) = (   0.1666667  -0.5000000  -0.5000000), wk =   0.0069444
        k(   65) = (   0.2500000   0.2500000   0.2500000), wk =   0.0092593
        k(   66) = (   0.2500000   0.2500000   0.3333333), wk =   0.0277778
        k(   67) = (   0.2500000   0.2500000   0.4166667), wk =   0.0277778
        k(   68) = (   0.2500000   0.2500000  -0.5000000), wk =   0.0138889
        k(   69) = (   0.2500000   0.3333333   0.3333333), wk =   0.0277778
        k(   70) = (   0.2500000   0.3333333   0.4166667), wk =   0.0555556
        k(   71) = (   0.2500000   0.3333333  -0.5000000), wk =   0.0277778
        k(   72) = (   0.2500000   0.4166667   0.4166667), wk =   0.0277778
        k(   73) = (   0.2500000   0.4166667  -0.5000000), wk =   0.0277778
        k(   74) = (   0.2500000  -0.5000000  -0.5000000), wk =   0.0069444
        k(   75) = (   0.3333333   0.3333333   0.3333333), wk =   0.0092593
        k(   76) = (   0.3333333   0.3333333   0.4166667), wk =   0.0277778
        k(   77) = (   0.3333333   0.3333333  -0.5000000), wk =   0.0138889
        k(   78) = (   0.3333333   0.4166667   0.4166667), wk =   0.0277778
        k(   79) = (   0.3333333   0.4166667  -0.5000000), wk =   0.0277778
        k(   80) = (   0.3333333  -0.5000000  -0.5000000), wk =   0.0069444
        k(   81) = (   0.4166667   0.4166667   0.4166667), wk =   0.0092593
        k(   82) = (   0.4166667   0.4166667  -0.5000000), wk =   0.0138889
        k(   83) = (   0.4166667  -0.5000000  -0.5000000), wk =   0.0069444
        k(   84) = (  -0.5000000  -0.5000000  -0.5000000), wk =   0.0011574

     Dense  grid:    43507 G-vectors     FFT dimensions: (  45,  45,  45)

     Estimated max dynamical RAM per process >      27.18 MB

     Estimated total dynamical RAM >     271.81 MB

     Initial potential from superposition of free atoms

     starting charge      21.9998, renormalised to      22.0000
     Starting wfcs are   18 randomized atomic wfcs
     Checking if some PAW data can be deallocated... 

     total cpu time spent up to now is        1.0 secs

     Self-consistent Calculation

     iteration #  1     ecut=    50.00 Ry     beta= 0.70
     Davidson diagonalization with overlap
     ethr =  1.00E-02,  avg # of iterations =  2.4

     Threshold (ethr) on eigenvalues was too large:
     Diagonalizing with lowered threshold

     Davidson diagonalization with overlap
     ethr =  7.90E-04,  avg # of iterations =  2.4

     total cpu time spent up to now is        3.5 secs

     total energy              =   -1550.11503178 Ry
     estimated scf accuracy    <       0.17400501 Ry

     iteration #  2     ecut=    50.00 Ry     beta= 0.70
     Davidson diagonalization with overlap
     ethr =  7.91E-04,  avg # of iterations =  2.0

     total cpu time spent up to now is        5.0 secs

     total energy              =   -1550.18416427 Ry
     estimated scf accuracy    <       0.16329921 Ry

     iteration #  3     ecut=    50.00 Ry     beta= 0.70
     Davidson diagonalization with overlap
     ethr =  7.42E-04,  avg # of iterations =  1.0

     total cpu time spent up to now is        6.1 secs

     total energy              =   -1550.20446309 Ry
     estimated scf accuracy    <       0.00866797 Ry

     iteration #  4     ecut=    50.00 Ry     beta= 0.70
     Davidson diagonalization with overlap
     ethr =  3.94E-05,  avg # of iterations =  2.5

     total cpu time spent up to now is        7.5 secs

     total energy              =   -1550.20443300 Ry
     estimated scf accuracy    <       0.00274408 Ry

     iteration #  5     ecut=    50.00 Ry     beta= 0.70
     Davidson diagonalization with overlap
     ethr =  1.25E-05,  avg # of iterations =  5.7

     total cpu time spent up to now is       10.0 secs

     total energy              =   -1550.20270477 Ry
     estimated scf accuracy    <       0.02204501 Ry

     iteration #  6     ecut=    50.00 Ry     beta= 0.70
     Davidson diagonalization with overlap
     ethr =  1.25E-05,  avg # of iterations =  3.1

     total cpu time spent up to now is       11.6 secs

     total energy              =   -1550.20660504 Ry
     estimated scf accuracy    <       0.00020276 Ry

     iteration #  7     ecut=    50.00 Ry     beta= 0.70
     Davidson diagonalization with overlap
     ethr =  9.22E-07,  avg # of iterations =  4.4

     total cpu time spent up to now is       13.6 secs

     total energy              =   -1550.20657921 Ry
     estimated scf accuracy    <       0.00016531 Ry

     iteration #  8     ecut=    50.00 Ry     beta= 0.70
     Davidson diagonalization with overlap
     ethr =  7.51E-07,  avg # of iterations =  5.3

     total cpu time spent up to now is       15.8 secs

     total energy              =   -1550.20674510 Ry
     estimated scf accuracy    <       0.00044901 Ry

     iteration #  9     ecut=    50.00 Ry     beta= 0.70
     Davidson diagonalization with overlap
     ethr =  7.51E-07,  avg # of iterations =  1.1

     total cpu time spent up to now is       16.9 secs

     total energy              =   -1550.20670281 Ry
     estimated scf accuracy    <       0.00022177 Ry

     iteration # 10     ecut=    50.00 Ry     beta= 0.70
     Davidson diagonalization with overlap
     ethr =  7.51E-07,  avg # of iterations =  1.0

     total cpu time spent up to now is       17.9 secs

     total energy              =   -1550.20664566 Ry
     estimated scf accuracy    <       0.00009335 Ry

     iteration # 11     ecut=    50.00 Ry     beta= 0.70
     Davidson diagonalization with overlap
     ethr =  4.24E-07,  avg # of iterations =  2.3

     total cpu time spent up to now is       19.3 secs

     total energy              =   -1550.20668963 Ry
     estimated scf accuracy    <       0.00001856 Ry

     iteration # 12     ecut=    50.00 Ry     beta= 0.70
     Davidson diagonalization with overlap
     ethr =  8.43E-08,  avg # of iterations =  2.3

     total cpu time spent up to now is       20.6 secs

     total energy              =   -1550.20668876 Ry
     estimated scf accuracy    <       0.00001135 Ry

     iteration # 13     ecut=    50.00 Ry     beta= 0.70
     Davidson diagonalization with overlap
     ethr =  5.16E-08,  avg # of iterations =  1.0

     total cpu time spent up to now is       21.6 secs

     total energy              =   -1550.20668725 Ry
     estimated scf accuracy    <       0.00000512 Ry

     iteration # 14     ecut=    50.00 Ry     beta= 0.70
     Davidson diagonalization with overlap
     ethr =  2.33E-08,  avg # of iterations =  2.1

     total cpu time spent up to now is       22.8 secs

     End of self-consistent calculation

          k = 0.0000 0.0000 0.0000 (  5449 PWs)   bands (ev):

    -3.0098  -3.0098  -2.9570  -2.9570  -2.9570  -2.8329  -2.8329  -2.7706
    -2.7706  -2.7706  -2.5546   0.1945   4.4601   4.4601   4.4601

          k = 0.0000 0.0000 0.0833 (  5445 PWs)   bands (ev):

    -3.0066  -3.0037  -2.9553  -2.9553  -2.9538  -2.8357  -2.8322  -2.7755
    -2.7755  -2.7738  -2.5189   0.1400   4.3828   4.5075   4.5075

          k = 0.0000 0.0000 0.1667 (  5454 PWs)   bands (ev):

    -2.9974  -2.9865  -2.9500  -2.9500  -2.9444  -2.8441  -2.8320  -2.7895
    -2.7895  -2.7830  -2.4112  -0.0214   4.2369   4.6485   4.6485

          k = 0.0000 0.0000 0.2500 (  5454 PWs)   bands (ev):

    -2.9827  -2.9611  -2.9408  -2.9408  -2.9295  -2.8576  -2.8347  -2.8104
    -2.8104  -2.7977  -2.2330  -0.2793   4.1533   4.8787   4.8787

          k = 0.0000 0.0000 0.3333 (  5458 PWs)   bands (ev):

    -2.9638  -2.9316  -2.9273  -2.9273  -2.9101  -2.8753  -2.8424  -2.8356
    -2.8356  -2.8169  -1.9892  -0.6087   4.1992   5.1915   5.1917

          k = 0.0000 0.0000 0.4167 (  5450 PWs)   bands (ev):

    -2.9420  -2.9094  -2.9094  -2.9021  -2.8961  -2.8876  -2.8620  -2.8620
    -2.8560  -2.8393  -1.6884  -0.9750   4.3903   5.1796   5.5779

          k = 0.0000 0.0000-0.5000 (  5406 PWs)   bands (ev):

    -2.9202  -2.9176  -2.8881  -2.8881  -2.8864  -2.8864  -2.8775  -2.8749
    -2.8642  -2.8626  -1.3440  -1.3437   4.7204   4.7213   6.0260

          k = 0.0000 0.0833 0.0833 (  5445 PWs)   bands (ev):

    -3.0022  -2.9991  -2.9604  -2.9544  -2.9439  -2.8366  -2.8330  -2.7877
    -2.7804  -2.7693  -2.4828   0.0924   4.2291   4.5543   4.6318

          k = 0.0000 0.0833 0.1667 (  5445 PWs)   bands (ev):

    -2.9929  -2.9827  -2.9612  -2.9513  -2.9289  -2.8437  -2.8326  -2.8075
    -2.7942  -2.7719  -2.3746  -0.0515   4.0334   4.6934   4.8165

          k = 0.0000 0.0833 0.2500 (  5442 PWs)   bands (ev):

    -2.9790  -2.9579  -2.9568  -2.9449  -2.9101  -2.8558  -2.8342  -2.8321
    -2.8146  -2.7816  -2.1963  -0.2885   3.9234   4.9205   5.0589

          k = 0.0000 0.0833 0.3333 (  5451 PWs)   bands (ev):

    -2.9614  -2.9468  -2.9348  -2.9293  -2.8883  -2.8715  -2.8592  -2.8403
    -2.8385  -2.7972  -1.9534  -0.5999   3.9538   5.2288   5.3709

          k = 0.0000 0.0833 0.4167 (  5441 PWs)   bands (ev):

    -2.9418  -2.9314  -2.9232  -2.9026  -2.8875  -2.8863  -2.8645  -2.8612
    -2.8519  -2.8174  -1.6549  -0.9536   4.1357   4.9104   5.6092

          k = 0.0000 0.0833-0.5000 (  5440 PWs)   bands (ev):

    -2.9254  -2.9230  -2.9111  -2.9106  -2.8929  -2.8908  -2.8678  -2.8655
    -2.8406  -2.8401  -1.3149  -1.3146   4.4594   4.4600   6.0506

          k = 0.0000 0.1667 0.1667 (  5453 PWs)   bands (ev):

    -2.9829  -2.9698  -2.9692  -2.9536  -2.9076  -2.8451  -2.8335  -2.8333
    -2.8072  -2.7657  -2.2657  -0.1487   3.7383   4.8268   5.0725

          k = 0.0000 0.1667 0.2500 (  5443 PWs)   bands (ev):

    -2.9726  -2.9712  -2.9542  -2.9466  -2.8839  -2.8624  -2.8520  -2.8336
    -2.8259  -2.7673  -2.0880  -0.3254   3.5402   5.0444   5.3533

          k = 0.0000 0.1667 0.3333 (  5418 PWs)   bands (ev):

    -2.9689  -2.9583  -2.9515  -2.9204  -2.8917  -2.8628  -2.8590  -2.8455
    -2.8366  -2.7762  -1.8484  -0.5818   3.5030   4.9001   5.3391

          k = 0.0000 0.1667 0.4167 (  5435 PWs)   bands (ev):

    -2.9585  -2.9477  -2.9458  -2.9188  -2.8974  -2.8746  -2.8588  -2.8445
    -2.8343  -2.7914  -1.5574  -0.8955   3.6393   4.3615   5.7008

          k = 0.0000 0.1667-0.5000 (  5436 PWs)   bands (ev):

    -2.9439  -2.9418  -2.9416  -2.9414  -2.8858  -2.8834  -2.8570  -2.8547
    -2.8113  -2.8111  -1.2318  -1.2315   3.9331   3.9335   6.1143

          k = 0.0000 0.2500 0.2500 (  5441 PWs)   bands (ev):

    -2.9826  -2.9647  -2.9631  -2.9266  -2.8939  -2.8568  -2.8503  -2.8403
    -2.8336  -2.7608  -1.9135  -0.4146   3.2322   4.8818   5.2460

          k = 0.0000 0.2500 0.3333 (  5445 PWs)   bands (ev):

    -2.9856  -2.9691  -2.9608  -2.9236  -2.9028  -2.8540  -2.8519  -2.8344
    -2.8305  -2.7621  -1.6814  -0.5795   3.0897   4.2840   5.5163

          k = 0.0000 0.2500 0.4167 (  5447 PWs)   bands (ev):

    -2.9811  -2.9696  -2.9617  -2.9492  -2.8822  -2.8608  -2.8554  -2.8389
    -2.8064  -2.7709  -1.4057  -0.8200   3.1437   3.7730   5.8437

          k = 0.0000 0.2500-0.5000 (  5432 PWs)   bands (ev):

    -2.9688  -2.9687  -2.9670  -2.9651  -2.8707  -2.8683  -2.8492  -2.8467
    -2.7861  -2.7860  -1.1082  -1.1079   3.3818   3.3820   6.2098

          k = 0.0000 0.3333 0.3333 (  5446 PWs)   bands (ev):

    -2.9953  -2.9820  -2.9691  -2.9520  -2.8815  -2.8551  -2.8485  -2.8337
    -2.8047  -2.7558  -1.4644  -0.6298   2.8218   3.7145   5.7501

          k = 0.0000 0.3333 0.4167 (  5438 PWs)   bands (ev):

    -2.9969  -2.9881  -2.9791  -2.9746  -2.8634  -2.8519  -2.8493  -2.8353
    -2.7830  -2.7576  -1.2168  -0.7613   2.7585   3.2419   6.0242

          k = 0.0000 0.3333-0.5000 (  5432 PWs)   bands (ev):

    -2.9900  -2.9899  -2.9876  -2.9857  -2.8554  -2.8530  -2.8434  -2.8409
    -2.7669  -2.7669  -0.9692  -0.9688   2.9087   2.9088   6.3137

          k = 0.0000 0.4167 0.4167 (  5434 PWs)   bands (ev):

    -3.0046  -2.9989  -2.9932  -2.9932  -2.8484  -2.8469  -2.8444  -2.8336
    -2.7655  -2.7522  -1.0191  -0.7632   2.5581   2.8275   6.2192

          k = 0.0000 0.4167-0.5000 (  5434 PWs)   bands (ev):

    -3.0034  -3.0034  -3.0014  -2.9996  -2.8463  -2.8440  -2.8380  -2.8355
    -2.7550  -2.7550  -0.8539  -0.8535   2.5843   2.5843   6.3969

          k = 0.0000-0.5000-0.5000 (  5440 PWs)   bands (ev):

    -3.0080  -3.0080  -3.0063  -3.0044  -2.8441  -2.8418  -2.8350  -2.8324
    -2.7509  -2.7509  -0.8079  -0.8076   2.4673   2.4673   6.4291

          k = 0.0833 0.0833 0.0833 (  5443 PWs)   bands (ev):

    -2.9962  -2.9962  -2.9588  -2.9588  -2.9363  -2.8355  -2.8355  -2.8013
    -2.7742  -2.7742  -2.4464   0.0504   4.2761   4.2761   4.8836

          k = 0.0833 0.0833 0.1667 (  5447 PWs)   bands (ev):

    -2.9879  -2.9795  -2.9633  -2.9540  -2.9215  -2.8427  -2.8337  -2.8237
    -2.7881  -2.7730  -2.3378  -0.0787   3.9998   4.4159   5.1477

          k = 0.0833 0.0833 0.2500 (  5433 PWs)   bands (ev):

    -2.9748  -2.9636  -2.9551  -2.9457  -2.9028  -2.8541  -2.8499  -2.8340
    -2.8088  -2.7791  -2.1597  -0.2970   3.8379   4.6444   5.4292

          k = 0.0833 0.0833 0.3333 (  5439 PWs)   bands (ev):

    -2.9585  -2.9582  -2.9342  -2.9280  -2.8819  -2.8762  -2.8683  -2.8381
    -2.8333  -2.7917  -1.9180  -0.5917   3.8342   4.9556   5.2889

          k = 0.0833 0.0833 0.4167 (  5442 PWs)   bands (ev):

    -2.9474  -2.9401  -2.9227  -2.9139  -2.8891  -2.8809  -2.8644  -2.8582
    -2.8430  -2.8093  -1.6220  -0.9331   3.9940   4.7413   5.3413

          k = 0.0833 0.0833-0.5000 (  5440 PWs)   bands (ev):

    -2.9312  -2.9305  -2.9255  -2.9231  -2.8790  -2.8771  -2.8730  -2.8710
    -2.8295  -2.8293  -1.2866  -1.2863   4.3025   4.3032   5.7916

          k = 0.0833 0.1667 0.1667 (  5432 PWs)   bands (ev):

    -2.9772  -2.9684  -2.9672  -2.9562  -2.9047  -2.8499  -2.8435  -2.8349
    -2.7963  -2.7706  -2.2290  -0.1675   3.7853   4.3927   5.4948

          k = 0.0833 0.1667 0.2500 (  5434 PWs)   bands (ev):

    -2.9734  -2.9659  -2.9536  -2.9450  -2.8836  -2.8781  -2.8504  -2.8340
    -2.8151  -2.7713  -2.0521  -0.3318   3.5679   4.5842   5.4274

          k = 0.0833 0.1667 0.3333 (  5434 PWs)   bands (ev):

    -2.9741  -2.9537  -2.9470  -2.9229  -2.9015  -2.8620  -2.8607  -2.8368
    -2.8342  -2.7786  -1.8143  -0.5749   3.5034   4.8274   4.8795

          k = 0.0833 0.1667 0.4167 (  5445 PWs)   bands (ev):

    -2.9686  -2.9455  -2.9385  -2.9314  -2.8901  -2.8708  -2.8554  -2.8517
    -2.8282  -2.7919  -1.5265  -0.8775   3.6164   4.3050   5.2546

          k = 0.0833 0.1667-0.5000 (  5446 PWs)   bands (ev):

    -2.9570  -2.9563  -2.9344  -2.9325  -2.8783  -2.8762  -2.8601  -2.8579
    -2.8098  -2.8097  -1.2060  -1.2057   3.8920   3.8924   5.6962

          k = 0.0833 0.2500 0.2500 (  5430 PWs)   bands (ev):

    -2.9811  -2.9622  -2.9588  -2.9256  -2.9068  -2.8598  -2.8482  -2.8343
    -2.8299  -2.7658  -1.8791  -0.4161   3.2800   4.7345   4.8363

          k = 0.0833 0.2500 0.3333 (  5440 PWs)   bands (ev):

    -2.9861  -2.9648  -2.9577  -2.9312  -2.9014  -2.8526  -2.8448  -2.8391
    -2.8297  -2.7669  -1.6497  -0.5734   3.1302   4.2642   5.0017

          k = 0.0833 0.2500 0.4167 (  5441 PWs)   bands (ev):

    -2.9860  -2.9671  -2.9609  -2.9446  -2.8799  -2.8588  -2.8527  -2.8410
    -2.8089  -2.7751  -1.3780  -0.8054   3.1701   3.7701   5.3514

          k = 0.0833 0.2500-0.5000 (  5450 PWs)   bands (ev):

    -2.9796  -2.9790  -2.9541  -2.9525  -2.8677  -2.8654  -2.8501  -2.8478
    -2.7895  -2.7894  -1.0861  -1.0858   3.3935   3.3938   5.7641

          k = 0.0833 0.3333 0.3333 (  5437 PWs)   bands (ev):

    -2.9936  -2.9779  -2.9719  -2.9480  -2.8814  -2.8505  -2.8475  -2.8339
    -2.8098  -2.7614  -1.4363  -0.6224   2.8708   3.7211   5.2390

          k = 0.0833 0.3333 0.4167 (  5442 PWs)   bands (ev):

    -2.9974  -2.9869  -2.9810  -2.9628  -2.8628  -2.8502  -2.8480  -2.8357
    -2.7887  -2.7634  -1.1935  -0.7497   2.8035   3.2648   5.5523

          k = 0.0833 0.3333-0.5000 (  5440 PWs)   bands (ev):

    -2.9960  -2.9955  -2.9755  -2.9741  -2.8539  -2.8515  -2.8437  -2.8412
    -2.7727  -2.7727  -0.9516  -0.9513   2.9441   2.9442   5.9121

          k = 0.0833 0.4167 0.4167 (  5438 PWs)   bands (ev):

    -3.0025  -2.9998  -2.9932  -2.9801  -2.8470  -2.8469  -2.8435  -2.8336
    -2.7722  -2.7588  -1.0009  -0.7523   2.6082   2.8652   5.8092

          k = 0.0833 0.4167-0.5000 (  5432 PWs)   bands (ev):

    -3.0045  -3.0041  -2.9925  -2.9911  -2.8453  -2.8430  -2.8381  -2.8355
    -2.7618  -2.7618  -0.8404  -0.8401   2.6310   2.6311   6.0685

          k = 0.0833-0.5000-0.5000 (  5432 PWs)   bands (ev):

    -3.0057  -3.0057  -3.0003  -2.9984  -2.8433  -2.8410  -2.8350  -2.8324
    -2.7581  -2.7581  -0.7962  -0.7959   2.5178   2.5178   6.1411

          k = 0.1667 0.1667 0.1667 (  5443 PWs)   bands (ev):

    -2.9642  -2.9642  -2.9614  -2.9614  -2.8940  -2.8775  -2.8396  -2.8396
    -2.7844  -2.7844  -2.1210  -0.2317   3.9250   3.9250   5.6605

          k = 0.1667 0.1667 0.2500 (  5447 PWs)   bands (ev):

    -2.9742  -2.9570  -2.9525  -2.9396  -2.9053  -2.8770  -2.8468  -2.8356
    -2.8047  -2.7794  -1.9470  -0.3588   3.5935   4.1538   5.1279

          k = 0.1667 0.1667 0.3333 (  5437 PWs)   bands (ev):

    -2.9810  -2.9471  -2.9422  -2.9383  -2.9074  -2.8602  -2.8553  -2.8314
    -2.8278  -2.7818  -1.7148  -0.5610   3.4474   4.4662   4.5826

          k = 0.1667 0.1667 0.4167 (  5444 PWs)   bands (ev):

    -2.9813  -2.9588  -2.9367  -2.9330  -2.8844  -2.8622  -2.8554  -2.8488
    -2.8209  -2.7908  -1.4369  -0.8287   3.4980   4.1001   4.8553

          k = 0.1667 0.1667-0.5000 (  5464 PWs)   bands (ev):

    -2.9741  -2.9737  -2.9313  -2.9292  -2.8664  -2.8644  -2.8626  -2.8605
    -2.8050  -2.8049  -1.1324  -1.1320   3.7261   3.7266   5.3127

          k = 0.1667 0.2500 0.2500 (  5444 PWs)   bands (ev):

    -2.9767  -2.9620  -2.9452  -2.9297  -2.9231  -2.8618  -2.8445  -2.8366
    -2.8131  -2.7800  -1.7788  -0.4271   3.4221   4.1343   4.6727

          k = 0.1667 0.2500 0.3333 (  5446 PWs)   bands (ev):

    -2.9850  -2.9613  -2.9579  -2.9325  -2.8994  -2.8500  -2.8455  -2.8309
    -2.8302  -2.7797  -1.5575  -0.5605   3.2411   4.1787   4.3898

          k = 0.1667 0.2500 0.4167 (  5447 PWs)   bands (ev):

    -2.9905  -2.9786  -2.9486  -2.9326  -2.8768  -2.8537  -2.8466  -2.8452
    -2.8135  -2.7853  -1.2978  -0.7658   3.2313   3.7372   4.7571

          k = 0.1667 0.2500-0.5000 (  5444 PWs)   bands (ev):

    -2.9889  -2.9885  -2.9396  -2.9377  -2.8616  -2.8594  -2.8518  -2.8496
    -2.7971  -2.7970  -1.0233  -1.0230   3.4065   3.4069   5.2012

          k = 0.1667 0.3333 0.3333 (  5451 PWs)   bands (ev):

    -2.9881  -2.9807  -2.9683  -2.9340  -2.8815  -2.8460  -2.8390  -2.8346
    -2.8218  -2.7770  -1.3546  -0.6042   3.0164   3.7243   4.5762

          k = 0.1667 0.3333 0.4167 (  5448 PWs)   bands (ev):

    -2.9947  -2.9934  -2.9665  -2.9437  -2.8626  -2.8461  -2.8435  -2.8372
    -2.8030  -2.7791  -1.1261  -0.7180   2.9347   3.3227   4.8967

          k = 0.1667 0.3333-0.5000 (  5464 PWs)   bands (ev):

    -2.9981  -2.9977  -2.9571  -2.9555  -2.8505  -2.8481  -2.8444  -2.8420
    -2.7879  -2.7879  -0.9017  -0.9014   3.0431   3.0433   5.2953

          k = 0.1667 0.4167 0.4167 (  5454 PWs)   bands (ev):

    -3.0008  -2.9959  -2.9784  -2.9599  -2.8476  -2.8433  -2.8409  -2.8336
    -2.7905  -2.7770  -0.9484  -0.7219   2.7567   2.9733   5.1618

          k = 0.1667 0.4167-0.5000 (  5450 PWs)   bands (ev):

    -3.0004  -3.0001  -2.9748  -2.9732  -2.8427  -2.8403  -2.8383  -2.8357
    -2.7809  -2.7809  -0.8020  -0.8017   2.7689   2.7690   5.4710

          k = 0.1667-0.5000-0.5000 (  5420 PWs)   bands (ev):

    -2.9987  -2.9987  -2.9838  -2.9820  -2.8411  -2.8388  -2.8347  -2.8321
    -2.7783  -2.7783  -0.7627  -0.7624   2.6675   2.6675   5.5719

          k = 0.2500 0.2500 0.2500 (  5440 PWs)   bands (ev):

    -2.9690  -2.9690  -2.9574  -2.9199  -2.9199  -2.8552  -2.8401  -2.8401
    -2.8002  -2.8002  -1.6196  -0.4659   3.6548   3.6548   4.3655

          k = 0.2500 0.2500 0.3333 (  5461 PWs)   bands (ev):

    -2.9809  -2.9770  -2.9579  -2.9180  -2.8960  -2.8466  -2.8442  -2.8319
    -2.8218  -2.7941  -1.4123  -0.5568   3.3507   3.9729   3.9773

          k = 0.2500 0.2500 0.4167 (  5444 PWs)   bands (ev):

    -2.9909  -2.9899  -2.9442  -2.9207  -2.8739  -2.8478  -2.8475  -2.8388
    -2.8169  -2.7953  -1.1741  -0.7148   3.2511   3.6119   4.3698

          k = 0.2500 0.2500-0.5000 (  5456 PWs)   bands (ev):

    -2.9947  -2.9943  -2.9313  -2.9293  -2.8582  -2.8564  -2.8481  -2.8458
    -2.8036  -2.8033  -0.9307  -0.9305   3.3503   3.3507   4.8382

          k = 0.2500 0.3333 0.3333 (  5454 PWs)   bands (ev):

    -2.9902  -2.9786  -2.9614  -2.9128  -2.8832  -2.8431  -2.8358  -2.8327
    -2.8275  -2.7984  -1.2274  -0.5873   3.2547   3.6773   4.0052

          k = 0.2500 0.3333 0.4167 (  5459 PWs)   bands (ev):

    -2.9967  -2.9874  -2.9520  -2.9214  -2.8646  -2.8425  -2.8400  -2.8368
    -2.8185  -2.7998  -1.0229  -0.6761   3.1360   3.3785   4.3331

          k = 0.2500 0.3333-0.5000 (  5476 PWs)   bands (ev):

    -2.9955  -2.9952  -2.9374  -2.9356  -2.8505  -2.8486  -2.8425  -2.8402
    -2.8065  -2.8062  -0.8283  -0.8281   3.1778   3.1780   4.7699

          k = 0.2500 0.4167 0.4167 (  5461 PWs)   bands (ev):

    -2.9970  -2.9845  -2.9598  -2.9350  -2.8503  -2.8399  -2.8369  -2.8336
    -2.8155  -2.8022  -0.8692  -0.6793   2.9996   3.1344   4.5627

          k = 0.2500 0.4167-0.5000 (  5472 PWs)   bands (ev):

    -2.9911  -2.9909  -2.9521  -2.9505  -2.8396  -2.8393  -2.8372  -2.8369
    -2.8077  -2.8075  -0.7455  -0.7452   2.9897   2.9898   4.9001

          k = 0.2500-0.5000-0.5000 (  5476 PWs)   bands (ev):

    -2.9865  -2.9865  -2.9613  -2.9595  -2.8383  -2.8359  -2.8344  -2.8318
    -2.8083  -2.8083  -0.7131  -0.7129   2.9122   2.9122   5.0053

          k = 0.3333 0.3333 0.3333 (  5430 PWs)   bands (ev):

    -2.9958  -2.9646  -2.9646  -2.8894  -2.8894  -2.8387  -2.8371  -2.8371
    -2.8193  -2.8193  -1.0684  -0.5921   3.5436   3.5800   3.5800

          k = 0.3333 0.3333 0.4167 (  5461 PWs)   bands (ev):

    -2.9952  -2.9761  -2.9463  -2.9040  -2.8685  -2.8433  -2.8383  -2.8324
    -2.8284  -2.8166  -0.8990  -0.6417   3.3347   3.3747   3.9857

          k = 0.3333 0.3333-0.5000 (  5452 PWs)   bands (ev):

    -2.9881  -2.9878  -2.9258  -2.9240  -2.8535  -2.8522  -2.8387  -2.8363
    -2.8206  -2.8196  -0.7478  -0.7476   3.2776   3.2778   4.4642

          k = 0.3333 0.4167 0.4167 (  5474 PWs)   bands (ev):

    -2.9881  -2.9677  -2.9458  -2.9096  -2.8617  -2.8428  -2.8351  -2.8338
    -2.8327  -2.8236  -0.7768  -0.6381   3.3085   3.3308   4.0797

          k = 0.3333 0.4167-0.5000 (  5472 PWs)   bands (ev):

    -2.9767  -2.9765  -2.9306  -2.9289  -2.8496  -2.8489  -2.8364  -2.8339
    -2.8292  -2.8274  -0.6833  -0.6831   3.2730   3.2731   4.4577

          k = 0.3333-0.5000-0.5000 (  5464 PWs)   bands (ev):

    -2.9685  -2.9685  -2.9386  -2.9369  -2.8438  -2.8438  -2.8358  -2.8341
    -2.8333  -2.8315  -0.6583  -0.6581   3.2456   3.2456   4.5485

          k = 0.4167 0.4167 0.4167 (  5469 PWs)   bands (ev):

    -2.9745  -2.9454  -2.9454  -2.8878  -2.8878  -2.8594  -2.8343  -2.8343
    -2.8311  -2.8311  -0.6910  -0.6171   3.4411   3.7433   3.7433

          k = 0.4167 0.4167-0.5000 (  5486 PWs)   bands (ev):

    -2.9581  -2.9580  -2.9188  -2.9171  -2.8720  -2.8719  -2.8347  -2.8334
    -2.8321  -2.8309  -0.6336  -0.6334   3.5513   3.5515   4.2296

          k = 0.4167-0.5000-0.5000 (  5468 PWs)   bands (ev):

    -2.9445  -2.9445  -2.9218  -2.9201  -2.8804  -2.8804  -2.8343  -2.8339
    -2.8317  -2.8313  -0.6144  -0.6142   3.6608   3.6608   4.2525

          k =-0.5000-0.5000-0.5000 (  5520 PWs)   bands (ev):

    -2.9156  -2.9156  -2.9156  -2.9140  -2.9140  -2.9140  -2.8338  -2.8338
    -2.8312  -2.8312  -0.5974  -0.5973   4.1497   4.1505   4.1507

     the Fermi energy is     0.1827 ev

!    total energy              =   -1550.20668815 Ry

     total all-electron energy =    -76047.898870 Ry
     estimated scf accuracy    <       0.00000052 Ry
     smearing contrib. (-TS)   =      -0.55278289 Ry
     internal energy E=F+TS    =   -1549.65390526 Ry

     The total energy is F=E-TS. E is the sum of the following terms:
     one-electron contribution =     -54.62268757 Ry
     hartree contribution      =      44.16543491 Ry
     xc contribution           =     -63.42891692 Ry
     ewald contribution        =     -90.80640547 Ry
     one-center paw contrib.   =   -1384.96133021 Ry

     convergence has been achieved in  14 iterations

     Forces acting on atoms (cartesian axes, Ry/au):

     atom    1 type  1   force =     0.00000000    0.00000000    0.00000000
     atom    2 type  1   force =     0.00000000    0.00000000    0.00000000

     Total force =     0.000000     Total SCF correction =     0.000000

     Writing all to output data dir ./pwscf.save/
 
     init_run     :      0.55s CPU      0.73s WALL (       1 calls)
     electrons    :     21.03s CPU     21.85s WALL (       1 calls)
     forces       :      0.10s CPU      0.17s WALL (       1 calls)

     Called by init_run:
     wfcinit      :      0.44s CPU      0.48s WALL (       1 calls)
     potinit      :      0.04s CPU      0.11s WALL (       1 calls)
     hinit0       :      0.03s CPU      0.06s WALL (       1 calls)

     Called by electrons:
     c_bands      :     17.79s CPU     18.10s WALL (      15 calls)
     sum_band     :      2.49s CPU      2.61s WALL (      15 calls)
     v_of_rho     :      0.09s CPU      0.47s WALL (      15 calls)
     newd         :      0.16s CPU      0.20s WALL (      15 calls)
     PAW_pot      :      0.51s CPU      0.52s WALL (      15 calls)
     mix_rho      :      0.01s CPU      0.01s WALL (      15 calls)

     Called by c_bands:
     init_us_2    :      0.26s CPU      0.26s WALL (    2688 calls)
     init_us_2:cp :      0.25s CPU      0.26s WALL (    2688 calls)
     cegterg      :     16.54s CPU     16.81s WALL (    1260 calls)

     Called by *egterg:
     cdiaghg      :      2.80s CPU      2.86s WALL (    4426 calls)
     h_psi        :     10.95s CPU     11.14s WALL (    4594 calls)
     s_psi        :      0.37s CPU      0.37s WALL (    4594 calls)
     g_psi        :      0.06s CPU      0.06s WALL (    3250 calls)

     Called by h_psi:
     h_psi:calbec :      0.47s CPU      0.48s WALL (    4594 calls)
     vloc_psi     :     10.05s CPU     10.23s WALL (    4594 calls)
     add_vuspsi   :      0.37s CPU      0.38s WALL (    4594 calls)

     General routines
     calbec       :      0.63s CPU      0.64s WALL (    6190 calls)
     fft          :      0.10s CPU      0.65s WALL (     177 calls)
     ffts         :      0.00s CPU      0.02s WALL (      15 calls)
     fftw         :     11.15s CPU     11.35s WALL (  126286 calls)
 
     Parallel routines
 
     PWSCF        :     22.52s CPU     25.03s WALL

 
   This run was terminated on:  11:27:20   6Apr2024            

=------------------------------------------------------------------------------=
   JOB DONE.
=------------------------------------------------------------------------------=
