MPI startup(): Warning: I_MPI_PMI_LIBRARY will be ignored since the hydra process manager was found
MPI startup(): Warning: I_MPI_PMI_LIBRARY will be ignored since the hydra process manager was found
MPI startup(): Warning: I_MPI_PMI_LIBRARY will be ignored since the hydra process manager was found
MPI startup(): Warning: I_MPI_PMI_LIBRARY will be ignored since the hydra process manager was found
MPI startup(): Warning: I_MPI_PMI_LIBRARY will be ignored since the hydra process manager was found
MPI startup(): Warning: I_MPI_PMI_LIBRARY will be ignored since the hydra process manager was found
MPI startup(): Warning: I_MPI_PMI_LIBRARY will be ignored since the hydra process manager was found
MPI startup(): Warning: I_MPI_PMI_LIBRARY will be ignored since the hydra process manager was found
MPI startup(): Warning: I_MPI_PMI_LIBRARY will be ignored since the hydra process manager was found
MPI startup(): Warning: I_MPI_PMI_LIBRARY will be ignored since the hydra process manager was found

     Program PWSCF v.7.0 starts on  6Apr2024 at 11:26:56 

     This program is part of the open-source Quantum ESPRESSO suite
     for quantum simulation of materials; please cite
         "P. Giannozzi et al., J. Phys.:Condens. Matter 21 395502 (2009);
         "P. Giannozzi et al., J. Phys.:Condens. Matter 29 465901 (2017);
         "P. Giannozzi et al., J. Chem. Phys. 152 154105 (2020);
          URL http://www.quantum-espresso.org", 
     in publications or presentations arising from this work. More details at
     http://www.quantum-espresso.org/quote

     Parallel version (MPI), running on    10 processors

     MPI processes distributed on     1 nodes
     R & G space division:  proc/nbgrp/npool/nimage =      10
     237781 MiB available memory on the printing compute node when the environment starts
 
     Reading input from VolumeBCC_5.2.in
Warning: card &CELL ignored
Warning: card / ignored

     Current dimensions of program PWSCF are:
     Max number of different atomic species (ntypx) = 10
     Max number of k-points (npk) =  40000
     Max angular momentum in pseudopotentials (lmaxx) =  4
     file Au.pbe-n-kjpaw_psl.1.0.0.UPF: wavefunction(s)  6S 5D renormalized
     Found identity + ( -0.5000 -0.5000 -0.5000) symmetry
     This is a supercell, fractional translations are disabled
     Message from routine setup:
     using ibrav=0 with symmetry is DISCOURAGED, use correct ibrav instead

     Subspace diagonalization in iterative solution of the eigenvalue problem:
     one sub-group per band group will be used
     scalapack distributed-memory algorithm (size of sub-group:  3*  3 procs)

 
     Parallelization info
     --------------------
     sticks:   dense  smooth     PW     G-vecs:    dense   smooth      PW
     Min          42      42     14                  666      666     129
     Max          44      44     16                  669      669     132
     Sum         429     429    145                 6667     6667    1309
 
     Using Slab Decomposition
 


     bravais-lattice index     =            0
     lattice parameter (alat)  =       5.1992  a.u.
     unit-cell volume          =     140.5469 (a.u.)^3
     number of atoms/cell      =            2
     number of atomic types    =            1
     number of electrons       =        22.00
     number of Kohn-Sham states=           15
     kinetic-energy cutoff     =      50.0000  Ry
     charge density cutoff     =     200.0000  Ry
     scf convergence threshold =      1.0E-06
     mixing beta               =       0.7000
     number of iterations used =            8  plain     mixing
     Exchange-correlation= SLA  PW   PBX  PBC
                           (   1   4   3   4   0   0   0)

     celldm(1)=   5.199246  celldm(2)=   0.000000  celldm(3)=   0.000000
     celldm(4)=   0.000000  celldm(5)=   0.000000  celldm(6)=   0.000000

     crystal axes: (cart. coord. in units of alat)
               a(1) = (   1.000000   0.000000   0.000000 )  
               a(2) = (   0.000000   1.000000   0.000000 )  
               a(3) = (   0.000000   0.000000   1.000000 )  

     reciprocal axes: (cart. coord. in units 2 pi/alat)
               b(1) = (  1.000000  0.000000  0.000000 )  
               b(2) = (  0.000000  1.000000  0.000000 )  
               b(3) = (  0.000000  0.000000  1.000000 )  


     PseudoPot. # 1 for Au read from file:
     ./Au.pbe-n-kjpaw_psl.1.0.0.UPF
     MD5 check sum: 4db85c736373c707a97ce4c36c2a9d23
     Pseudo is Projector augmented-wave + core cor, Zval = 11.0
     Generated using &quot;atomic&quot; code by A. Dal Corso  v.6.3
     Shape of augmentation charge: PSQ
     Using radial grid of 1279 points,  6 beta functions with: 
                l(1) =   0
                l(2) =   0
                l(3) =   1
                l(4) =   1
                l(5) =   2
                l(6) =   2
     Q(r) pseudized with 0 coefficients 


     atomic species   valence    mass     pseudopotential
        Au            11.00   196.96657     Au( 1.00)

     48 Sym. Ops., with inversion, found



   Cartesian axes

     site n.     atom                  positions (alat units)
         1           Au  tau(   1) = (   0.0000000   0.0000000   0.0000000  )
         2           Au  tau(   2) = (   0.5000000   0.5000000   0.5000000  )

     number of k points=    84  Gaussian smearing, width (Ry)=  0.2000
                       cart. coord. in units 2pi/alat
        k(    1) = (   0.0000000   0.0000000   0.0000000), wk =   0.0011574
        k(    2) = (   0.0000000   0.0000000   0.0833333), wk =   0.0069444
        k(    3) = (   0.0000000   0.0000000   0.1666667), wk =   0.0069444
        k(    4) = (   0.0000000   0.0000000   0.2500000), wk =   0.0069444
        k(    5) = (   0.0000000   0.0000000   0.3333333), wk =   0.0069444
        k(    6) = (   0.0000000   0.0000000   0.4166667), wk =   0.0069444
        k(    7) = (   0.0000000   0.0000000  -0.5000000), wk =   0.0034722
        k(    8) = (   0.0000000   0.0833333   0.0833333), wk =   0.0138889
        k(    9) = (   0.0000000   0.0833333   0.1666667), wk =   0.0277778
        k(   10) = (   0.0000000   0.0833333   0.2500000), wk =   0.0277778
        k(   11) = (   0.0000000   0.0833333   0.3333333), wk =   0.0277778
        k(   12) = (   0.0000000   0.0833333   0.4166667), wk =   0.0277778
        k(   13) = (   0.0000000   0.0833333  -0.5000000), wk =   0.0138889
        k(   14) = (   0.0000000   0.1666667   0.1666667), wk =   0.0138889
        k(   15) = (   0.0000000   0.1666667   0.2500000), wk =   0.0277778
        k(   16) = (   0.0000000   0.1666667   0.3333333), wk =   0.0277778
        k(   17) = (   0.0000000   0.1666667   0.4166667), wk =   0.0277778
        k(   18) = (   0.0000000   0.1666667  -0.5000000), wk =   0.0138889
        k(   19) = (   0.0000000   0.2500000   0.2500000), wk =   0.0138889
        k(   20) = (   0.0000000   0.2500000   0.3333333), wk =   0.0277778
        k(   21) = (   0.0000000   0.2500000   0.4166667), wk =   0.0277778
        k(   22) = (   0.0000000   0.2500000  -0.5000000), wk =   0.0138889
        k(   23) = (   0.0000000   0.3333333   0.3333333), wk =   0.0138889
        k(   24) = (   0.0000000   0.3333333   0.4166667), wk =   0.0277778
        k(   25) = (   0.0000000   0.3333333  -0.5000000), wk =   0.0138889
        k(   26) = (   0.0000000   0.4166667   0.4166667), wk =   0.0138889
        k(   27) = (   0.0000000   0.4166667  -0.5000000), wk =   0.0138889
        k(   28) = (   0.0000000  -0.5000000  -0.5000000), wk =   0.0034722
        k(   29) = (   0.0833333   0.0833333   0.0833333), wk =   0.0092593
        k(   30) = (   0.0833333   0.0833333   0.1666667), wk =   0.0277778
        k(   31) = (   0.0833333   0.0833333   0.2500000), wk =   0.0277778
        k(   32) = (   0.0833333   0.0833333   0.3333333), wk =   0.0277778
        k(   33) = (   0.0833333   0.0833333   0.4166667), wk =   0.0277778
        k(   34) = (   0.0833333   0.0833333  -0.5000000), wk =   0.0138889
        k(   35) = (   0.0833333   0.1666667   0.1666667), wk =   0.0277778
        k(   36) = (   0.0833333   0.1666667   0.2500000), wk =   0.0555556
        k(   37) = (   0.0833333   0.1666667   0.3333333), wk =   0.0555556
        k(   38) = (   0.0833333   0.1666667   0.4166667), wk =   0.0555556
        k(   39) = (   0.0833333   0.1666667  -0.5000000), wk =   0.0277778
        k(   40) = (   0.0833333   0.2500000   0.2500000), wk =   0.0277778
        k(   41) = (   0.0833333   0.2500000   0.3333333), wk =   0.0555556
        k(   42) = (   0.0833333   0.2500000   0.4166667), wk =   0.0555556
        k(   43) = (   0.0833333   0.2500000  -0.5000000), wk =   0.0277778
        k(   44) = (   0.0833333   0.3333333   0.3333333), wk =   0.0277778
        k(   45) = (   0.0833333   0.3333333   0.4166667), wk =   0.0555556
        k(   46) = (   0.0833333   0.3333333  -0.5000000), wk =   0.0277778
        k(   47) = (   0.0833333   0.4166667   0.4166667), wk =   0.0277778
        k(   48) = (   0.0833333   0.4166667  -0.5000000), wk =   0.0277778
        k(   49) = (   0.0833333  -0.5000000  -0.5000000), wk =   0.0069444
        k(   50) = (   0.1666667   0.1666667   0.1666667), wk =   0.0092593
        k(   51) = (   0.1666667   0.1666667   0.2500000), wk =   0.0277778
        k(   52) = (   0.1666667   0.1666667   0.3333333), wk =   0.0277778
        k(   53) = (   0.1666667   0.1666667   0.4166667), wk =   0.0277778
        k(   54) = (   0.1666667   0.1666667  -0.5000000), wk =   0.0138889
        k(   55) = (   0.1666667   0.2500000   0.2500000), wk =   0.0277778
        k(   56) = (   0.1666667   0.2500000   0.3333333), wk =   0.0555556
        k(   57) = (   0.1666667   0.2500000   0.4166667), wk =   0.0555556
        k(   58) = (   0.1666667   0.2500000  -0.5000000), wk =   0.0277778
        k(   59) = (   0.1666667   0.3333333   0.3333333), wk =   0.0277778
        k(   60) = (   0.1666667   0.3333333   0.4166667), wk =   0.0555556
        k(   61) = (   0.1666667   0.3333333  -0.5000000), wk =   0.0277778
        k(   62) = (   0.1666667   0.4166667   0.4166667), wk =   0.0277778
        k(   63) = (   0.1666667   0.4166667  -0.5000000), wk =   0.0277778
        k(   64) = (   0.1666667  -0.5000000  -0.5000000), wk =   0.0069444
        k(   65) = (   0.2500000   0.2500000   0.2500000), wk =   0.0092593
        k(   66) = (   0.2500000   0.2500000   0.3333333), wk =   0.0277778
        k(   67) = (   0.2500000   0.2500000   0.4166667), wk =   0.0277778
        k(   68) = (   0.2500000   0.2500000  -0.5000000), wk =   0.0138889
        k(   69) = (   0.2500000   0.3333333   0.3333333), wk =   0.0277778
        k(   70) = (   0.2500000   0.3333333   0.4166667), wk =   0.0555556
        k(   71) = (   0.2500000   0.3333333  -0.5000000), wk =   0.0277778
        k(   72) = (   0.2500000   0.4166667   0.4166667), wk =   0.0277778
        k(   73) = (   0.2500000   0.4166667  -0.5000000), wk =   0.0277778
        k(   74) = (   0.2500000  -0.5000000  -0.5000000), wk =   0.0069444
        k(   75) = (   0.3333333   0.3333333   0.3333333), wk =   0.0092593
        k(   76) = (   0.3333333   0.3333333   0.4166667), wk =   0.0277778
        k(   77) = (   0.3333333   0.3333333  -0.5000000), wk =   0.0138889
        k(   78) = (   0.3333333   0.4166667   0.4166667), wk =   0.0277778
        k(   79) = (   0.3333333   0.4166667  -0.5000000), wk =   0.0277778
        k(   80) = (   0.3333333  -0.5000000  -0.5000000), wk =   0.0069444
        k(   81) = (   0.4166667   0.4166667   0.4166667), wk =   0.0092593
        k(   82) = (   0.4166667   0.4166667  -0.5000000), wk =   0.0138889
        k(   83) = (   0.4166667  -0.5000000  -0.5000000), wk =   0.0069444
        k(   84) = (  -0.5000000  -0.5000000  -0.5000000), wk =   0.0011574

     Dense  grid:     6667 G-vectors     FFT dimensions: (  24,  24,  24)

     Estimated max dynamical RAM per process >       5.14 MB

     Estimated total dynamical RAM >      51.39 MB

     Initial potential from superposition of free atoms

     starting charge      21.9998, renormalised to      22.0000
     Starting wfcs are   18 randomized atomic wfcs
     Checking if some PAW data can be deallocated... 

     total cpu time spent up to now is        1.7 secs

     Self-consistent Calculation

     iteration #  1     ecut=    50.00 Ry     beta= 0.70
     Davidson diagonalization with overlap
     ethr =  1.00E-02,  avg # of iterations =  6.0

     Threshold (ethr) on eigenvalues was too large:
     Diagonalizing with lowered threshold

     Davidson diagonalization with overlap
     c_bands:  1 eigenvalues not converged
     ethr =  1.55E-04,  avg # of iterations =  7.3

     total cpu time spent up to now is        4.4 secs

     total energy              =   -1549.60133094 Ry
     estimated scf accuracy    <       0.04405331 Ry

     iteration #  2     ecut=    50.00 Ry     beta= 0.70
     Davidson diagonalization with overlap
     ethr =  2.00E-04,  avg # of iterations =  2.0

     total cpu time spent up to now is        4.9 secs

     total energy              =   -1549.60800532 Ry
     estimated scf accuracy    <       0.00235838 Ry

     iteration #  3     ecut=    50.00 Ry     beta= 0.70
     Davidson diagonalization with overlap
     c_bands:  1 eigenvalues not converged
     c_bands:  1 eigenvalues not converged
     c_bands:  1 eigenvalues not converged
     c_bands:  1 eigenvalues not converged
     ethr =  1.07E-05,  avg # of iterations =  7.6

     total cpu time spent up to now is        6.1 secs

     total energy              =   -1549.60899172 Ry
     estimated scf accuracy    <       0.00032753 Ry

     iteration #  4     ecut=    50.00 Ry     beta= 0.70
     Davidson diagonalization with overlap
     c_bands:  1 eigenvalues not converged
     ethr =  1.49E-06,  avg # of iterations =  5.5

     total cpu time spent up to now is        7.0 secs

     total energy              =   -1549.60908647 Ry
     estimated scf accuracy    <       0.00006387 Ry

     iteration #  5     ecut=    50.00 Ry     beta= 0.70
     Davidson diagonalization with overlap
     c_bands:  1 eigenvalues not converged
     ethr =  2.90E-07,  avg # of iterations =  4.4

     total cpu time spent up to now is        7.9 secs

     total energy              =   -1549.60911303 Ry
     estimated scf accuracy    <       0.00000117 Ry

     iteration #  6     ecut=    50.00 Ry     beta= 0.70
     Davidson diagonalization with overlap
     ethr =  5.32E-09,  avg # of iterations =  7.8

     total cpu time spent up to now is        9.3 secs

     total energy              =   -1549.60911687 Ry
     estimated scf accuracy    <       0.00000139 Ry

     iteration #  7     ecut=    50.00 Ry     beta= 0.70
     Davidson diagonalization with overlap
     ethr =  5.32E-09,  avg # of iterations =  1.8

     total cpu time spent up to now is        9.8 secs

     End of self-consistent calculation

          k = 0.0000 0.0000 0.0000 (   847 PWs)   bands (ev):

    14.2662  17.1508  17.1508  21.7673  21.7673  21.7673  25.8406  25.8406
    28.7572  28.7572  28.7572  37.9459  37.9459  37.9459  47.9370

          k = 0.0000 0.0000 0.0833 (   835 PWs)   bands (ev):

    14.4775  17.2570  17.3252  21.7700  21.7700  21.8604  25.6150  25.9253
    28.2941  28.2941  28.5969  37.0708  38.6365  38.6365  48.6919

          k = 0.0000 0.0000 0.1667 (   832 PWs)   bands (ev):

    15.0915  17.5732  17.8153  21.7933  21.7933  22.1360  24.9835  26.1657
    27.2164  27.2164  28.1402  35.1127  40.3899  40.3899  49.5316

          k = 0.0000 0.0000 0.2500 (   844 PWs)   bands (ev):

    16.0457  18.0924  18.5099  21.8792  21.8792  22.5858  24.0564  25.9711
    25.9711  26.5212  27.4500  32.8868  42.7348  42.7348  48.8456

          k = 0.0000 0.0000 0.3333 (   836 PWs)   bands (ev):

    17.2210  18.8019  19.1995  22.0808  22.0808  22.9624  23.1946  24.7978
    24.7978  26.6083  26.9372  30.8059  45.3832  45.3832  47.6139

          k = 0.0000 0.0000 0.4167 (   836 PWs)   bands (ev):

    18.4118  19.5638  19.6811  21.8145  22.4468  22.4468  23.7989  23.7989
    23.9397  25.6972  27.3991  29.1379  46.6907  47.4343  48.1318

          k = 0.0000 0.0000-0.5000 (   820 PWs)   bands (ev):

    19.2986  19.2988  20.6997  20.7000  23.0134  23.0134  23.0138  23.0138
    24.7884  24.7888  28.0407  28.0411  46.5426  46.5426  50.6968

          k = 0.0000 0.0833 0.0833 (   835 PWs)   bands (ev):

    14.6821  17.3912  17.4686  21.5721  21.7632  22.1554  25.5781  25.8563
    27.5622  27.8368  28.8203  37.6925  37.7866  39.2076  48.2092

          k = 0.0000 0.0833 0.1667 (   835 PWs)   bands (ev):

    15.2740  17.7048  17.9491  21.4341  21.7628  22.5973  25.0810  26.0566
    26.4092  26.7876  28.6454  35.7281  39.4152  40.7407  48.5015

          k = 0.0000 0.0833 0.2500 (   833 PWs)   bands (ev):

    16.1835  18.1975  18.6417  21.4133  21.8061  23.1583  24.2853  25.1909
    25.6146  26.4286  28.0930  33.4301  41.5620  42.9023  48.9224

          k = 0.0000 0.0833 0.3333 (   839 PWs)   bands (ev):

    17.2825  18.8447  19.3266  21.5421  21.8544  23.4567  23.8397  24.0652
    24.5936  26.8655  27.3114  31.2367  43.7056  45.4250  48.4349

          k = 0.0000 0.0833 0.4167 (   838 PWs)   bands (ev):

    18.3721  19.4160  19.8686  21.5178  21.8539  23.1141  23.1169  23.8655
    24.6305  26.4193  27.3690  29.4008  45.0950  46.7488  48.1029

          k = 0.0000 0.0833-0.5000 (   834 PWs)   bands (ev):

    19.1908  19.1909  20.6895  20.6898  22.3740  22.3742  23.3902  23.3905
    25.5045  25.5048  28.1213  28.1216  45.7230  45.7230  49.8130

          k = 0.0000 0.1667 0.1667 (   836 PWs)   bands (ev):

    15.7906  17.9992  18.4072  21.0667  21.7242  23.2794  25.1616  25.1816
    25.8387  25.9200  28.9949  36.8156  37.7021  41.7865  48.3832

          k = 0.0000 0.1667 0.2500 (   837 PWs)   bands (ev):

    16.5460  18.3738  19.1237  20.8457  21.7671  23.9740  24.0489  24.7807
    24.8707  26.1948  28.8677  34.6613  39.2999  43.4588  48.1399

          k = 0.0000 0.1667 0.3333 (   842 PWs)   bands (ev):

    17.3861  18.7530  19.8873  20.8083  21.8618  22.9043  24.2230  24.2910
    24.8907  26.6627  28.3500  32.2373  41.1969  45.6061  46.9758

          k = 0.0000 0.1667 0.4167 (   842 PWs)   bands (ev):

    18.1448  18.9248  20.5541  20.9833  21.7078  22.0327  24.0581  24.1168
    25.7865  27.2764  27.5873  30.0517  42.7726  45.3257  48.0477

          k = 0.0000 0.1667-0.5000 (   834 PWs)   bands (ev):

    18.6991  18.6991  21.1841  21.1843  21.3893  21.3893  24.1332  24.1333
    26.7038  26.7040  28.3404  28.3407  44.0001  44.0001  48.2828

          k = 0.0000 0.2500 0.2500 (   846 PWs)   bands (ev):

    16.9978  18.4904  19.9215  20.4324  22.0036  22.8138  24.2362  25.0099
    25.1404  26.0589  29.2391  35.1514  37.8608  44.5038  47.2462

          k = 0.0000 0.2500 0.3333 (   843 PWs)   bands (ev):

    17.4056  18.4838  20.2231  20.8251  21.8212  22.4756  24.0416  25.0667
    25.9969  26.3872  29.1358  33.1458  38.9804  45.5832  46.0636

          k = 0.0000 0.2500 0.4167 (   844 PWs)   bands (ev):

    17.7432  18.3186  20.2466  21.0478  21.6318  22.6520  24.3585  25.0431
    26.9710  27.1174  28.6387  30.7383  40.5424  43.6927  46.3995

          k = 0.0000 0.2500-0.5000 (   824 PWs)   bands (ev):

    18.0489  18.0489  20.5200  20.5200  22.2746  22.2749  24.8471  24.8471
    27.8787  27.8788  28.6049  28.6052  42.0614  42.0614  46.4680

          k = 0.0000 0.3333 0.3333 (   848 PWs)   bands (ev):

    17.3619  18.1182  19.8513  20.9251  21.9384  23.5334  24.2144  25.5372
    26.2647  27.0756  29.4903  32.7925  38.1314  43.8660  45.3359

          k = 0.0000 0.3333 0.4167 (   837 PWs)   bands (ev):

    17.3671  17.7595  19.7249  20.2636  22.9716  24.1128  24.7399  25.7188
    26.8824  28.0579  29.3753  30.9209  38.8928  41.9279  44.7675

          k = 0.0000 0.3333-0.5000 (   834 PWs)   bands (ev):

    17.4953  17.4954  19.8608  19.8608  23.7394  23.7397  25.3911  25.3912
    28.7007  28.7009  28.8600  28.8601  40.2509  40.2510  44.8277

          k = 0.0000 0.4167 0.4167 (   842 PWs)   bands (ev):

    17.1472  17.3476  19.4540  19.7244  24.3479  25.1776  25.3475  26.4651
    26.5532  28.9429  29.6788  30.0576  38.3743  40.2259  43.8484

          k = 0.0000 0.4167-0.5000 (   844 PWs)   bands (ev):

    17.1369  17.1369  19.4519  19.4519  25.2696  25.2699  25.7997  25.7999
    28.3382  28.3384  29.5168  29.5168  38.9457  38.9457  43.7033

          k = 0.0000-0.5000-0.5000 (   840 PWs)   bands (ev):

    17.0136  17.0136  19.3138  19.3138  25.7124  25.7126  26.5504  26.5509
    27.7256  27.7256  29.7489  29.7489  38.4754  38.4755  43.3023

          k = 0.0833 0.0833 0.0833 (   829 PWs)   bands (ev):

    14.8819  17.5673  17.5673  21.5578  21.5578  22.4622  25.6778  25.6778
    26.6235  28.3603  28.3603  38.1756  38.3709  38.3709  48.3781

          k = 0.0833 0.0833 0.1667 (   837 PWs)   bands (ev):

    15.4570  17.8597  18.0591  21.3485  21.5257  22.9975  25.1790  25.3984
    25.9541  27.2972  28.4564  36.2929  39.4811  40.0792  48.6445

          k = 0.0833 0.0833 0.2500 (   826 PWs)   bands (ev):

    16.3313  18.3350  18.7431  21.2973  21.4945  23.6524  24.2267  24.4659
    26.0829  26.3485  28.0833  33.9773  41.2188  42.3304  48.9280

          k = 0.0833 0.0833 0.3333 (   841 PWs)   bands (ev):

    17.3675  18.9711  19.3672  21.4336  21.4619  23.2873  23.7275  24.4118
    24.9620  26.8048  27.4235  31.7305  43.0237  44.7989  47.9587

          k = 0.0833 0.0833 0.4167 (   840 PWs)   bands (ev):

    18.3760  19.5620  19.7277  21.1581  21.8430  22.6998  23.2996  24.0544
    25.2179  26.6725  27.3658  29.7709  44.3250  46.2763  47.1732

          k = 0.0833 0.0833-0.5000 (   838 PWs)   bands (ev):

    19.1694  19.1695  20.5200  20.5203  22.2986  22.2986  23.4505  23.4507
    25.9599  25.9601  28.2853  28.2857  45.1481  45.1482  48.8810

          k = 0.0833 0.1667 0.1667 (   837 PWs)   bands (ev):

    15.9735  18.1854  18.4825  21.0301  21.4053  23.7209  24.1604  25.2714
    25.8323  26.7221  28.5373  37.4673  37.7944  40.8967  48.6541

          k = 0.0833 0.1667 0.2500 (   833 PWs)   bands (ev):

    16.7210  18.5658  19.1754  20.8075  21.3934  23.0646  24.5517  24.8986
    25.6952  26.1450  28.4523  35.1984  39.3206  42.5543  48.2902

          k = 0.0833 0.1667 0.3333 (   837 PWs)   bands (ev):

    17.5318  18.9573  19.8345  20.7638  21.4931  22.3092  24.3788  24.8088
    25.4674  26.6380  27.9883  32.8133  40.9946  44.5742  46.8560

          k = 0.0833 0.1667 0.4167 (   842 PWs)   bands (ev):

    18.2448  19.1016  20.2621  20.7811  21.6624  21.9946  24.0856  24.2870
    26.2135  27.3265  27.4258  30.6318  42.4559  45.1081  46.4781

          k = 0.0833 0.1667-0.5000 (   838 PWs)   bands (ev):

    18.7988  18.7988  20.6160  20.6161  21.8264  21.8265  24.1012  24.1014
    26.7194  26.7196  28.7939  28.7942  43.7056  43.7056  47.6318

          k = 0.0833 0.2500 0.2500 (   840 PWs)   bands (ev):

    17.2005  18.6954  19.9554  20.3969  21.5789  22.0804  24.9717  25.1875
    25.5992  26.0381  28.7558  35.8100  37.7727  43.4577  47.5362

          k = 0.0833 0.2500 0.3333 (   841 PWs)   bands (ev):

    17.6051  18.6759  20.1939  20.7284  21.4841  22.0390  24.5196  25.0704
    26.3150  26.7110  28.6173  33.8089  38.8679  44.7333  45.5490

          k = 0.0833 0.2500 0.4167 (   835 PWs)   bands (ev):

    17.9109  18.4788  20.1981  20.6675  21.8292  22.4158  24.5542  24.9423
    26.7160  27.9835  28.0626  31.5327  40.3678  43.5775  45.8270

          k = 0.0833 0.2500-0.5000 (   838 PWs)   bands (ev):

    18.1949  18.1949  20.3757  20.3757  22.2988  22.2990  24.8327  24.8327
    27.3106  27.3108  29.5587  29.5588  41.8875  41.8875  46.1781

          k = 0.0833 0.3333 0.3333 (   848 PWs)   bands (ev):

    17.5741  18.2878  19.8337  20.7098  21.9060  23.0200  24.5286  25.4974
    26.2718  27.8118  28.8637  33.6153  37.9717  43.7956  45.0309

          k = 0.0833 0.3333 0.4167 (   838 PWs)   bands (ev):

    17.5633  17.9215  19.7130  20.1808  22.9179  23.7745  24.8946  25.5874
    26.6431  28.5325  28.9707  31.9913  38.7312  41.8135  45.0164

          k = 0.0833 0.3333-0.5000 (   836 PWs)   bands (ev):

    17.6693  17.6693  19.8344  19.8344  23.6246  23.6249  25.3927  25.3928
    27.6184  27.6186  30.3011  30.3011  40.1002  40.1003  44.7778

          k = 0.0833 0.4167 0.4167 (   843 PWs)   bands (ev):

    17.3485  17.5234  19.4545  19.7092  24.2082  25.1330  25.2907  25.9713
    26.4758  28.3998  29.9135  31.6177  38.1931  40.0830  44.2201

          k = 0.0833 0.4167-0.5000 (   836 PWs)   bands (ev):

    17.3288  17.3289  19.4543  19.4543  25.1492  25.1494  25.7479  25.7481
    27.4498  27.4500  30.7804  30.7805  38.7753  38.7753  43.7890

          k = 0.0833-0.5000-0.5000 (   848 PWs)   bands (ev):

    17.2117  17.2118  19.3216  19.3216  25.7716  25.7718  26.5596  26.5601
    26.6673  26.6673  30.9333  30.9333  38.2902  38.2902  43.4339

          k = 0.1667 0.1667 0.1667 (   832 PWs)   bands (ev):

    16.4837  18.7017  18.7017  20.9357  20.9357  22.9249  24.5846  25.5782
    25.5782  27.5080  27.5080  37.9917  39.0639  39.0639  49.1691

          k = 0.1667 0.1667 0.2500 (   835 PWs)   bands (ev):

    17.1926  19.0437  19.3764  20.6983  20.8160  21.9167  25.1961  25.5794
    26.0129  26.3783  27.7771  36.3361  39.1264  41.0836  48.2517

          k = 0.1667 0.1667 0.3333 (   843 PWs)   bands (ev):

    17.8778  19.4678  19.6941  20.6897  20.8741  21.5407  24.7718  25.4012
    26.3338  26.8070  27.5633  33.9971  40.1960  43.1731  46.3816

          k = 0.1667 0.1667 0.4167 (   844 PWs)   bands (ev):

    18.3930  19.3290  19.9081  20.5321  21.4180  21.8416  24.4471  24.7112
    26.6053  27.1281  28.1619  31.7813  41.4526  44.4207  45.0362

          k = 0.1667 0.1667-0.5000 (   828 PWs)   bands (ev):

    18.8400  18.8401  20.2809  20.2809  21.8859  21.8861  24.3906  24.3907
    26.7922  26.7925  29.8185  29.8186  42.8081  42.8082  46.4293

          k = 0.1667 0.2500 0.2500 (   840 PWs)   bands (ev):

    17.7705  19.2811  20.0455  20.3101  20.8064  21.0164  25.4513  25.9672
    25.9962  26.7386  27.7474  37.3333  37.5872  41.3813  47.4991

          k = 0.1667 0.2500 0.3333 (   843 PWs)   bands (ev):

    18.1570  19.1796  20.1513  20.3094  21.1674  21.1698  25.2890  25.3673
    26.3022  27.6877  27.9648  35.1328  38.6174  42.7124  45.3942

          k = 0.1667 0.2500 0.4167 (   833 PWs)   bands (ev):

    18.3261  18.8266  20.1506  20.2237  21.7879  21.8912  25.0340  25.0712
    26.6273  27.3147  29.3344  32.9224  39.8734  43.1998  44.1397

          k = 0.1667 0.2500-0.5000 (   834 PWs)   bands (ev):

    18.5122  18.5123  20.1910  20.1910  22.1410  22.1413  24.9810  24.9810
    26.9057  26.9060  30.9690  30.9691  41.3662  41.3662  45.2789

          k = 0.1667 0.3333 0.3333 (   838 PWs)   bands (ev):

    18.1850  18.6995  19.7993  20.3621  21.7917  21.9910  25.2184  25.6323
    26.2834  27.8179  29.2304  35.2519  37.5653  43.0546  43.5944

          k = 0.1667 0.3333 0.4167 (   834 PWs)   bands (ev):

    18.1094  18.3214  19.7113  20.0790  22.6876  22.8665  25.3036  25.6219
    26.5382  27.5351  30.5212  33.6607  38.3198  41.4883  43.7456

          k = 0.1667 0.3333-0.5000 (   836 PWs)   bands (ev):

    18.1256  18.1257  19.8287  19.8287  23.1560  23.1562  25.5118  25.5119
    26.9731  26.9735  31.9650  31.9650  39.6930  39.6930  44.4018

          k = 0.1667 0.4167 0.4167 (   837 PWs)   bands (ev):

    17.9230  17.9931  19.4725  19.7274  23.7469  24.0307  25.5901  25.8790
    26.5033  27.3847  31.6010  33.5100  37.7077  39.7004  43.7172

          k = 0.1667 0.4167-0.5000 (   842 PWs)   bands (ev):

    17.8665  17.8665  19.4887  19.4887  24.4110  24.4111  25.8360  25.8362
    26.8340  26.8344  32.6197  32.6197  38.3221  38.3222  43.8832

          k = 0.1667-0.5000-0.5000 (   844 PWs)   bands (ev):

    17.7777  17.7778  19.3606  19.3606  25.1325  25.1325  25.9380  25.9383
    26.5850  26.5855  32.8425  32.8425  37.7873  37.7873  43.7204

          k = 0.2500 0.2500 0.2500 (   847 PWs)   bands (ev):

    18.5293  20.0714  20.1591  20.1591  20.2188  20.2188  25.8341  25.8341
    26.7371  26.7371  28.0409  37.4370  39.1643  39.1643  47.2494

          k = 0.2500 0.2500 0.3333 (   842 PWs)   bands (ev):

    18.8473  19.3538  20.1683  20.2474  20.4454  21.1176  25.6501  25.9633
    26.2479  27.0262  29.3752  36.3349  38.2937  41.0062  44.9123

          k = 0.2500 0.2500 0.4167 (   834 PWs)   bands (ev):

    18.7002  18.8805  20.1784  20.2697  21.3265  21.8474  25.4681  25.5169
    26.5675  26.9438  30.7751  34.2645  39.0644  42.4131  42.6827

          k = 0.2500 0.2500-0.5000 (   836 PWs)   bands (ev):

    18.6687  18.6688  20.2299  20.2299  21.9427  21.9429  25.3836  25.3837
    26.7611  26.7614  32.3748  32.3748  40.4580  40.4581  44.1111

          k = 0.2500 0.3333 0.3333 (   839 PWs)   bands (ev):

    18.9392  19.1057  19.7935  20.4877  20.9665  21.5593  25.9171  25.9283
    26.2793  26.9614  30.7663  37.0877  37.1008  40.9508  43.2150

          k = 0.2500 0.3333 0.4167 (   841 PWs)   bands (ev):

    18.6651  18.8286  19.8297  20.2990  21.8731  22.2490  25.8051  25.8837
    26.5151  26.9059  32.1263  35.2734  37.8849  40.9654  42.0855

          k = 0.2500 0.3333-0.5000 (   840 PWs)   bands (ev):

    18.6296  18.6297  20.0377  20.0377  22.4227  22.4229  25.8132  25.8134
    26.7190  26.7194  33.5832  33.5832  39.1375  39.1376  43.3882

          k = 0.2500 0.4167 0.4167 (   837 PWs)   bands (ev):

    18.5461  18.7717  19.5476  19.9744  22.7936  22.9768  25.9784  26.0987
    26.5359  26.8496  33.3289  35.4808  37.0696  39.2050  42.4879

          k = 0.2500 0.4167-0.5000 (   842 PWs)   bands (ev):

    18.6062  18.6063  19.6510  19.6511  23.2816  23.2817  26.0907  26.0910
    26.6689  26.6693  34.4725  34.4725  37.7672  37.7673  43.4406

          k = 0.2500-0.5000-0.5000 (   856 PWs)   bands (ev):

    18.6195  18.6196  19.4678  19.4678  23.7088  23.7088  26.1771  26.1774
    26.6198  26.6203  34.8763  34.8763  37.1017  37.1017  43.8503

          k = 0.3333 0.3333 0.3333 (   838 PWs)   bands (ev):

    18.8415  19.8666  19.8666  20.4392  21.2000  21.2000  26.2461  26.2461
    26.4321  26.4321  32.2322  36.7879  38.9309  38.9309  42.0535

          k = 0.3333 0.3333 0.4167 (   845 PWs)   bands (ev):

    18.7951  19.3511  20.0544  20.7714  21.3384  21.8523  26.1911  26.1971
    26.5105  26.6437  33.5840  36.2802  37.7961  40.0842  40.6857

          k = 0.3333 0.3333-0.5000 (   848 PWs)   bands (ev):

    18.9544  18.9545  20.3657  20.3659  21.9412  21.9414  26.1509  26.1512
    26.6434  26.6438  34.9301  34.9301  38.4839  38.4841  42.2961

          k = 0.3333 0.4167 0.4167 (   845 PWs)   bands (ev):

    18.9384  19.6727  19.7285  20.5923  21.7921  22.0837  26.3401  26.3639
    26.5612  26.6385  34.8018  36.4765  37.4604  38.7601  40.8499

          k = 0.3333 0.4167-0.5000 (   848 PWs)   bands (ev):

    19.2363  19.2364  20.1141  20.1142  22.2174  22.2174  26.3707  26.3710
    26.6407  26.6411  35.8533  35.8534  37.6265  37.6266  42.1659

          k = 0.3333-0.5000-0.5000 (   840 PWs)   bands (ev):

    19.5649  19.5651  19.6917  19.6917  22.4741  22.4741  26.4294  26.4298
    26.6549  26.6554  36.4086  36.4086  36.9325  36.9325  42.8580

          k = 0.4167 0.4167 0.4167 (   858 PWs)   bands (ev):

    19.2734  20.0581  20.0581  21.2492  21.2492  21.3891  26.5718  26.5718
    26.5778  26.5778  35.7004  36.1124  38.4582  39.3847  39.3847

          k = 0.4167 0.4167-0.5000 (   860 PWs)   bands (ev):

    19.6909  19.6909  20.5637  20.5640  21.5096  21.5097  26.5707  26.5711
    26.6520  26.6524  35.9868  35.9869  38.5374  38.5375  41.1767

          k = 0.4167-0.5000-0.5000 (   860 PWs)   bands (ev):

    20.0766  20.0766  20.3464  20.3466  21.4543  21.4543  26.6202  26.6206
    26.6807  26.6812  35.8885  35.8887  38.9393  38.9394  41.3580

          k =-0.5000-0.5000-0.5000 (   840 PWs)   bands (ev):

    20.6573  20.6573  20.6573  20.6576  20.6576  20.6576  26.6902  26.6902
    26.6907  26.6907  35.6940  35.6942  40.8047  40.8048  40.8048

     the Fermi energy is    31.3478 ev

!    total energy              =   -1549.60911693 Ry

     total all-electron energy =    -76047.301299 Ry
     estimated scf accuracy    <       0.00000011 Ry
     smearing contrib. (-TS)   =      -0.12409775 Ry
     internal energy E=F+TS    =   -1549.48501918 Ry

     The total energy is F=E-TS. E is the sum of the following terms:
     one-electron contribution =      63.02535557 Ry
     hartree contribution      =       8.04044249 Ry
     xc contribution           =     -65.70514537 Ry
     ewald contribution        =    -169.38887170 Ry
     one-center paw contrib.   =   -1385.45680017 Ry

     convergence has been achieved in   7 iterations

     Forces acting on atoms (cartesian axes, Ry/au):

     atom    1 type  1   force =     0.00000000    0.00000000    0.00000000
     atom    2 type  1   force =     0.00000000    0.00000000    0.00000000

     Total force =     0.000000     Total SCF correction =     0.000000

     Writing all to output data dir ./pwscf.save/
 
     init_run     :      0.40s CPU      1.06s WALL (       1 calls)
     electrons    :      7.82s CPU      8.08s WALL (       1 calls)
     forces       :      0.03s CPU      0.03s WALL (       1 calls)

     Called by init_run:
     wfcinit      :      0.33s CPU      0.56s WALL (       1 calls)
     potinit      :      0.04s CPU      0.13s WALL (       1 calls)
     hinit0       :      0.03s CPU      0.31s WALL (       1 calls)

     Called by electrons:
     c_bands      :      7.16s CPU      7.35s WALL (       8 calls)
     sum_band     :      0.42s CPU      0.43s WALL (       8 calls)
     v_of_rho     :      0.01s CPU      0.01s WALL (       8 calls)
     newd         :      0.01s CPU      0.04s WALL (       8 calls)
     PAW_pot      :      0.25s CPU      0.37s WALL (       8 calls)
     mix_rho      :      0.00s CPU      0.00s WALL (       8 calls)

     Called by c_bands:
     init_us_2    :      0.02s CPU      0.02s WALL (    1512 calls)
     init_us_2:cp :      0.02s CPU      0.02s WALL (    1512 calls)
     cegterg      :      7.06s CPU      7.24s WALL (     672 calls)

     Called by *egterg:
     cdiaghg      :      3.55s CPU      3.81s WALL (    4152 calls)
     h_psi        :      2.30s CPU      2.39s WALL (    4320 calls)
     s_psi        :      0.04s CPU      0.04s WALL (    4320 calls)
     g_psi        :      0.01s CPU      0.01s WALL (    3564 calls)

     Called by h_psi:
     h_psi:calbec :      0.19s CPU      0.21s WALL (    4320 calls)
     vloc_psi     :      2.04s CPU      2.11s WALL (    4320 calls)
     add_vuspsi   :      0.05s CPU      0.05s WALL (    4320 calls)

     General routines
     calbec       :      0.23s CPU      0.26s WALL (    5328 calls)
     fft          :      0.01s CPU      0.26s WALL (     100 calls)
     ffts         :      0.00s CPU      0.00s WALL (       8 calls)
     fftw         :      2.20s CPU      2.27s WALL (   84082 calls)
 
     Parallel routines
 
     PWSCF        :      8.61s CPU     10.78s WALL

 
   This run was terminated on:  11:27: 6   6Apr2024            

=------------------------------------------------------------------------------=
   JOB DONE.
=------------------------------------------------------------------------------=
