MPI startup(): Warning: I_MPI_PMI_LIBRARY will be ignored since the hydra process manager was found
MPI startup(): Warning: I_MPI_PMI_LIBRARY will be ignored since the hydra process manager was found
MPI startup(): Warning: I_MPI_PMI_LIBRARY will be ignored since the hydra process manager was found
MPI startup(): Warning: I_MPI_PMI_LIBRARY will be ignored since the hydra process manager was found
MPI startup(): Warning: I_MPI_PMI_LIBRARY will be ignored since the hydra process manager was found
MPI startup(): Warning: I_MPI_PMI_LIBRARY will be ignored since the hydra process manager was found
MPI startup(): Warning: I_MPI_PMI_LIBRARY will be ignored since the hydra process manager was found
MPI startup(): Warning: I_MPI_PMI_LIBRARY will be ignored since the hydra process manager was found
MPI startup(): Warning: I_MPI_PMI_LIBRARY will be ignored since the hydra process manager was found
MPI startup(): Warning: I_MPI_PMI_LIBRARY will be ignored since the hydra process manager was found

     Program PWSCF v.7.0 starts on  6Apr2024 at 11:27:22 

     This program is part of the open-source Quantum ESPRESSO suite
     for quantum simulation of materials; please cite
         "P. Giannozzi et al., J. Phys.:Condens. Matter 21 395502 (2009);
         "P. Giannozzi et al., J. Phys.:Condens. Matter 29 465901 (2017);
         "P. Giannozzi et al., J. Chem. Phys. 152 154105 (2020);
          URL http://www.quantum-espresso.org", 
     in publications or presentations arising from this work. More details at
     http://www.quantum-espresso.org/quote

     Parallel version (MPI), running on    10 processors

     MPI processes distributed on     1 nodes
     R & G space division:  proc/nbgrp/npool/nimage =      10
     237767 MiB available memory on the printing compute node when the environment starts
 
     Reading input from VolumeBCC_10.5.in
Warning: card &CELL ignored
Warning: card / ignored

     Current dimensions of program PWSCF are:
     Max number of different atomic species (ntypx) = 10
     Max number of k-points (npk) =  40000
     Max angular momentum in pseudopotentials (lmaxx) =  4
     file Au.pbe-n-kjpaw_psl.1.0.0.UPF: wavefunction(s)  6S 5D renormalized
     Found identity + ( -0.5000 -0.5000 -0.5000) symmetry
     This is a supercell, fractional translations are disabled
     Message from routine setup:
     using ibrav=0 with symmetry is DISCOURAGED, use correct ibrav instead

     Subspace diagonalization in iterative solution of the eigenvalue problem:
     one sub-group per band group will be used
     scalapack distributed-memory algorithm (size of sub-group:  3*  3 procs)

 
     Parallelization info
     --------------------
     sticks:   dense  smooth     PW     G-vecs:    dense   smooth      PW
     Min         175     175     50                 5545     5545     840
     Max         176     176     51                 5548     5548     842
     Sum        1757    1757    505                55467    55467    8409
 
     Using Slab Decomposition
 


     bravais-lattice index     =            0
     lattice parameter (alat)  =      10.4985  a.u.
     unit-cell volume          =    1157.1218 (a.u.)^3
     number of atoms/cell      =            2
     number of atomic types    =            1
     number of electrons       =        22.00
     number of Kohn-Sham states=           15
     kinetic-energy cutoff     =      50.0000  Ry
     charge density cutoff     =     200.0000  Ry
     scf convergence threshold =      1.0E-06
     mixing beta               =       0.7000
     number of iterations used =            8  plain     mixing
     Exchange-correlation= SLA  PW   PBX  PBC
                           (   1   4   3   4   0   0   0)

     celldm(1)=  10.498478  celldm(2)=   0.000000  celldm(3)=   0.000000
     celldm(4)=   0.000000  celldm(5)=   0.000000  celldm(6)=   0.000000

     crystal axes: (cart. coord. in units of alat)
               a(1) = (   1.000000   0.000000   0.000000 )  
               a(2) = (   0.000000   1.000000   0.000000 )  
               a(3) = (   0.000000   0.000000   1.000000 )  

     reciprocal axes: (cart. coord. in units 2 pi/alat)
               b(1) = (  1.000000  0.000000  0.000000 )  
               b(2) = (  0.000000  1.000000  0.000000 )  
               b(3) = (  0.000000  0.000000  1.000000 )  


     PseudoPot. # 1 for Au read from file:
     ./Au.pbe-n-kjpaw_psl.1.0.0.UPF
     MD5 check sum: 4db85c736373c707a97ce4c36c2a9d23
     Pseudo is Projector augmented-wave + core cor, Zval = 11.0
     Generated using &quot;atomic&quot; code by A. Dal Corso  v.6.3
     Shape of augmentation charge: PSQ
     Using radial grid of 1279 points,  6 beta functions with: 
                l(1) =   0
                l(2) =   0
                l(3) =   1
                l(4) =   1
                l(5) =   2
                l(6) =   2
     Q(r) pseudized with 0 coefficients 


     atomic species   valence    mass     pseudopotential
        Au            11.00   196.96657     Au( 1.00)

     48 Sym. Ops., with inversion, found



   Cartesian axes

     site n.     atom                  positions (alat units)
         1           Au  tau(   1) = (   0.0000000   0.0000000   0.0000000  )
         2           Au  tau(   2) = (   0.5000000   0.5000000   0.5000000  )

     number of k points=    84  Gaussian smearing, width (Ry)=  0.2000
                       cart. coord. in units 2pi/alat
        k(    1) = (   0.0000000   0.0000000   0.0000000), wk =   0.0011574
        k(    2) = (   0.0000000   0.0000000   0.0833333), wk =   0.0069444
        k(    3) = (   0.0000000   0.0000000   0.1666667), wk =   0.0069444
        k(    4) = (   0.0000000   0.0000000   0.2500000), wk =   0.0069444
        k(    5) = (   0.0000000   0.0000000   0.3333333), wk =   0.0069444
        k(    6) = (   0.0000000   0.0000000   0.4166667), wk =   0.0069444
        k(    7) = (   0.0000000   0.0000000  -0.5000000), wk =   0.0034722
        k(    8) = (   0.0000000   0.0833333   0.0833333), wk =   0.0138889
        k(    9) = (   0.0000000   0.0833333   0.1666667), wk =   0.0277778
        k(   10) = (   0.0000000   0.0833333   0.2500000), wk =   0.0277778
        k(   11) = (   0.0000000   0.0833333   0.3333333), wk =   0.0277778
        k(   12) = (   0.0000000   0.0833333   0.4166667), wk =   0.0277778
        k(   13) = (   0.0000000   0.0833333  -0.5000000), wk =   0.0138889
        k(   14) = (   0.0000000   0.1666667   0.1666667), wk =   0.0138889
        k(   15) = (   0.0000000   0.1666667   0.2500000), wk =   0.0277778
        k(   16) = (   0.0000000   0.1666667   0.3333333), wk =   0.0277778
        k(   17) = (   0.0000000   0.1666667   0.4166667), wk =   0.0277778
        k(   18) = (   0.0000000   0.1666667  -0.5000000), wk =   0.0138889
        k(   19) = (   0.0000000   0.2500000   0.2500000), wk =   0.0138889
        k(   20) = (   0.0000000   0.2500000   0.3333333), wk =   0.0277778
        k(   21) = (   0.0000000   0.2500000   0.4166667), wk =   0.0277778
        k(   22) = (   0.0000000   0.2500000  -0.5000000), wk =   0.0138889
        k(   23) = (   0.0000000   0.3333333   0.3333333), wk =   0.0138889
        k(   24) = (   0.0000000   0.3333333   0.4166667), wk =   0.0277778
        k(   25) = (   0.0000000   0.3333333  -0.5000000), wk =   0.0138889
        k(   26) = (   0.0000000   0.4166667   0.4166667), wk =   0.0138889
        k(   27) = (   0.0000000   0.4166667  -0.5000000), wk =   0.0138889
        k(   28) = (   0.0000000  -0.5000000  -0.5000000), wk =   0.0034722
        k(   29) = (   0.0833333   0.0833333   0.0833333), wk =   0.0092593
        k(   30) = (   0.0833333   0.0833333   0.1666667), wk =   0.0277778
        k(   31) = (   0.0833333   0.0833333   0.2500000), wk =   0.0277778
        k(   32) = (   0.0833333   0.0833333   0.3333333), wk =   0.0277778
        k(   33) = (   0.0833333   0.0833333   0.4166667), wk =   0.0277778
        k(   34) = (   0.0833333   0.0833333  -0.5000000), wk =   0.0138889
        k(   35) = (   0.0833333   0.1666667   0.1666667), wk =   0.0277778
        k(   36) = (   0.0833333   0.1666667   0.2500000), wk =   0.0555556
        k(   37) = (   0.0833333   0.1666667   0.3333333), wk =   0.0555556
        k(   38) = (   0.0833333   0.1666667   0.4166667), wk =   0.0555556
        k(   39) = (   0.0833333   0.1666667  -0.5000000), wk =   0.0277778
        k(   40) = (   0.0833333   0.2500000   0.2500000), wk =   0.0277778
        k(   41) = (   0.0833333   0.2500000   0.3333333), wk =   0.0555556
        k(   42) = (   0.0833333   0.2500000   0.4166667), wk =   0.0555556
        k(   43) = (   0.0833333   0.2500000  -0.5000000), wk =   0.0277778
        k(   44) = (   0.0833333   0.3333333   0.3333333), wk =   0.0277778
        k(   45) = (   0.0833333   0.3333333   0.4166667), wk =   0.0555556
        k(   46) = (   0.0833333   0.3333333  -0.5000000), wk =   0.0277778
        k(   47) = (   0.0833333   0.4166667   0.4166667), wk =   0.0277778
        k(   48) = (   0.0833333   0.4166667  -0.5000000), wk =   0.0277778
        k(   49) = (   0.0833333  -0.5000000  -0.5000000), wk =   0.0069444
        k(   50) = (   0.1666667   0.1666667   0.1666667), wk =   0.0092593
        k(   51) = (   0.1666667   0.1666667   0.2500000), wk =   0.0277778
        k(   52) = (   0.1666667   0.1666667   0.3333333), wk =   0.0277778
        k(   53) = (   0.1666667   0.1666667   0.4166667), wk =   0.0277778
        k(   54) = (   0.1666667   0.1666667  -0.5000000), wk =   0.0138889
        k(   55) = (   0.1666667   0.2500000   0.2500000), wk =   0.0277778
        k(   56) = (   0.1666667   0.2500000   0.3333333), wk =   0.0555556
        k(   57) = (   0.1666667   0.2500000   0.4166667), wk =   0.0555556
        k(   58) = (   0.1666667   0.2500000  -0.5000000), wk =   0.0277778
        k(   59) = (   0.1666667   0.3333333   0.3333333), wk =   0.0277778
        k(   60) = (   0.1666667   0.3333333   0.4166667), wk =   0.0555556
        k(   61) = (   0.1666667   0.3333333  -0.5000000), wk =   0.0277778
        k(   62) = (   0.1666667   0.4166667   0.4166667), wk =   0.0277778
        k(   63) = (   0.1666667   0.4166667  -0.5000000), wk =   0.0277778
        k(   64) = (   0.1666667  -0.5000000  -0.5000000), wk =   0.0069444
        k(   65) = (   0.2500000   0.2500000   0.2500000), wk =   0.0092593
        k(   66) = (   0.2500000   0.2500000   0.3333333), wk =   0.0277778
        k(   67) = (   0.2500000   0.2500000   0.4166667), wk =   0.0277778
        k(   68) = (   0.2500000   0.2500000  -0.5000000), wk =   0.0138889
        k(   69) = (   0.2500000   0.3333333   0.3333333), wk =   0.0277778
        k(   70) = (   0.2500000   0.3333333   0.4166667), wk =   0.0555556
        k(   71) = (   0.2500000   0.3333333  -0.5000000), wk =   0.0277778
        k(   72) = (   0.2500000   0.4166667   0.4166667), wk =   0.0277778
        k(   73) = (   0.2500000   0.4166667  -0.5000000), wk =   0.0277778
        k(   74) = (   0.2500000  -0.5000000  -0.5000000), wk =   0.0069444
        k(   75) = (   0.3333333   0.3333333   0.3333333), wk =   0.0092593
        k(   76) = (   0.3333333   0.3333333   0.4166667), wk =   0.0277778
        k(   77) = (   0.3333333   0.3333333  -0.5000000), wk =   0.0138889
        k(   78) = (   0.3333333   0.4166667   0.4166667), wk =   0.0277778
        k(   79) = (   0.3333333   0.4166667  -0.5000000), wk =   0.0277778
        k(   80) = (   0.3333333  -0.5000000  -0.5000000), wk =   0.0069444
        k(   81) = (   0.4166667   0.4166667   0.4166667), wk =   0.0092593
        k(   82) = (   0.4166667   0.4166667  -0.5000000), wk =   0.0138889
        k(   83) = (   0.4166667  -0.5000000  -0.5000000), wk =   0.0069444
        k(   84) = (  -0.5000000  -0.5000000  -0.5000000), wk =   0.0011574

     Dense  grid:    55467 G-vectors     FFT dimensions: (  48,  48,  48)

     Estimated max dynamical RAM per process >      34.17 MB

     Estimated total dynamical RAM >     341.72 MB

     Initial potential from superposition of free atoms

     starting charge      21.9998, renormalised to      22.0000
     Starting wfcs are   18 randomized atomic wfcs
     Checking if some PAW data can be deallocated... 

     total cpu time spent up to now is        1.6 secs

     Self-consistent Calculation

     iteration #  1     ecut=    50.00 Ry     beta= 0.70
     Davidson diagonalization with overlap
     ethr =  1.00E-02,  avg # of iterations =  2.0

     Threshold (ethr) on eigenvalues was too large:
     Diagonalizing with lowered threshold

     Davidson diagonalization with overlap
     ethr =  7.98E-04,  avg # of iterations =  1.8

     total cpu time spent up to now is        4.3 secs

     total energy              =   -1550.10330298 Ry
     estimated scf accuracy    <       0.17444665 Ry

     iteration #  2     ecut=    50.00 Ry     beta= 0.70
     Davidson diagonalization with overlap
     ethr =  7.93E-04,  avg # of iterations =  2.1

     total cpu time spent up to now is        6.0 secs

     total energy              =   -1550.17444913 Ry
     estimated scf accuracy    <       0.17581846 Ry

     iteration #  3     ecut=    50.00 Ry     beta= 0.70
     Davidson diagonalization with overlap
     ethr =  7.93E-04,  avg # of iterations =  1.0

     total cpu time spent up to now is        7.1 secs

     total energy              =   -1550.19556389 Ry
     estimated scf accuracy    <       0.01015904 Ry

     iteration #  4     ecut=    50.00 Ry     beta= 0.70
     Davidson diagonalization with overlap
     ethr =  4.62E-05,  avg # of iterations =  2.2

     total cpu time spent up to now is        8.6 secs

     total energy              =   -1550.19495110 Ry
     estimated scf accuracy    <       0.00344526 Ry

     iteration #  5     ecut=    50.00 Ry     beta= 0.70
     Davidson diagonalization with overlap
     ethr =  1.57E-05,  avg # of iterations =  4.6

     total cpu time spent up to now is       11.0 secs

     total energy              =   -1550.19448262 Ry
     estimated scf accuracy    <       0.01660221 Ry

     iteration #  6     ecut=    50.00 Ry     beta= 0.70
     Davidson diagonalization with overlap
     ethr =  1.57E-05,  avg # of iterations =  2.3

     total cpu time spent up to now is       12.6 secs

     total energy              =   -1550.19793586 Ry
     estimated scf accuracy    <       0.00002621 Ry

     iteration #  7     ecut=    50.00 Ry     beta= 0.70
     Davidson diagonalization with overlap
     ethr =  1.19E-07,  avg # of iterations =  8.8

     total cpu time spent up to now is       16.2 secs

     total energy              =   -1550.19801610 Ry
     estimated scf accuracy    <       0.00009246 Ry

     iteration #  8     ecut=    50.00 Ry     beta= 0.70
     Davidson diagonalization with overlap
     ethr =  1.19E-07,  avg # of iterations =  6.2

     total cpu time spent up to now is       18.9 secs

     total energy              =   -1550.19803338 Ry
     estimated scf accuracy    <       0.00036725 Ry

     iteration #  9     ecut=    50.00 Ry     beta= 0.70
     Davidson diagonalization with overlap
     ethr =  1.19E-07,  avg # of iterations =  2.0

     total cpu time spent up to now is       20.3 secs

     total energy              =   -1550.19797415 Ry
     estimated scf accuracy    <       0.00017812 Ry

     iteration # 10     ecut=    50.00 Ry     beta= 0.70
     Davidson diagonalization with overlap
     ethr =  1.19E-07,  avg # of iterations =  2.5

     total cpu time spent up to now is       21.9 secs

     total energy              =   -1550.19797753 Ry
     estimated scf accuracy    <       0.00002206 Ry

     iteration # 11     ecut=    50.00 Ry     beta= 0.70
     Davidson diagonalization with overlap
     ethr =  1.00E-07,  avg # of iterations =  3.4

     total cpu time spent up to now is       23.8 secs

     total energy              =   -1550.19799022 Ry
     estimated scf accuracy    <       0.00000684 Ry

     iteration # 12     ecut=    50.00 Ry     beta= 0.70
     Davidson diagonalization with overlap
     ethr =  3.11E-08,  avg # of iterations =  2.2

     total cpu time spent up to now is       25.1 secs

     total energy              =   -1550.19799079 Ry
     estimated scf accuracy    <       0.00000205 Ry

     iteration # 13     ecut=    50.00 Ry     beta= 0.70
     Davidson diagonalization with overlap
     ethr =  9.32E-09,  avg # of iterations =  2.6

     total cpu time spent up to now is       26.7 secs

     total energy              =   -1550.19799096 Ry
     estimated scf accuracy    <       0.00000106 Ry

     iteration # 14     ecut=    50.00 Ry     beta= 0.70
     Davidson diagonalization with overlap
     ethr =  4.80E-09,  avg # of iterations =  1.6

     total cpu time spent up to now is       28.3 secs

     End of self-consistent calculation

          k = 0.0000 0.0000 0.0000 (  6931 PWs)   bands (ev):

    -4.0447  -4.0447  -4.0195  -4.0195  -4.0195  -3.9548  -3.9548  -3.9171
    -3.9171  -3.9171  -3.1532  -1.3794   3.2380   3.2380   3.2380

          k = 0.0000 0.0000 0.0833 (  6935 PWs)   bands (ev):

    -4.0431  -4.0415  -4.0185  -4.0185  -4.0178  -3.9563  -3.9545  -3.9196
    -3.9196  -3.9189  -3.1270  -1.4093   3.1668   3.2743   3.2743

          k = 0.0000 0.0000 0.1667 (  6899 PWs)   bands (ev):

    -4.0383  -4.0324  -4.0152  -4.0152  -4.0126  -3.9605  -3.9540  -3.9268
    -3.9268  -3.9239  -3.0491  -1.4987   3.0200   3.3824   3.3824

          k = 0.0000 0.0000 0.2500 (  6912 PWs)   bands (ev):

    -4.0309  -4.0191  -4.0096  -4.0096  -4.0044  -3.9674  -3.9546  -3.9376
    -3.9376  -3.9320  -2.9218  -1.6455   2.9054   3.5594   3.5594

          k = 0.0000 0.0000 0.3333 (  6908 PWs)   bands (ev):

    -4.0213  -4.0035  -4.0016  -4.0016  -3.9937  -3.9764  -3.9577  -3.9509
    -3.9509  -3.9425  -2.7499  -1.8410   2.8877   3.8004   3.8009

          k = 0.0000 0.0000 0.4167 (  6924 PWs)   bands (ev):

    -4.0103  -3.9913  -3.9913  -3.9880  -3.9870  -3.9813  -3.9651  -3.9651
    -3.9642  -3.9548  -2.5417  -2.0690   2.9908   3.5561   4.0984

          k = 0.0000 0.0000-0.5000 (  6920 PWs)   bands (ev):

    -3.9986  -3.9985  -3.9790  -3.9790  -3.9788  -3.9788  -3.9746  -3.9744
    -3.9681  -3.9679  -2.3093  -2.3091   3.2163   3.2163   4.4434

          k = 0.0000 0.0833 0.0833 (  6923 PWs)   bands (ev):

    -4.0408  -4.0391  -4.0213  -4.0176  -4.0122  -3.9567  -3.9549  -3.9261
    -3.9221  -3.9164  -3.1009  -1.4363   3.0579   3.3103   3.3510

          k = 0.0000 0.0833 0.1667 (  6916 PWs)   bands (ev):

    -4.0360  -4.0305  -4.0215  -4.0151  -4.0039  -3.9603  -3.9545  -3.9366
    -3.9291  -3.9178  -3.0233  -1.5181   2.8890   3.4171   3.4829

          k = 0.0000 0.0833 0.2500 (  6906 PWs)   bands (ev):

    -4.0289  -4.0187  -4.0174  -4.0106  -3.9933  -3.9665  -3.9548  -3.9496
    -3.9396  -3.9229  -2.8968  -1.6546   2.7629   3.5918   3.6679

          k = 0.0000 0.0833 0.3333 (  6907 PWs)   bands (ev):

    -4.0199  -4.0128  -4.0042  -4.0024  -3.9812  -3.9744  -3.9641  -3.9573
    -3.9523  -3.9314  -2.7264  -1.8396   2.7357   3.8042   3.8295

          k = 0.0000 0.0833 0.4167 (  6906 PWs)   bands (ev):

    -4.0098  -4.0039  -3.9977  -3.9879  -3.9820  -3.9788  -3.9681  -3.9650
    -3.9629  -3.9423  -2.5208  -2.0589   2.8300   3.3760   4.1229

          k = 0.0000 0.0833-0.5000 (  6904 PWs)   bands (ev):

    -4.0002  -4.0001  -3.9924  -3.9923  -3.9811  -3.9811  -3.9705  -3.9704
    -3.9549  -3.9548  -2.2928  -2.2926   3.0466   3.0466   4.4612

          k = 0.0000 0.1667 0.1667 (  6913 PWs)   bands (ev):

    -4.0307  -4.0260  -4.0236  -4.0145  -3.9920  -3.9610  -3.9553  -3.9504
    -3.9356  -3.9145  -2.9469  -1.5789   2.6705   3.5199   3.6603

          k = 0.0000 0.1667 0.2500 (  6906 PWs)   bands (ev):

    -4.0273  -4.0244  -4.0130  -4.0119  -3.9789  -3.9659  -3.9646  -3.9553
    -3.9451  -3.9153  -2.8230  -1.6859   2.4991   3.6878   3.8673

          k = 0.0000 0.1667 0.3333 (  6893 PWs)   bands (ev):

    -4.0249  -4.0174  -4.0103  -3.9981  -3.9817  -3.9700  -3.9652  -3.9565
    -3.9557  -3.9201  -2.6577  -1.8400   2.4328   3.3905   3.9151

          k = 0.0000 0.1667 0.4167 (  6916 PWs)   bands (ev):

    -4.0188  -4.0107  -4.0072  -3.9965  -3.9855  -3.9752  -3.9645  -3.9604
    -3.9516  -3.9282  -2.4607  -2.0325   2.4943   2.9883   4.1939

          k = 0.0000 0.1667-0.5000 (  6888 PWs)   bands (ev):

    -4.0091  -4.0091  -4.0066  -4.0066  -3.9787  -3.9786  -3.9657  -3.9656
    -3.9390  -3.9390  -2.2463  -2.2461   2.6836   2.6836   4.5114

          k = 0.0000 0.2500 0.2500 (  6889 PWs)   bands (ev):

    -4.0325  -4.0200  -4.0154  -4.0019  -3.9828  -3.9640  -3.9638  -3.9557
    -3.9526  -3.9118  -2.7046  -1.7492   2.2694   3.3835   3.8436

          k = 0.0000 0.2500 0.3333 (  6901 PWs)   bands (ev):

    -4.0339  -4.0169  -4.0168  -3.9990  -3.9898  -3.9653  -3.9596  -3.9561
    -3.9496  -3.9125  -2.5491  -1.8539   2.1430   2.9363   4.0529

          k = 0.0000 0.2500 0.4167 (  6912 PWs)   bands (ev):

    -4.0310  -4.0168  -4.0154  -4.0131  -3.9789  -3.9682  -3.9635  -3.9581
    -3.9364  -3.9172  -2.3683  -2.0010   2.1504   2.5645   4.3046

          k = 0.0000 0.2500-0.5000 (  6904 PWs)   bands (ev):

    -4.0240  -4.0240  -4.0158  -4.0158  -3.9721  -3.9719  -3.9620  -3.9619
    -3.9254  -3.9254  -2.1790  -2.1788   2.2953   2.2953   4.5842

          k = 0.0000 0.3333 0.3333 (  6909 PWs)   bands (ev):

    -4.0390  -4.0221  -4.0187  -4.0145  -3.9795  -3.9625  -3.9621  -3.9560
    -3.9355  -3.9091  -2.4104  -1.8974   1.9459   2.5205   4.2333

          k = 0.0000 0.3333 0.4167 (  6909 PWs)   bands (ev):

    -4.0396  -4.0270  -4.0247  -4.0219  -3.9702  -3.9625  -3.9621  -3.9568
    -3.9237  -3.9100  -2.2563  -1.9819   1.8826   2.1866   4.4434

          k = 0.0000 0.3333-0.5000 (  6902 PWs)   bands (ev):

    -4.0356  -4.0356  -4.0244  -4.0243  -3.9648  -3.9646  -3.9595  -3.9594
    -3.9151  -3.9150  -2.1066  -2.1064   1.9661   1.9661   4.6629

          k = 0.0000 0.4167 0.4167 (  6906 PWs)   bands (ev):

    -4.0437  -4.0372  -4.0294  -4.0275  -3.9626  -3.9605  -3.9597  -3.9562
    -3.9143  -3.9071  -2.1429  -1.9944   1.7398   1.9024   4.5923

          k = 0.0000 0.4167-0.5000 (  6914 PWs)   bands (ev):

    -4.0429  -4.0429  -4.0303  -4.0303  -3.9597  -3.9596  -3.9577  -3.9575
    -3.9086  -3.9086  -2.0497  -2.0495   1.7465   1.7465   4.7252

          k = 0.0000-0.5000-0.5000 (  6968 PWs)   bands (ev):

    -4.0455  -4.0455  -4.0325  -4.0324  -3.9585  -3.9585  -3.9564  -3.9563
    -3.9064  -3.9064  -2.0279  -2.0278   1.6692   1.6692   4.7491

          k = 0.0833 0.0833 0.0833 (  6928 PWs)   bands (ev):

    -4.0376  -4.0376  -4.0203  -4.0203  -4.0073  -3.9562  -3.9562  -3.9332
    -3.9189  -3.9189  -3.0749  -1.4609   3.0943   3.0943   3.5379

          k = 0.0833 0.0833 0.1667 (  6907 PWs)   bands (ev):

    -4.0334  -4.0289  -4.0223  -4.0172  -3.9986  -3.9599  -3.9552  -3.9449
    -3.9260  -3.9183  -2.9977  -1.5360   2.8666   3.2027   3.7309

          k = 0.0833 0.0833 0.2500 (  6905 PWs)   bands (ev):

    -4.0267  -4.0216  -4.0161  -4.0121  -3.9879  -3.9657  -3.9588  -3.9550
    -3.9368  -3.9215  -2.8720  -1.6631   2.7060   3.3804   3.9448

          k = 0.0833 0.0833 0.3333 (  6911 PWs)   bands (ev):

    -4.0183  -4.0180  -4.0051  -4.0016  -3.9761  -3.9731  -3.9729  -3.9567
    -3.9498  -3.9283  -2.7033  -1.8383   2.6560   3.6230   3.6690

          k = 0.0833 0.0833 0.4167 (  6906 PWs)   bands (ev):

    -4.0113  -4.0089  -3.9986  -3.9923  -3.9820  -3.9787  -3.9670  -3.9634
    -3.9585  -3.9377  -2.5004  -2.0492   2.7336   3.2544   3.9243

          k = 0.0833 0.0833-0.5000 (  6894 PWs)   bands (ev):

    -4.0017  -4.0017  -4.0004  -4.0003  -3.9751  -3.9750  -3.9729  -3.9727
    -3.9490  -3.9489  -2.2767  -2.2766   2.9371   2.9371   4.2756

          k = 0.0833 0.1667 0.1667 (  6898 PWs)   bands (ev):

    -4.0278  -4.0251  -4.0226  -4.0171  -3.9884  -3.9603  -3.9586  -3.9561
    -3.9302  -3.9170  -2.9218  -1.5921   2.7073   3.1787   3.9875

          k = 0.0833 0.1667 0.2500 (  6896 PWs)   bands (ev):

    -4.0271  -4.0218  -4.0144  -4.0110  -3.9765  -3.9737  -3.9639  -3.9556
    -3.9399  -3.9173  -2.7990  -1.6923   2.5213   3.3266   3.7871

          k = 0.0833 0.1667 0.3333 (  6895 PWs)   bands (ev):

    -4.0265  -4.0151  -4.0100  -3.9986  -3.9872  -3.9690  -3.9649  -3.9554
    -3.9516  -3.9211  -2.6355  -1.8385   2.4345   3.3307   3.5587

          k = 0.0833 0.1667 0.4167 (  6904 PWs)   bands (ev):

    -4.0224  -4.0094  -4.0053  -4.0030  -3.9826  -3.9734  -3.9625  -3.9624
    -3.9489  -3.9282  -2.4415  -2.0236   2.4781   2.9433   3.8544

          k = 0.0833 0.1667-0.5000 (  6898 PWs)   bands (ev):

    -4.0151  -4.0151  -4.0038  -4.0037  -3.9752  -3.9751  -3.9669  -3.9669
    -3.9379  -3.9379  -2.2314  -2.2313   2.6523   2.6523   4.2021

          k = 0.0833 0.2500 0.2500 (  6900 PWs)   bands (ev):

    -4.0315  -4.0173  -4.0161  -4.0014  -3.9891  -3.9647  -3.9617  -3.9561
    -3.9476  -3.9144  -2.6820  -1.7520   2.3069   3.3433   3.4388

          k = 0.0833 0.2500 0.3333 (  6900 PWs)   bands (ev):

    -4.0335  -4.0161  -4.0150  -4.0030  -3.9891  -3.9648  -3.9569  -3.9560
    -3.9493  -3.9149  -2.5287  -1.8517   2.1750   2.9183   3.6482

          k = 0.0833 0.2500 0.4167 (  6915 PWs)   bands (ev):

    -4.0321  -4.0194  -4.0143  -4.0095  -3.9779  -3.9674  -3.9619  -3.9589
    -3.9371  -3.9191  -2.3511  -1.9932   2.1717   2.5614   3.9248

          k = 0.0833 0.2500-0.5000 (  6900 PWs)   bands (ev):

    -4.0272  -4.0272  -4.0117  -4.0117  -3.9707  -3.9706  -3.9624  -3.9623
    -3.9268  -3.9267  -2.1660  -2.1658   2.3048   2.3048   4.2505

          k = 0.0833 0.3333 0.3333 (  6907 PWs)   bands (ev):

    -4.0378  -4.0214  -4.0208  -4.0113  -3.9794  -3.9622  -3.9597  -3.9561
    -3.9370  -3.9120  -2.3925  -1.8933   1.9842   2.5248   3.8334

          k = 0.0833 0.3333 0.4167 (  6905 PWs)   bands (ev):

    -4.0390  -4.0303  -4.0223  -4.0165  -3.9700  -3.9621  -3.9610  -3.9570
    -3.9260  -3.9129  -2.2417  -1.9748   1.9179   2.2048   4.0804

          k = 0.0833 0.3333-0.5000 (  6918 PWs)   bands (ev):

    -4.0365  -4.0365  -4.0206  -4.0206  -3.9642  -3.9640  -3.9596  -3.9595
    -3.9177  -3.9177  -2.0957  -2.0955   1.9942   1.9942   4.3619

          k = 0.0833 0.4167 0.4167 (  6911 PWs)   bands (ev):

    -4.0423  -4.0381  -4.0270  -4.0232  -3.9626  -3.9598  -3.9594  -3.9562
    -3.9173  -3.9104  -2.1311  -1.9869   1.7786   1.9324   4.2804

          k = 0.0833 0.4167-0.5000 (  6910 PWs)   bands (ev):

    -4.0421  -4.0421  -4.0273  -4.0272  -3.9593  -3.9593  -3.9577  -3.9575
    -3.9119  -3.9119  -2.0405  -2.0404   1.7830   1.7830   4.4786

          k = 0.0833-0.5000-0.5000 (  6924 PWs)   bands (ev):

    -4.0440  -4.0440  -4.0297  -4.0297  -3.9582  -3.9582  -3.9564  -3.9562
    -3.9099  -3.9099  -2.0194  -2.0193   1.7082   1.7082   4.5313

          k = 0.1667 0.1667 0.1667 (  6916 PWs)   bands (ev):

    -4.0223  -4.0223  -4.0196  -4.0196  -3.9800  -3.9729  -3.9585  -3.9585
    -3.9241  -3.9241  -2.8477  -1.6351   2.8169   2.8169   3.9581

          k = 0.1667 0.1667 0.2500 (  6894 PWs)   bands (ev):

    -4.0269  -4.0176  -4.0150  -4.0081  -3.9876  -3.9699  -3.9622  -3.9565
    -3.9348  -3.9214  -2.7284  -1.7150   2.5454   2.9971   3.5510

          k = 0.1667 0.1667 0.3333 (  6900 PWs)   bands (ev):

    -4.0294  -4.0115  -4.0095  -4.0046  -3.9918  -3.9664  -3.9622  -3.9530
    -3.9473  -3.9225  -2.5709  -1.8378   2.4008   3.1424   3.2440

          k = 0.1667 0.1667 0.4167 (  6898 PWs)   bands (ev):

    -4.0285  -4.0154  -4.0052  -4.0044  -3.9800  -3.9694  -3.9633  -3.9593
    -3.9441  -3.9271  -2.3862  -2.0004   2.3985   2.7913   3.5526

          k = 0.1667 0.1667-0.5000 (  6882 PWs)   bands (ev):

    -4.0239  -4.0238  -4.0022  -4.0021  -3.9699  -3.9697  -3.9677  -3.9677
    -3.9347  -3.9346  -2.1897  -2.1896   2.5345   2.5345   3.9159

          k = 0.1667 0.2500 0.2500 (  6907 PWs)   bands (ev):

    -4.0286  -4.0187  -4.0100  -4.0011  -4.0000  -3.9627  -3.9590  -3.9572
    -3.9392  -3.9217  -2.6158  -1.7635   2.4187   2.9763   3.2094

          k = 0.1667 0.2500 0.3333 (  6917 PWs)   bands (ev):

    -4.0319  -4.0164  -4.0153  -4.0041  -3.9880  -3.9634  -3.9581  -3.9491
    -3.9486  -3.9215  -2.4694  -1.8481   2.2630   2.8483   3.1773

          k = 0.1667 0.2500 0.4167 (  6902 PWs)   bands (ev):

    -4.0335  -4.0258  -4.0100  -4.0031  -3.9764  -3.9651  -3.9604  -3.9582
    -3.9384  -3.9241  -2.3016  -1.9726   2.2222   2.5362   3.4698

          k = 0.1667 0.2500-0.5000 (  6912 PWs)   bands (ev):

    -4.0317  -4.0316  -4.0052  -4.0051  -3.9678  -3.9676  -3.9628  -3.9628
    -3.9299  -3.9299  -2.1295  -2.1294   2.3177   2.3177   3.8241

          k = 0.1667 0.3333 0.3333 (  6936 PWs)   bands (ev):

    -4.0343  -4.0266  -4.0181  -4.0036  -3.9792  -3.9615  -3.9565  -3.9542
    -3.9405  -3.9200  -2.3407  -1.8837   2.0982   2.5263   3.3189

          k = 0.1667 0.3333 0.4167 (  6913 PWs)   bands (ev):

    -4.0365  -4.0337  -4.0167  -4.0070  -3.9697  -3.9610  -3.9582  -3.9575
    -3.9318  -3.9208  -2.1997  -1.9557   2.0212   2.2513   3.5721

          k = 0.1667 0.3333-0.5000 (  6920 PWs)   bands (ev):

    -4.0369  -4.0369  -4.0122  -4.0122  -3.9629  -3.9627  -3.9595  -3.9594
    -3.9249  -3.9248  -2.0651  -2.0649   2.0734   2.0734   3.8889

          k = 0.1667 0.4167 0.4167 (  6930 PWs)   bands (ev):

    -4.0382  -4.0381  -4.0207  -4.0136  -3.9627  -3.9588  -3.9581  -3.9562
    -3.9255  -3.9195  -2.0975  -1.9663   1.8943   2.0185   3.7778

          k = 0.1667 0.4167-0.5000 (  6930 PWs)   bands (ev):

    -4.0392  -4.0392  -4.0193  -4.0192  -3.9585  -3.9583  -3.9576  -3.9575
    -3.9211  -3.9211  -2.0147  -2.0146   1.8911   1.8911   4.0188

          k = 0.1667-0.5000-0.5000 (  6928 PWs)   bands (ev):

    -4.0396  -4.0396  -4.0223  -4.0222  -3.9575  -3.9574  -3.9563  -3.9561
    -3.9198  -3.9198  -1.9956  -1.9954   1.8246   1.8246   4.0926

          k = 0.2500 0.2500 0.2500 (  6899 PWs)   bands (ev):

    -4.0236  -4.0236  -4.0145  -3.9981  -3.9981  -3.9590  -3.9590  -3.9549
    -3.9325  -3.9325  -2.5111  -1.7931   2.6025   2.6025   2.9781

          k = 0.2500 0.2500 0.3333 (  6915 PWs)   bands (ev):

    -4.0292  -4.0247  -4.0167  -3.9965  -3.9859  -3.9610  -3.9583  -3.9472
    -3.9446  -3.9291  -2.3768  -1.8520   2.3535   2.7005   2.8551

          k = 0.2500 0.2500 0.4167 (  6905 PWs)   bands (ev):

    -4.0335  -4.0316  -4.0086  -3.9969  -3.9746  -3.9623  -3.9604  -3.9551
    -3.9392  -3.9292  -2.2263  -1.9477   2.2484   2.4509   3.1717

          k = 0.2500 0.2500-0.5000 (  6906 PWs)   bands (ev):

    -4.0345  -4.0345  -4.0011  -4.0010  -3.9659  -3.9657  -3.9611  -3.9611
    -3.9328  -3.9328  -2.0771  -2.0769   2.2874   2.2874   3.5466

          k = 0.2500 0.3333 0.3333 (  6906 PWs)   bands (ev):

    -4.0316  -4.0283  -4.0170  -3.9929  -3.9794  -3.9599  -3.9571  -3.9483
    -3.9440  -3.9315  -2.2610  -1.8761   2.2859   2.4947   2.8762

          k = 0.2500 0.3333 0.4167 (  6914 PWs)   bands (ev):

    -4.0352  -4.0319  -4.0112  -3.9959  -3.9701  -3.9597  -3.9581  -3.9549
    -3.9388  -3.9318  -2.1365  -1.9315   2.1806   2.3002   3.1363

          k = 0.2500 0.3333-0.5000 (  6922 PWs)   bands (ev):

    -4.0351  -4.0351  -4.0030  -4.0030  -3.9626  -3.9624  -3.9586  -3.9585
    -3.9342  -3.9342  -2.0212  -2.0211   2.1829   2.1830   3.4859

          k = 0.2500 0.4167 0.4167 (  6929 PWs)   bands (ev):

    -4.0357  -4.0311  -4.0129  -4.0014  -3.9633  -3.9580  -3.9562  -3.9560
    -3.9371  -3.9329  -2.0479  -1.9383   2.0847   2.1477   3.3123

          k = 0.2500 0.4167-0.5000 (  6924 PWs)   bands (ev):

    -4.0335  -4.0335  -4.0087  -4.0087  -3.9581  -3.9580  -3.9571  -3.9570
    -3.9346  -3.9346  -1.9778  -1.9776   2.0652   2.0652   3.5779

          k = 0.2500-0.5000-0.5000 (  6936 PWs)   bands (ev):

    -4.0320  -4.0320  -4.0120  -4.0119  -3.9566  -3.9565  -3.9561  -3.9560
    -3.9347  -3.9347  -1.9613  -1.9612   2.0160   2.0160   3.6545

          k = 0.3333 0.3333 0.3333 (  6917 PWs)   bands (ev):

    -4.0345  -4.0197  -4.0197  -3.9812  -3.9812  -3.9577  -3.9577  -3.9459
    -3.9439  -3.9439  -2.1635  -1.8820   2.4115   2.5437   2.5437

          k = 0.3333 0.3333 0.4167 (  6913 PWs)   bands (ev):

    -4.0342  -4.0253  -4.0090  -3.9870  -3.9706  -3.9580  -3.9579  -3.9531
    -3.9449  -3.9419  -2.0625  -1.9129   2.3140   2.3418   2.8674

          k = 0.3333 0.3333-0.5000 (  6918 PWs)   bands (ev):

    -4.0309  -4.0309  -3.9973  -3.9972  -3.9626  -3.9624  -3.9572  -3.9571
    -3.9427  -3.9426  -1.9746  -1.9745   2.2729   2.2729   3.2515

          k = 0.3333 0.4167 0.4167 (  6912 PWs)   bands (ev):

    -4.0306  -4.0210  -4.0075  -3.9887  -3.9664  -3.9574  -3.9562  -3.9544
    -3.9491  -3.9467  -1.9917  -1.9123   2.2914   2.3464   2.9381

          k = 0.3333 0.4167-0.5000 (  6916 PWs)   bands (ev):

    -4.0250  -4.0250  -3.9986  -3.9985  -3.9598  -3.9596  -3.9563  -3.9561
    -3.9488  -3.9488  -1.9386  -1.9385   2.2902   2.2902   3.2388

          k = 0.3333-0.5000-0.5000 (  6912 PWs)   bands (ev):

    -4.0213  -4.0213  -4.0016  -4.0015  -3.9560  -3.9560  -3.9559  -3.9558
    -3.9528  -3.9528  -1.9250  -1.9248   2.2791   2.2791   3.3035

          k = 0.4167 0.4167 0.4167 (  6902 PWs)   bands (ev):

    -4.0231  -4.0080  -4.0080  -3.9771  -3.9771  -3.9592  -3.9562  -3.9562
    -3.9540  -3.9540  -1.9413  -1.8993   2.4109   2.6749   2.6749

          k = 0.4167 0.4167-0.5000 (  6898 PWs)   bands (ev):

    -4.0145  -4.0145  -3.9928  -3.9927  -3.9676  -3.9675  -3.9559  -3.9557
    -3.9550  -3.9549  -1.9084  -1.9082   2.5155   2.5155   3.0650

          k = 0.4167-0.5000-0.5000 (  6892 PWs)   bands (ev):

    -4.0074  -4.0074  -3.9938  -3.9936  -3.9721  -3.9721  -3.9559  -3.9558
    -3.9557  -3.9557  -1.8969  -1.8968   2.6093   2.6093   3.0788

          k =-0.5000-0.5000-0.5000 (  6872 PWs)   bands (ev):

    -3.9908  -3.9908  -3.9908  -3.9906  -3.9906  -3.9906  -3.9558  -3.9558
    -3.9557  -3.9557  -1.8863  -1.8862   3.0014   3.0014   3.0014

     the Fermi energy is    -0.9228 ev

!    total energy              =   -1550.19799022 Ry

     total all-electron energy =    -76047.890172 Ry
     estimated scf accuracy    <       0.00000085 Ry
     smearing contrib. (-TS)   =      -0.55751094 Ry
     internal energy E=F+TS    =   -1549.64047928 Ry

     The total energy is F=E-TS. E is the sum of the following terms:
     one-electron contribution =     -66.66778762 Ry
     hartree contribution      =      49.30372299 Ry
     xc contribution           =     -63.42677109 Ry
     ewald contribution        =     -83.88782219 Ry
     one-center paw contrib.   =   -1384.96182137 Ry

     convergence has been achieved in  14 iterations

 %%%%%%%%%%%%%%%%%%%%%%%%%%%%%%%%%%%%%%%%%%%%%%%%%%%%%%%%%%%%%%%%%%%%%%%%%%%%%%
     Error in routine write_rhog (1):
     error opening file ./pwscf.save/charge-density
 %%%%%%%%%%%%%%%%%%%%%%%%%%%%%%%%%%%%%%%%%%%%%%%%%%%%%%%%%%%%%%%%%%%%%%%%%%%%%%

     stopping ...

 %%%%%%%%%%%%%%%%%%%%%%%%%%%%%%%%%%%%%%%%%%%%%%%%%%%%%%%%%%%%%%%%%%%%%%%%%%%%%%
     Error in routine write_rhog (1):
     error opening file ./pwscf.save/charge-density
 %%%%%%%%%%%%%%%%%%%%%%%%%%%%%%%%%%%%%%%%%%%%%%%%%%%%%%%%%%%%%%%%%%%%%%%%%%%%%%

     stopping ...

 %%%%%%%%%%%%%%%%%%%%%%%%%%%%%%%%%%%%%%%%%%%%%%%%%%%%%%%%%%%%%%%%%%%%%%%%%%%%%%
     Error in routine write_rhog (1):
     error opening file ./pwscf.save/charge-density
 %%%%%%%%%%%%%%%%%%%%%%%%%%%%%%%%%%%%%%%%%%%%%%%%%%%%%%%%%%%%%%%%%%%%%%%%%%%%%%

     stopping ...

 %%%%%%%%%%%%%%%%%%%%%%%%%%%%%%%%%%%%%%%%%%%%%%%%%%%%%%%%%%%%%%%%%%%%%%%%%%%%%%
     Error in routine write_rhog (1):
     error opening file ./pwscf.save/charge-density
 %%%%%%%%%%%%%%%%%%%%%%%%%%%%%%%%%%%%%%%%%%%%%%%%%%%%%%%%%%%%%%%%%%%%%%%%%%%%%%

     stopping ...

 %%%%%%%%%%%%%%%%%%%%%%%%%%%%%%%%%%%%%%%%%%%%%%%%%%%%%%%%%%%%%%%%%%%%%%%%%%%%%%
     Error in routine write_rhog (1):
     error opening file ./pwscf.save/charge-density
 %%%%%%%%%%%%%%%%%%%%%%%%%%%%%%%%%%%%%%%%%%%%%%%%%%%%%%%%%%%%%%%%%%%%%%%%%%%%%%

     stopping ...

 %%%%%%%%%%%%%%%%%%%%%%%%%%%%%%%%%%%%%%%%%%%%%%%%%%%%%%%%%%%%%%%%%%%%%%%%%%%%%%
     Error in routine write_rhog (1):
     error opening file ./pwscf.save/charge-density
 %%%%%%%%%%%%%%%%%%%%%%%%%%%%%%%%%%%%%%%%%%%%%%%%%%%%%%%%%%%%%%%%%%%%%%%%%%%%%%

     stopping ...

 %%%%%%%%%%%%%%%%%%%%%%%%%%%%%%%%%%%%%%%%%%%%%%%%%%%%%%%%%%%%%%%%%%%%%%%%%%%%%%
     Error in routine write_rhog (1):
     error opening file ./pwscf.save/charge-density
 %%%%%%%%%%%%%%%%%%%%%%%%%%%%%%%%%%%%%%%%%%%%%%%%%%%%%%%%%%%%%%%%%%%%%%%%%%%%%%

     stopping ...

 %%%%%%%%%%%%%%%%%%%%%%%%%%%%%%%%%%%%%%%%%%%%%%%%%%%%%%%%%%%%%%%%%%%%%%%%%%%%%%
     Error in routine write_rhog (1):
     error opening file ./pwscf.save/charge-density
 %%%%%%%%%%%%%%%%%%%%%%%%%%%%%%%%%%%%%%%%%%%%%%%%%%%%%%%%%%%%%%%%%%%%%%%%%%%%%%

     stopping ...

 %%%%%%%%%%%%%%%%%%%%%%%%%%%%%%%%%%%%%%%%%%%%%%%%%%%%%%%%%%%%%%%%%%%%%%%%%%%%%%
     Error in routine write_rhog (1):
     error opening file ./pwscf.save/charge-density
 %%%%%%%%%%%%%%%%%%%%%%%%%%%%%%%%%%%%%%%%%%%%%%%%%%%%%%%%%%%%%%%%%%%%%%%%%%%%%%

     stopping ...

 %%%%%%%%%%%%%%%%%%%%%%%%%%%%%%%%%%%%%%%%%%%%%%%%%%%%%%%%%%%%%%%%%%%%%%%%%%%%%%
     Error in routine write_rhog (1):
     error opening file ./pwscf.save/charge-density
 %%%%%%%%%%%%%%%%%%%%%%%%%%%%%%%%%%%%%%%%%%%%%%%%%%%%%%%%%%%%%%%%%%%%%%%%%%%%%%

     stopping ...
