MPI startup(): Warning: I_MPI_PMI_LIBRARY will be ignored since the hydra process manager was found
MPI startup(): Warning: I_MPI_PMI_LIBRARY will be ignored since the hydra process manager was found
MPI startup(): Warning: I_MPI_PMI_LIBRARY will be ignored since the hydra process manager was found
MPI startup(): Warning: I_MPI_PMI_LIBRARY will be ignored since the hydra process manager was found
MPI startup(): Warning: I_MPI_PMI_LIBRARY will be ignored since the hydra process manager was found
MPI startup(): Warning: I_MPI_PMI_LIBRARY will be ignored since the hydra process manager was found
MPI startup(): Warning: I_MPI_PMI_LIBRARY will be ignored since the hydra process manager was found
MPI startup(): Warning: I_MPI_PMI_LIBRARY will be ignored since the hydra process manager was found
MPI startup(): Warning: I_MPI_PMI_LIBRARY will be ignored since the hydra process manager was found
MPI startup(): Warning: I_MPI_PMI_LIBRARY will be ignored since the hydra process manager was found
MPI startup(): Warning: I_MPI_PMI_LIBRARY will be ignored since the hydra process manager was found
MPI startup(): Warning: I_MPI_PMI_LIBRARY will be ignored since the hydra process manager was found

     Program PWSCF v.7.0 starts on 15Nov2023 at 19:11:39 

     This program is part of the open-source Quantum ESPRESSO suite
     for quantum simulation of materials; please cite
         "P. Giannozzi et al., J. Phys.:Condens. Matter 21 395502 (2009);
         "P. Giannozzi et al., J. Phys.:Condens. Matter 29 465901 (2017);
         "P. Giannozzi et al., J. Chem. Phys. 152 154105 (2020);
          URL http://www.quantum-espresso.org", 
     in publications or presentations arising from this work. More details at
     http://www.quantum-espresso.org/quote

     Parallel version (MPI), running on    12 processors

     MPI processes distributed on     1 nodes
     K-points division:     npool     =       4
     R & G space division:  proc/nbgrp/npool/nimage =       3
     111285 MiB available memory on the printing compute node when the environment starts
 
     Waiting for input...
     Reading input from standard input

     Current dimensions of program PWSCF are:
     Max number of different atomic species (ntypx) = 10
     Max number of k-points (npk) =  40000
     Max angular momentum in pseudopotentials (lmaxx) =  4
     file Au.UPF: wavefunction(s)  6S 5D renormalized
     Found identity + ( -0.5000 -0.5000  0.0000) symmetry
     This is a supercell, fractional translations are disabled

     Subspace diagonalization in iterative solution of the eigenvalue problem:
     a serial algorithm will be used

 
     Parallelization info
     --------------------
     sticks:   dense  smooth     PW     G-vecs:    dense   smooth      PW
     Min         252     252     79                 5219     5219     907
     Max         253     253     81                 5220     5220     907
     Sum         757     757    241                15659    15659    2721
 
     Using Slab Decomposition
 


     bravais-lattice index     =            0
     lattice parameter (alat)  =       6.3000  a.u.
     unit-cell volume          =     250.0470 (a.u.)^3
     number of atoms/cell      =            4
     number of atomic types    =            1
     number of electrons       =        44.00
     number of Kohn-Sham states=           26
     kinetic-energy cutoff     =      60.0000  Ry
     charge density cutoff     =     240.0000  Ry
     scf convergence threshold =      1.0E-09
     mixing beta               =       0.7000
     number of iterations used =            8  plain     mixing
     Exchange-correlation= SLA  PW   PBX  PBC
                           (   1   4   3   4   0   0   0)

     celldm(1)=   6.300000  celldm(2)=   0.000000  celldm(3)=   0.000000
     celldm(4)=   0.000000  celldm(5)=   0.000000  celldm(6)=   0.000000

     crystal axes: (cart. coord. in units of alat)
               a(1) = (   1.000000   0.000000   0.000000 )  
               a(2) = (   0.000000   1.000000   0.000000 )  
               a(3) = (   0.000000   0.000000   1.000000 )  

     reciprocal axes: (cart. coord. in units 2 pi/alat)
               b(1) = (  1.000000  0.000000  0.000000 )  
               b(2) = (  0.000000  1.000000  0.000000 )  
               b(3) = (  0.000000  0.000000  1.000000 )  


     PseudoPot. # 1 for Au read from file:
     ./Au.UPF
     MD5 check sum: 4db85c736373c707a97ce4c36c2a9d23
     Pseudo is Projector augmented-wave + core cor, Zval = 11.0
     Generated using &quot;atomic&quot; code by A. Dal Corso  v.6.3
     Shape of augmentation charge: PSQ
     Using radial grid of 1279 points,  6 beta functions with: 
                l(1) =   0
                l(2) =   0
                l(3) =   1
                l(4) =   1
                l(5) =   2
                l(6) =   2
     Q(r) pseudized with 0 coefficients 


     atomic species   valence    mass     pseudopotential
        Au            11.00   196.96657     Au( 1.00)

     No symmetry found



   Cartesian axes

     site n.     atom                  positions (alat units)
         1           Au  tau(   1) = (   0.0000000   0.0000000   0.0000000  )
         2           Au  tau(   2) = (   0.5000000   0.5000000   0.0000000  )
         3           Au  tau(   3) = (   0.5000000   0.0000000   0.5000000  )
         4           Au  tau(   4) = (   0.0000000   0.5000000   0.5000000  )

     number of k points=   868  Gaussian smearing, width (Ry)=  0.0200

     Number of k-points >= 100: set verbosity='high' to print them.

     Dense  grid:    15659 G-vectors     FFT dimensions: (  32,  32,  32)

     Estimated max dynamical RAM per process >      65.50 MB

     Estimated total dynamical RAM >     774.51 MB

     Initial potential from superposition of free atoms

     starting charge      43.9996, renormalised to      44.0000
     Starting wfcs are   36 randomized atomic wfcs
     Checking if some PAW data can be deallocated... 

     total cpu time spent up to now is        3.4 secs

     Self-consistent Calculation

     iteration #  1     ecut=    60.00 Ry     beta= 0.70
     Davidson diagonalization with overlap
     ethr =  1.00E-02,  avg # of iterations =  4.5

     Threshold (ethr) on eigenvalues was too large:
     Diagonalizing with lowered threshold

     Davidson diagonalization with overlap
     ethr =  1.73E-04,  avg # of iterations =  7.4

     total cpu time spent up to now is       22.9 secs

     total energy              =   -3098.10337888 Ry
     estimated scf accuracy    <       0.06566561 Ry

     iteration #  2     ecut=    60.00 Ry     beta= 0.70
     Davidson diagonalization with overlap
     ethr =  1.49E-04,  avg # of iterations =  1.7

     total cpu time spent up to now is       27.8 secs

     total energy              =   -3098.10993688 Ry
     estimated scf accuracy    <       0.00674660 Ry

     iteration #  3     ecut=    60.00 Ry     beta= 0.70
     Davidson diagonalization with overlap
     c_bands:  1 eigenvalues not converged
     ethr =  1.53E-05,  avg # of iterations =  4.9

     total cpu time spent up to now is       35.4 secs

     total energy              =   -3098.11142435 Ry
     estimated scf accuracy    <       0.00008722 Ry

     iteration #  4     ecut=    60.00 Ry     beta= 0.70
     Davidson diagonalization with overlap
     c_bands:  1 eigenvalues not converged
     c_bands:  1 eigenvalues not converged
     c_bands:  1 eigenvalues not converged
     c_bands:  2 eigenvalues not converged
     c_bands:  1 eigenvalues not converged
     c_bands:  1 eigenvalues not converged
     c_bands:  1 eigenvalues not converged
     c_bands:  1 eigenvalues not converged
     c_bands:  1 eigenvalues not converged
     c_bands:  1 eigenvalues not converged
     c_bands:  2 eigenvalues not converged
     ethr =  1.98E-07,  avg # of iterations =  9.1

     total cpu time spent up to now is       51.3 secs

     total energy              =   -3098.11179532 Ry
     estimated scf accuracy    <       0.00004335 Ry

     iteration #  5     ecut=    60.00 Ry     beta= 0.70
     Davidson diagonalization with overlap
     c_bands:  1 eigenvalues not converged
     c_bands:  1 eigenvalues not converged
     c_bands:  1 eigenvalues not converged
     c_bands:  1 eigenvalues not converged
     ethr =  9.85E-08,  avg # of iterations =  2.6

     total cpu time spent up to now is       57.3 secs

     total energy              =   -3098.11180573 Ry
     estimated scf accuracy    <       0.00000078 Ry

     iteration #  6     ecut=    60.00 Ry     beta= 0.70
     Davidson diagonalization with overlap
     ethr =  1.77E-09,  avg # of iterations =  9.0

     total cpu time spent up to now is       72.4 secs

     total energy              =   -3098.11180800 Ry
     estimated scf accuracy    <       0.00000098 Ry

     iteration #  7     ecut=    60.00 Ry     beta= 0.70
     Davidson diagonalization with overlap
     ethr =  1.77E-09,  avg # of iterations =  1.0

     total cpu time spent up to now is       76.9 secs

     total energy              =   -3098.11180786 Ry
     estimated scf accuracy    <       0.00000034 Ry

     iteration #  8     ecut=    60.00 Ry     beta= 0.70
     Davidson diagonalization with overlap
     ethr =  7.83E-10,  avg # of iterations =  2.0

     total cpu time spent up to now is       82.7 secs

     total energy              =   -3098.11180792 Ry
     estimated scf accuracy    <       0.00000002 Ry

     iteration #  9     ecut=    60.00 Ry     beta= 0.70
     Davidson diagonalization with overlap
     ethr =  4.50E-11,  avg # of iterations =  7.2

     total cpu time spent up to now is       94.3 secs

     total energy              =   -3098.11180794 Ry
     estimated scf accuracy    <          3.8E-09 Ry

     iteration # 10     ecut=    60.00 Ry     beta= 0.70
     Davidson diagonalization with overlap
     ethr =  8.69E-12,  avg # of iterations =  3.7

     total cpu time spent up to now is      101.5 secs

     End of self-consistent calculation

     Number of k-points >= 100: set verbosity='high' to print the bands.

     the Fermi energy is    36.3594 ev

!    total energy              =   -3098.11180794 Ry

     total all-electron energy =   -152093.496172 Ry
     estimated scf accuracy    <          9.5E-10 Ry
     smearing contrib. (-TS)   =      -0.00180490 Ry
     internal energy E=F+TS    =   -3098.11000304 Ry

     The total energy is F=E-TS. E is the sum of the following terms:
     one-electron contribution =     144.24940500 Ry
     hartree contribution      =      13.84663571 Ry
     xc contribution           =    -132.65153223 Ry
     ewald contribution        =    -352.23384826 Ry
     one-center paw contrib.   =   -2771.32066326 Ry

     convergence has been achieved in  10 iterations

     Forces acting on atoms (cartesian axes, Ry/au):

     atom    1 type  1   force =    -0.00000068   -0.00000364   -0.00000021
     atom    2 type  1   force =     0.00000075    0.00000369   -0.00000019
     atom    3 type  1   force =     0.00000067   -0.00000364    0.00000020
     atom    4 type  1   force =    -0.00000073    0.00000359    0.00000021

     Total force =     0.000007     Total SCF correction =     0.000017
     SCF correction compared to forces is large: reduce conv_thr to get better values


     Computing stress (Cartesian axis) and pressure

          total   stress  (Ry/bohr**3)                   (kbar)     P=     6122.18
   0.04161772  -0.00000000   0.00000000         6122.18       -0.00        0.00
  -0.00000000   0.04161772   0.00000000           -0.00     6122.18        0.00
   0.00000000   0.00000000   0.04161772            0.00        0.00     6122.18


     Writing all to output data dir ./gold.save/
 
     init_run     :      2.82s CPU      2.96s WALL (       1 calls)
     electrons    :     96.67s CPU     98.17s WALL (       1 calls)
     forces       :      0.43s CPU      0.45s WALL (       1 calls)
     stress       :      1.36s CPU      1.36s WALL (       1 calls)

     Called by init_run:
     wfcinit      :      2.12s CPU      2.22s WALL (       1 calls)
     potinit      :      0.06s CPU      0.08s WALL (       1 calls)
     hinit0       :      0.08s CPU      0.09s WALL (       1 calls)

     Called by electrons:
     c_bands      :     88.45s CPU     89.70s WALL (      11 calls)
     sum_band     :      7.66s CPU      7.78s WALL (      11 calls)
     v_of_rho     :      0.05s CPU      0.12s WALL (      11 calls)
     newd         :      0.02s CPU      0.05s WALL (      11 calls)
     PAW_pot      :      0.53s CPU      0.58s WALL (      11 calls)
     mix_rho      :      0.01s CPU      0.01s WALL (      11 calls)

     Called by c_bands:
     init_us_2    :      0.78s CPU      0.78s WALL (    5425 calls)
     init_us_2:cp :      0.77s CPU      0.78s WALL (    5425 calls)
     cegterg      :     74.24s CPU     75.37s WALL (    2387 calls)

     Called by *egterg:
     cdiaghg      :      8.82s CPU      8.90s WALL (   14097 calls)
     h_psi        :     52.19s CPU     53.22s WALL (   14531 calls)
     s_psi        :      3.12s CPU      3.16s WALL (   14531 calls)
     g_psi        :      0.36s CPU      0.37s WALL (   11927 calls)

     Called by h_psi:
     h_psi:calbec :      3.44s CPU      3.50s WALL (   14531 calls)
     vloc_psi     :     45.42s CPU     46.33s WALL (   14531 calls)
     add_vuspsi   :      3.13s CPU      3.18s WALL (   14531 calls)

     General routines
     calbec       :      4.51s CPU      4.58s WALL (   18003 calls)
     fft          :      0.05s CPU      0.15s WALL (     147 calls)
     ffts         :      0.00s CPU      0.01s WALL (      11 calls)
     fftw         :     47.69s CPU     48.63s WALL (  565872 calls)
 
     Parallel routines
 
     PWSCF        :   1m42.27s CPU   1m44.56s WALL

 
   This run was terminated on:  19:13:24  15Nov2023            

=------------------------------------------------------------------------------=
   JOB DONE.
=------------------------------------------------------------------------------=
