MPI startup(): Warning: I_MPI_PMI_LIBRARY will be ignored since the hydra process manager was found
MPI startup(): Warning: I_MPI_PMI_LIBRARY will be ignored since the hydra process manager was found
MPI startup(): Warning: I_MPI_PMI_LIBRARY will be ignored since the hydra process manager was found
MPI startup(): Warning: I_MPI_PMI_LIBRARY will be ignored since the hydra process manager was found
MPI startup(): Warning: I_MPI_PMI_LIBRARY will be ignored since the hydra process manager was found
MPI startup(): Warning: I_MPI_PMI_LIBRARY will be ignored since the hydra process manager was found
MPI startup(): Warning: I_MPI_PMI_LIBRARY will be ignored since the hydra process manager was found
MPI startup(): Warning: I_MPI_PMI_LIBRARY will be ignored since the hydra process manager was found
MPI startup(): Warning: I_MPI_PMI_LIBRARY will be ignored since the hydra process manager was found
MPI startup(): Warning: I_MPI_PMI_LIBRARY will be ignored since the hydra process manager was found
MPI startup(): Warning: I_MPI_PMI_LIBRARY will be ignored since the hydra process manager was found
MPI startup(): Warning: I_MPI_PMI_LIBRARY will be ignored since the hydra process manager was found

     Program PWSCF v.7.0 starts on 15Nov2023 at 19:57: 9 

     This program is part of the open-source Quantum ESPRESSO suite
     for quantum simulation of materials; please cite
         "P. Giannozzi et al., J. Phys.:Condens. Matter 21 395502 (2009);
         "P. Giannozzi et al., J. Phys.:Condens. Matter 29 465901 (2017);
         "P. Giannozzi et al., J. Chem. Phys. 152 154105 (2020);
          URL http://www.quantum-espresso.org", 
     in publications or presentations arising from this work. More details at
     http://www.quantum-espresso.org/quote

     Parallel version (MPI), running on    12 processors

     MPI processes distributed on     1 nodes
     K-points division:     npool     =       4
     R & G space division:  proc/nbgrp/npool/nimage =       3
     111114 MiB available memory on the printing compute node when the environment starts
 
     Waiting for input...
     Reading input from standard input

     Current dimensions of program PWSCF are:
     Max number of different atomic species (ntypx) = 10
     Max number of k-points (npk) =  40000
     Max angular momentum in pseudopotentials (lmaxx) =  4
     file Au.UPF: wavefunction(s)  6S 5D renormalized
     Found identity + ( -0.5000 -0.5000  0.0000) symmetry
     This is a supercell, fractional translations are disabled

     Subspace diagonalization in iterative solution of the eigenvalue problem:
     a serial algorithm will be used

 
     Parallelization info
     --------------------
     sticks:   dense  smooth     PW     G-vecs:    dense   smooth      PW
     Min         400     400    116                10366    10366    1648
     Max         401     401    117                10369    10369    1649
     Sum        1201    1201    349                31103    31103    4945
 
     Using Slab Decomposition
 


     bravais-lattice index     =            0
     lattice parameter (alat)  =       7.9000  a.u.
     unit-cell volume          =     493.0390 (a.u.)^3
     number of atoms/cell      =            4
     number of atomic types    =            1
     number of electrons       =        44.00
     number of Kohn-Sham states=           26
     kinetic-energy cutoff     =      60.0000  Ry
     charge density cutoff     =     240.0000  Ry
     scf convergence threshold =      1.0E-09
     mixing beta               =       0.7000
     number of iterations used =            8  plain     mixing
     Exchange-correlation= SLA  PW   PBX  PBC
                           (   1   4   3   4   0   0   0)

     celldm(1)=   7.900000  celldm(2)=   0.000000  celldm(3)=   0.000000
     celldm(4)=   0.000000  celldm(5)=   0.000000  celldm(6)=   0.000000

     crystal axes: (cart. coord. in units of alat)
               a(1) = (   1.000000   0.000000   0.000000 )  
               a(2) = (   0.000000   1.000000   0.000000 )  
               a(3) = (   0.000000   0.000000   1.000000 )  

     reciprocal axes: (cart. coord. in units 2 pi/alat)
               b(1) = (  1.000000  0.000000  0.000000 )  
               b(2) = (  0.000000  1.000000  0.000000 )  
               b(3) = (  0.000000  0.000000  1.000000 )  


     PseudoPot. # 1 for Au read from file:
     ./Au.UPF
     MD5 check sum: 4db85c736373c707a97ce4c36c2a9d23
     Pseudo is Projector augmented-wave + core cor, Zval = 11.0
     Generated using &quot;atomic&quot; code by A. Dal Corso  v.6.3
     Shape of augmentation charge: PSQ
     Using radial grid of 1279 points,  6 beta functions with: 
                l(1) =   0
                l(2) =   0
                l(3) =   1
                l(4) =   1
                l(5) =   2
                l(6) =   2
     Q(r) pseudized with 0 coefficients 


     atomic species   valence    mass     pseudopotential
        Au            11.00   196.96657     Au( 1.00)

     No symmetry found



   Cartesian axes

     site n.     atom                  positions (alat units)
         1           Au  tau(   1) = (   0.0000000   0.0000000   0.0000000  )
         2           Au  tau(   2) = (   0.5000000   0.5000000   0.0000000  )
         3           Au  tau(   3) = (   0.5000000   0.0000000   0.5000000  )
         4           Au  tau(   4) = (   0.0000000   0.5000000   0.5000000  )

     number of k points=   868  Gaussian smearing, width (Ry)=  0.0200

     Number of k-points >= 100: set verbosity='high' to print them.

     Dense  grid:    31103 G-vectors     FFT dimensions: (  40,  40,  40)

     Estimated max dynamical RAM per process >     128.09 MB

     Estimated total dynamical RAM >       1.48 GB

     Initial potential from superposition of free atoms

     starting charge      43.9996, renormalised to      44.0000
     Starting wfcs are   36 randomized atomic wfcs
     Checking if some PAW data can be deallocated... 

     total cpu time spent up to now is        4.6 secs

     Self-consistent Calculation

     iteration #  1     ecut=    60.00 Ry     beta= 0.70
     Davidson diagonalization with overlap
     ethr =  1.00E-02,  avg # of iterations =  3.1

     Threshold (ethr) on eigenvalues was too large:
     Diagonalizing with lowered threshold

     Davidson diagonalization with overlap
     ethr =  2.88E-04,  avg # of iterations =  4.6

     total cpu time spent up to now is       27.0 secs

     total energy              =   -3100.49205805 Ry
     estimated scf accuracy    <       0.18585647 Ry

     iteration #  2     ecut=    60.00 Ry     beta= 0.70
     Davidson diagonalization with overlap
     ethr =  4.22E-04,  avg # of iterations =  2.8

     total cpu time spent up to now is       38.2 secs

     total energy              =   -3100.55278097 Ry
     estimated scf accuracy    <       0.02037128 Ry

     iteration #  3     ecut=    60.00 Ry     beta= 0.70
     Davidson diagonalization with overlap
     ethr =  4.63E-05,  avg # of iterations =  4.4

     total cpu time spent up to now is       50.0 secs

     total energy              =   -3100.55708477 Ry
     estimated scf accuracy    <       0.00172936 Ry

     iteration #  4     ecut=    60.00 Ry     beta= 0.70
     Davidson diagonalization with overlap
     c_bands:  1 eigenvalues not converged
     ethr =  3.93E-06,  avg # of iterations =  5.6

     total cpu time spent up to now is       65.3 secs

     total energy              =   -3100.55844386 Ry
     estimated scf accuracy    <       0.00162815 Ry

     iteration #  5     ecut=    60.00 Ry     beta= 0.70
     Davidson diagonalization with overlap
     ethr =  3.70E-06,  avg # of iterations =  2.0

     total cpu time spent up to now is       73.9 secs

     total energy              =   -3100.55800777 Ry
     estimated scf accuracy    <       0.00101432 Ry

     iteration #  6     ecut=    60.00 Ry     beta= 0.70
     Davidson diagonalization with overlap
     c_bands:  1 eigenvalues not converged
     ethr =  2.31E-06,  avg # of iterations =  3.0

     total cpu time spent up to now is       85.0 secs

     total energy              =   -3100.55834073 Ry
     estimated scf accuracy    <       0.00001311 Ry

     iteration #  7     ecut=    60.00 Ry     beta= 0.70
     Davidson diagonalization with overlap
     ethr =  2.98E-08,  avg # of iterations =  8.7

     total cpu time spent up to now is      110.2 secs

     total energy              =   -3100.55837644 Ry
     estimated scf accuracy    <       0.00005167 Ry

     iteration #  8     ecut=    60.00 Ry     beta= 0.70
     Davidson diagonalization with overlap
     ethr =  2.98E-08,  avg # of iterations =  1.1

     total cpu time spent up to now is      118.0 secs

     total energy              =   -3100.55836334 Ry
     estimated scf accuracy    <       0.00002930 Ry

     iteration #  9     ecut=    60.00 Ry     beta= 0.70
     Davidson diagonalization with overlap
     ethr =  2.98E-08,  avg # of iterations =  2.0

     total cpu time spent up to now is      128.2 secs

     total energy              =   -3100.55836440 Ry
     estimated scf accuracy    <       0.00000339 Ry

     iteration # 10     ecut=    60.00 Ry     beta= 0.70
     Davidson diagonalization with overlap
     ethr =  7.72E-09,  avg # of iterations =  6.9

     total cpu time spent up to now is      146.8 secs

     total energy              =   -3100.55836960 Ry
     estimated scf accuracy    <       0.00001080 Ry

     iteration # 11     ecut=    60.00 Ry     beta= 0.70
     Davidson diagonalization with overlap
     ethr =  7.72E-09,  avg # of iterations =  1.1

     total cpu time spent up to now is      154.6 secs

     total energy              =   -3100.55836525 Ry
     estimated scf accuracy    <       0.00000623 Ry

     iteration # 12     ecut=    60.00 Ry     beta= 0.70
     Davidson diagonalization with overlap
     ethr =  7.72E-09,  avg # of iterations =  3.3

     total cpu time spent up to now is      166.0 secs

     total energy              =   -3100.55836726 Ry
     estimated scf accuracy    <       0.00000006 Ry

     iteration # 13     ecut=    60.00 Ry     beta= 0.70
     Davidson diagonalization with overlap
     ethr =  1.45E-10,  avg # of iterations =  9.5

     total cpu time spent up to now is      192.8 secs

     total energy              =   -3100.55836725 Ry
     estimated scf accuracy    <       0.00000054 Ry

     iteration # 14     ecut=    60.00 Ry     beta= 0.70
     Davidson diagonalization with overlap
     ethr =  1.45E-10,  avg # of iterations =  3.1

     total cpu time spent up to now is      205.0 secs

     total energy              =   -3100.55836729 Ry
     estimated scf accuracy    <       0.00000004 Ry

     iteration # 15     ecut=    60.00 Ry     beta= 0.70
     Davidson diagonalization with overlap
     ethr =  1.02E-10,  avg # of iterations =  4.2

     total cpu time spent up to now is      217.7 secs

     End of self-consistent calculation

     Number of k-points >= 100: set verbosity='high' to print the bands.

     the Fermi energy is    14.3603 ev

!    total energy              =   -3100.55836731 Ry

     total all-electron energy =   -152095.942732 Ry
     estimated scf accuracy    <          2.7E-11 Ry
     smearing contrib. (-TS)   =      -0.00307283 Ry
     internal energy E=F+TS    =   -3100.55529448 Ry

     The total energy is F=E-TS. E is the sum of the following terms:
     one-electron contribution =      45.47718431 Ry
     hartree contribution      =      33.16092365 Ry
     xc contribution           =    -128.24824842 Ry
     ewald contribution        =    -280.89534735 Ry
     one-center paw contrib.   =   -2770.04980668 Ry

     convergence has been achieved in  15 iterations

     Forces acting on atoms (cartesian axes, Ry/au):

     atom    1 type  1   force =     0.00000048   -0.00000274   -0.00000119
     atom    2 type  1   force =    -0.00000027    0.00000276   -0.00000126
     atom    3 type  1   force =    -0.00000042   -0.00000258    0.00000169
     atom    4 type  1   force =     0.00000020    0.00000256    0.00000076

     Total force =     0.000006     Total SCF correction =     0.000006
     SCF correction compared to forces is large: reduce conv_thr to get better values


     Computing stress (Cartesian axis) and pressure

          total   stress  (Ry/bohr**3)                   (kbar)     P=      -16.21
  -0.00011019  -0.00000000  -0.00000000          -16.21       -0.00       -0.00
  -0.00000000  -0.00011019   0.00000000           -0.00      -16.21        0.00
  -0.00000000   0.00000000  -0.00011019           -0.00        0.00      -16.21


     Writing all to output data dir ./gold.save/
 
     init_run     :      4.05s CPU      4.18s WALL (       1 calls)
     electrons    :    210.86s CPU    213.16s WALL (       1 calls)
     forces       :      0.73s CPU      0.74s WALL (       1 calls)
     stress       :      2.62s CPU      2.63s WALL (       1 calls)

     Called by init_run:
     wfcinit      :      3.67s CPU      3.76s WALL (       1 calls)
     potinit      :      0.07s CPU      0.09s WALL (       1 calls)
     hinit0       :      0.08s CPU      0.09s WALL (       1 calls)

     Called by electrons:
     c_bands      :    190.33s CPU    192.38s WALL (      16 calls)
     sum_band     :     19.68s CPU     19.89s WALL (      16 calls)
     v_of_rho     :      0.10s CPU      0.14s WALL (      16 calls)
     newd         :      0.05s CPU      0.07s WALL (      16 calls)
     PAW_pot      :      0.72s CPU      0.73s WALL (      16 calls)
     mix_rho      :      0.02s CPU      0.02s WALL (      16 calls)

     Called by c_bands:
     init_us_2    :      2.13s CPU      2.16s WALL (    7595 calls)
     init_us_2:cp :      2.12s CPU      2.15s WALL (    7595 calls)
     cegterg      :    160.86s CPU    162.66s WALL (    3472 calls)

     Called by *egterg:
     cdiaghg      :     11.10s CPU     11.17s WALL (   17715 calls)
     h_psi        :    118.32s CPU    119.93s WALL (   18149 calls)
     s_psi        :      7.43s CPU      7.48s WALL (   18149 calls)
     g_psi        :      0.89s CPU      0.90s WALL (   14460 calls)

     Called by h_psi:
     h_psi:calbec :      8.13s CPU      8.22s WALL (   18149 calls)
     vloc_psi     :    101.88s CPU    103.33s WALL (   18149 calls)
     add_vuspsi   :      7.78s CPU      7.85s WALL (   18149 calls)

     General routines
     calbec       :     10.64s CPU     10.76s WALL (   22706 calls)
     fft          :      0.06s CPU      0.13s WALL (     202 calls)
     ffts         :      0.01s CPU      0.01s WALL (      16 calls)
     fftw         :    107.37s CPU    108.82s WALL (  741780 calls)
 
     Parallel routines
 
     PWSCF        :   3m39.25s CPU   3m42.34s WALL

 
   This run was terminated on:  20: 0:51  15Nov2023            

=------------------------------------------------------------------------------=
   JOB DONE.
=------------------------------------------------------------------------------=
