MPI startup(): Warning: I_MPI_PMI_LIBRARY will be ignored since the hydra process manager was found
MPI startup(): Warning: I_MPI_PMI_LIBRARY will be ignored since the hydra process manager was found
MPI startup(): Warning: I_MPI_PMI_LIBRARY will be ignored since the hydra process manager was found
MPI startup(): Warning: I_MPI_PMI_LIBRARY will be ignored since the hydra process manager was found
MPI startup(): Warning: I_MPI_PMI_LIBRARY will be ignored since the hydra process manager was found
MPI startup(): Warning: I_MPI_PMI_LIBRARY will be ignored since the hydra process manager was found
MPI startup(): Warning: I_MPI_PMI_LIBRARY will be ignored since the hydra process manager was found
MPI startup(): Warning: I_MPI_PMI_LIBRARY will be ignored since the hydra process manager was found
MPI startup(): Warning: I_MPI_PMI_LIBRARY will be ignored since the hydra process manager was found
MPI startup(): Warning: I_MPI_PMI_LIBRARY will be ignored since the hydra process manager was found
MPI startup(): Warning: I_MPI_PMI_LIBRARY will be ignored since the hydra process manager was found
MPI startup(): Warning: I_MPI_PMI_LIBRARY will be ignored since the hydra process manager was found

     Program PWSCF v.7.0 starts on 15Nov2023 at 19:27: 1 

     This program is part of the open-source Quantum ESPRESSO suite
     for quantum simulation of materials; please cite
         "P. Giannozzi et al., J. Phys.:Condens. Matter 21 395502 (2009);
         "P. Giannozzi et al., J. Phys.:Condens. Matter 29 465901 (2017);
         "P. Giannozzi et al., J. Chem. Phys. 152 154105 (2020);
          URL http://www.quantum-espresso.org", 
     in publications or presentations arising from this work. More details at
     http://www.quantum-espresso.org/quote

     Parallel version (MPI), running on    12 processors

     MPI processes distributed on     1 nodes
     K-points division:     npool     =       4
     R & G space division:  proc/nbgrp/npool/nimage =       3
     111246 MiB available memory on the printing compute node when the environment starts
 
     Waiting for input...
     Reading input from standard input

     Current dimensions of program PWSCF are:
     Max number of different atomic species (ntypx) = 10
     Max number of k-points (npk) =  40000
     Max angular momentum in pseudopotentials (lmaxx) =  4
     file Au.UPF: wavefunction(s)  6S 5D renormalized
     Found identity + ( -0.5000 -0.5000  0.0000) symmetry
     This is a supercell, fractional translations are disabled

     Subspace diagonalization in iterative solution of the eigenvalue problem:
     a serial algorithm will be used

 
     Parallelization info
     --------------------
     sticks:   dense  smooth     PW     G-vecs:    dense   smooth      PW
     Min         313     313     97                 7185     7185    1231
     Max         314     314     98                 7188     7188    1232
     Sum         941     941    293                21559    21559    3695
 
     Using Slab Decomposition
 


     bravais-lattice index     =            0
     lattice parameter (alat)  =       7.0000  a.u.
     unit-cell volume          =     343.0000 (a.u.)^3
     number of atoms/cell      =            4
     number of atomic types    =            1
     number of electrons       =        44.00
     number of Kohn-Sham states=           26
     kinetic-energy cutoff     =      60.0000  Ry
     charge density cutoff     =     240.0000  Ry
     scf convergence threshold =      1.0E-09
     mixing beta               =       0.7000
     number of iterations used =            8  plain     mixing
     Exchange-correlation= SLA  PW   PBX  PBC
                           (   1   4   3   4   0   0   0)

     celldm(1)=   7.000000  celldm(2)=   0.000000  celldm(3)=   0.000000
     celldm(4)=   0.000000  celldm(5)=   0.000000  celldm(6)=   0.000000

     crystal axes: (cart. coord. in units of alat)
               a(1) = (   1.000000   0.000000   0.000000 )  
               a(2) = (   0.000000   1.000000   0.000000 )  
               a(3) = (   0.000000   0.000000   1.000000 )  

     reciprocal axes: (cart. coord. in units 2 pi/alat)
               b(1) = (  1.000000  0.000000  0.000000 )  
               b(2) = (  0.000000  1.000000  0.000000 )  
               b(3) = (  0.000000  0.000000  1.000000 )  


     PseudoPot. # 1 for Au read from file:
     ./Au.UPF
     MD5 check sum: 4db85c736373c707a97ce4c36c2a9d23
     Pseudo is Projector augmented-wave + core cor, Zval = 11.0
     Generated using &quot;atomic&quot; code by A. Dal Corso  v.6.3
     Shape of augmentation charge: PSQ
     Using radial grid of 1279 points,  6 beta functions with: 
                l(1) =   0
                l(2) =   0
                l(3) =   1
                l(4) =   1
                l(5) =   2
                l(6) =   2
     Q(r) pseudized with 0 coefficients 


     atomic species   valence    mass     pseudopotential
        Au            11.00   196.96657     Au( 1.00)

     No symmetry found



   Cartesian axes

     site n.     atom                  positions (alat units)
         1           Au  tau(   1) = (   0.0000000   0.0000000   0.0000000  )
         2           Au  tau(   2) = (   0.5000000   0.5000000   0.0000000  )
         3           Au  tau(   3) = (   0.5000000   0.0000000   0.5000000  )
         4           Au  tau(   4) = (   0.0000000   0.5000000   0.5000000  )

     number of k points=   868  Gaussian smearing, width (Ry)=  0.0200

     Number of k-points >= 100: set verbosity='high' to print them.

     Dense  grid:    21559 G-vectors     FFT dimensions: (  36,  36,  36)

     Estimated max dynamical RAM per process >      89.42 MB

     Estimated total dynamical RAM >       1.03 GB

     Initial potential from superposition of free atoms

     starting charge      43.9996, renormalised to      44.0000
     Starting wfcs are   36 randomized atomic wfcs
     Checking if some PAW data can be deallocated... 

     total cpu time spent up to now is        3.6 secs

     Self-consistent Calculation

     iteration #  1     ecut=    60.00 Ry     beta= 0.70
     Davidson diagonalization with overlap
     ethr =  1.00E-02,  avg # of iterations =  3.7

     Threshold (ethr) on eigenvalues was too large:
     Diagonalizing with lowered threshold

     Davidson diagonalization with overlap
     ethr =  1.39E-04,  avg # of iterations =  7.2

     total cpu time spent up to now is       26.7 secs

     total energy              =   -3100.07431852 Ry
     estimated scf accuracy    <       0.12402796 Ry

     iteration #  2     ecut=    60.00 Ry     beta= 0.70
     Davidson diagonalization with overlap
     ethr =  2.82E-04,  avg # of iterations =  2.0

     total cpu time spent up to now is       34.2 secs

     total energy              =   -3100.10413776 Ry
     estimated scf accuracy    <       0.00477515 Ry

     iteration #  3     ecut=    60.00 Ry     beta= 0.70
     Davidson diagonalization with overlap
     c_bands:  1 eigenvalues not converged
     c_bands:  1 eigenvalues not converged
     ethr =  1.09E-05,  avg # of iterations =  5.5

     total cpu time spent up to now is       45.9 secs

     total energy              =   -3100.10653824 Ry
     estimated scf accuracy    <       0.00137708 Ry

     iteration #  4     ecut=    60.00 Ry     beta= 0.70
     Davidson diagonalization with overlap
     c_bands:  2 eigenvalues not converged
     ethr =  3.13E-06,  avg # of iterations =  3.5

     total cpu time spent up to now is       55.0 secs

     total energy              =   -3100.10685085 Ry
     estimated scf accuracy    <       0.00115682 Ry

     iteration #  5     ecut=    60.00 Ry     beta= 0.70
     Davidson diagonalization with overlap
     ethr =  2.63E-06,  avg # of iterations =  1.6

     total cpu time spent up to now is       61.2 secs

     total energy              =   -3100.10688105 Ry
     estimated scf accuracy    <       0.00023237 Ry

     iteration #  6     ecut=    60.00 Ry     beta= 0.70
     Davidson diagonalization with overlap
     ethr =  5.28E-07,  avg # of iterations =  4.5

     total cpu time spent up to now is       71.0 secs

     total energy              =   -3100.10698845 Ry
     estimated scf accuracy    <       0.00000474 Ry

     iteration #  7     ecut=    60.00 Ry     beta= 0.70
     Davidson diagonalization with overlap
     ethr =  1.08E-08,  avg # of iterations =  7.7

     total cpu time spent up to now is       88.9 secs

     total energy              =   -3100.10699993 Ry
     estimated scf accuracy    <       0.00000741 Ry

     iteration #  8     ecut=    60.00 Ry     beta= 0.70
     Davidson diagonalization with overlap
     ethr =  1.08E-08,  avg # of iterations =  1.1

     total cpu time spent up to now is       94.7 secs

     total energy              =   -3100.10699795 Ry
     estimated scf accuracy    <       0.00000403 Ry

     iteration #  9     ecut=    60.00 Ry     beta= 0.70
     Davidson diagonalization with overlap
     ethr =  9.15E-09,  avg # of iterations =  2.0

     total cpu time spent up to now is      101.5 secs

     total energy              =   -3100.10699820 Ry
     estimated scf accuracy    <       0.00000041 Ry

     iteration # 10     ecut=    60.00 Ry     beta= 0.70
     Davidson diagonalization with overlap
     ethr =  9.36E-10,  avg # of iterations =  6.0

     total cpu time spent up to now is      113.9 secs

     total energy              =   -3100.10699860 Ry
     estimated scf accuracy    <       0.00000005 Ry

     iteration # 11     ecut=    60.00 Ry     beta= 0.70
     Davidson diagonalization with overlap
     ethr =  1.16E-10,  avg # of iterations =  4.9

     total cpu time spent up to now is      125.4 secs

     total energy              =   -3100.10699861 Ry
     estimated scf accuracy    <       0.00000004 Ry

     iteration # 12     ecut=    60.00 Ry     beta= 0.70
     Davidson diagonalization with overlap
     ethr =  8.27E-11,  avg # of iterations =  2.0

     total cpu time spent up to now is      132.0 secs

     total energy              =   -3100.10699861 Ry
     estimated scf accuracy    <          2.9E-09 Ry

     iteration # 13     ecut=    60.00 Ry     beta= 0.70
     Davidson diagonalization with overlap
     ethr =  6.56E-12,  avg # of iterations =  6.5

     total cpu time spent up to now is      145.9 secs

     total energy              =   -3100.10699861 Ry
     estimated scf accuracy    <          4.7E-09 Ry

     iteration # 14     ecut=    60.00 Ry     beta= 0.70
     Davidson diagonalization with overlap
     ethr =  6.56E-12,  avg # of iterations =  2.0

     total cpu time spent up to now is      152.6 secs

     End of self-consistent calculation

     Number of k-points >= 100: set verbosity='high' to print the bands.

     the Fermi energy is    24.0319 ev

!    total energy              =   -3100.10699861 Ry

     total all-electron energy =   -152095.491363 Ry
     estimated scf accuracy    <          6.6E-10 Ry
     smearing contrib. (-TS)   =      -0.00254947 Ry
     internal energy E=F+TS    =   -3100.10444915 Ry

     The total energy is F=E-TS. E is the sum of the following terms:
     one-electron contribution =      95.94166915 Ry
     hartree contribution      =      21.30876000 Ry
     xc contribution           =    -129.90114010 Ry
     ewald contribution        =    -317.01046344 Ry
     one-center paw contrib.   =   -2770.44327476 Ry

     convergence has been achieved in  14 iterations

     Forces acting on atoms (cartesian axes, Ry/au):

     atom    1 type  1   force =     0.00000029    0.00000051    0.00000007
     atom    2 type  1   force =    -0.00000034   -0.00000054    0.00000012
     atom    3 type  1   force =    -0.00000030    0.00000057   -0.00000008
     atom    4 type  1   force =     0.00000035   -0.00000054   -0.00000011

     Total force =     0.000001     Total SCF correction =     0.000002
     SCF correction compared to forces is large: reduce conv_thr to get better values


     Computing stress (Cartesian axis) and pressure

          total   stress  (Ry/bohr**3)                   (kbar)     P=     1357.33
   0.00922693  -0.00000000  -0.00000000         1357.33       -0.00       -0.00
  -0.00000000   0.00922693   0.00000000           -0.00     1357.33        0.00
  -0.00000000   0.00000000   0.00922693           -0.00        0.00     1357.33


     Writing all to output data dir ./gold.save/
 
     init_run     :      3.05s CPU      3.17s WALL (       1 calls)
     electrons    :    147.16s CPU    149.03s WALL (       1 calls)
     forces       :      0.55s CPU      0.57s WALL (       1 calls)
     stress       :      1.83s CPU      1.84s WALL (       1 calls)

     Called by init_run:
     wfcinit      :      2.73s CPU      2.81s WALL (       1 calls)
     potinit      :      0.07s CPU      0.09s WALL (       1 calls)
     hinit0       :      0.08s CPU      0.09s WALL (       1 calls)

     Called by electrons:
     c_bands      :    132.62s CPU    134.24s WALL (      15 calls)
     sum_band     :     13.63s CPU     13.83s WALL (      15 calls)
     v_of_rho     :      0.07s CPU      0.12s WALL (      15 calls)
     newd         :      0.05s CPU      0.07s WALL (      15 calls)
     PAW_pot      :      0.83s CPU      0.84s WALL (      15 calls)
     mix_rho      :      0.01s CPU      0.01s WALL (      15 calls)

     Called by c_bands:
     init_us_2    :      1.39s CPU      1.41s WALL (    7161 calls)
     init_us_2:cp :      1.38s CPU      1.40s WALL (    7161 calls)
     cegterg      :    110.90s CPU    112.34s WALL (    3255 calls)

     Called by *egterg:
     cdiaghg      :      9.86s CPU      9.94s WALL (   16406 calls)
     h_psi        :     80.35s CPU     81.63s WALL (   16840 calls)
     s_psi        :      4.97s CPU      5.02s WALL (   16840 calls)
     g_psi        :      0.56s CPU      0.57s WALL (   13368 calls)

     Called by h_psi:
     h_psi:calbec :      5.27s CPU      5.35s WALL (   16840 calls)
     vloc_psi     :     69.74s CPU     70.88s WALL (   16840 calls)
     add_vuspsi   :      5.01s CPU      5.07s WALL (   16840 calls)

     General routines
     calbec       :      7.05s CPU      7.15s WALL (   21180 calls)
     fft          :      0.06s CPU      0.15s WALL (     191 calls)
     ffts         :      0.00s CPU      0.01s WALL (      15 calls)
     fftw         :     74.28s CPU     75.48s WALL (  681604 calls)
 
     Parallel routines
 
     PWSCF        :   2m33.57s CPU   2m36.26s WALL

 
   This run was terminated on:  19:29:38  15Nov2023            

=------------------------------------------------------------------------------=
   JOB DONE.
=------------------------------------------------------------------------------=
