MPI startup(): Warning: I_MPI_PMI_LIBRARY will be ignored since the hydra process manager was found
MPI startup(): Warning: I_MPI_PMI_LIBRARY will be ignored since the hydra process manager was found
MPI startup(): Warning: I_MPI_PMI_LIBRARY will be ignored since the hydra process manager was found
MPI startup(): Warning: I_MPI_PMI_LIBRARY will be ignored since the hydra process manager was found
MPI startup(): Warning: I_MPI_PMI_LIBRARY will be ignored since the hydra process manager was found
MPI startup(): Warning: I_MPI_PMI_LIBRARY will be ignored since the hydra process manager was found
MPI startup(): Warning: I_MPI_PMI_LIBRARY will be ignored since the hydra process manager was found
MPI startup(): Warning: I_MPI_PMI_LIBRARY will be ignored since the hydra process manager was found
MPI startup(): Warning: I_MPI_PMI_LIBRARY will be ignored since the hydra process manager was found
MPI startup(): Warning: I_MPI_PMI_LIBRARY will be ignored since the hydra process manager was found
MPI startup(): Warning: I_MPI_PMI_LIBRARY will be ignored since the hydra process manager was found
MPI startup(): Warning: I_MPI_PMI_LIBRARY will be ignored since the hydra process manager was found

     Program PWSCF v.7.0 starts on 15Nov2023 at 19:34:51 

     This program is part of the open-source Quantum ESPRESSO suite
     for quantum simulation of materials; please cite
         "P. Giannozzi et al., J. Phys.:Condens. Matter 21 395502 (2009);
         "P. Giannozzi et al., J. Phys.:Condens. Matter 29 465901 (2017);
         "P. Giannozzi et al., J. Chem. Phys. 152 154105 (2020);
          URL http://www.quantum-espresso.org", 
     in publications or presentations arising from this work. More details at
     http://www.quantum-espresso.org/quote

     Parallel version (MPI), running on    12 processors

     MPI processes distributed on     1 nodes
     K-points division:     npool     =       4
     R & G space division:  proc/nbgrp/npool/nimage =       3
     111210 MiB available memory on the printing compute node when the environment starts
 
     Waiting for input...
     Reading input from standard input

     Current dimensions of program PWSCF are:
     Max number of different atomic species (ntypx) = 10
     Max number of k-points (npk) =  40000
     Max angular momentum in pseudopotentials (lmaxx) =  4
     file Au.UPF: wavefunction(s)  6S 5D renormalized
     Found identity + ( -0.5000 -0.5000  0.0000) symmetry
     This is a supercell, fractional translations are disabled

     Subspace diagonalization in iterative solution of the eigenvalue problem:
     a serial algorithm will be used

 
     Parallelization info
     --------------------
     sticks:   dense  smooth     PW     G-vecs:    dense   smooth      PW
     Min         335     335    100                 8101     8101    1319
     Max         335     335    101                 8101     8101    1320
     Sum        1005    1005    301                24303    24303    3959
 
     Using Slab Decomposition
 


     bravais-lattice index     =            0
     lattice parameter (alat)  =       7.3000  a.u.
     unit-cell volume          =     389.0170 (a.u.)^3
     number of atoms/cell      =            4
     number of atomic types    =            1
     number of electrons       =        44.00
     number of Kohn-Sham states=           26
     kinetic-energy cutoff     =      60.0000  Ry
     charge density cutoff     =     240.0000  Ry
     scf convergence threshold =      1.0E-09
     mixing beta               =       0.7000
     number of iterations used =            8  plain     mixing
     Exchange-correlation= SLA  PW   PBX  PBC
                           (   1   4   3   4   0   0   0)

     celldm(1)=   7.300000  celldm(2)=   0.000000  celldm(3)=   0.000000
     celldm(4)=   0.000000  celldm(5)=   0.000000  celldm(6)=   0.000000

     crystal axes: (cart. coord. in units of alat)
               a(1) = (   1.000000   0.000000   0.000000 )  
               a(2) = (   0.000000   1.000000   0.000000 )  
               a(3) = (   0.000000   0.000000   1.000000 )  

     reciprocal axes: (cart. coord. in units 2 pi/alat)
               b(1) = (  1.000000  0.000000  0.000000 )  
               b(2) = (  0.000000  1.000000  0.000000 )  
               b(3) = (  0.000000  0.000000  1.000000 )  


     PseudoPot. # 1 for Au read from file:
     ./Au.UPF
     MD5 check sum: 4db85c736373c707a97ce4c36c2a9d23
     Pseudo is Projector augmented-wave + core cor, Zval = 11.0
     Generated using &quot;atomic&quot; code by A. Dal Corso  v.6.3
     Shape of augmentation charge: PSQ
     Using radial grid of 1279 points,  6 beta functions with: 
                l(1) =   0
                l(2) =   0
                l(3) =   1
                l(4) =   1
                l(5) =   2
                l(6) =   2
     Q(r) pseudized with 0 coefficients 


     atomic species   valence    mass     pseudopotential
        Au            11.00   196.96657     Au( 1.00)

     No symmetry found



   Cartesian axes

     site n.     atom                  positions (alat units)
         1           Au  tau(   1) = (   0.0000000   0.0000000   0.0000000  )
         2           Au  tau(   2) = (   0.5000000   0.5000000   0.0000000  )
         3           Au  tau(   3) = (   0.5000000   0.0000000   0.5000000  )
         4           Au  tau(   4) = (   0.0000000   0.5000000   0.5000000  )

     number of k points=   868  Gaussian smearing, width (Ry)=  0.0200

     Number of k-points >= 100: set verbosity='high' to print them.

     Dense  grid:    24303 G-vectors     FFT dimensions: (  36,  36,  36)

     Estimated max dynamical RAM per process >     101.01 MB

     Estimated total dynamical RAM >       1.17 GB

     Initial potential from superposition of free atoms

     starting charge      43.9996, renormalised to      44.0000
     Starting wfcs are   36 randomized atomic wfcs
     Checking if some PAW data can be deallocated... 

     total cpu time spent up to now is        3.7 secs

     Self-consistent Calculation

     iteration #  1     ecut=    60.00 Ry     beta= 0.70
     Davidson diagonalization with overlap
     ethr =  1.00E-02,  avg # of iterations =  3.0

     Threshold (ethr) on eigenvalues was too large:
     Diagonalizing with lowered threshold

     Davidson diagonalization with overlap
     ethr =  1.94E-04,  avg # of iterations =  6.2

     total cpu time spent up to now is       25.0 secs

     total energy              =   -3100.35225847 Ry
     estimated scf accuracy    <       0.15935792 Ry

     iteration #  2     ecut=    60.00 Ry     beta= 0.70
     Davidson diagonalization with overlap
     ethr =  3.62E-04,  avg # of iterations =  2.1

     total cpu time spent up to now is       33.0 secs

     total energy              =   -3100.39744673 Ry
     estimated scf accuracy    <       0.00866491 Ry

     iteration #  3     ecut=    60.00 Ry     beta= 0.70
     Davidson diagonalization with overlap
     ethr =  1.97E-05,  avg # of iterations =  5.1

     total cpu time spent up to now is       44.0 secs

     total energy              =   -3100.40056047 Ry
     estimated scf accuracy    <       0.00159612 Ry

     iteration #  4     ecut=    60.00 Ry     beta= 0.70
     Davidson diagonalization with overlap
     c_bands:  2 eigenvalues not converged
     c_bands:  1 eigenvalues not converged
     c_bands:  1 eigenvalues not converged
     c_bands:  1 eigenvalues not converged
     c_bands:  1 eigenvalues not converged
     ethr =  3.63E-06,  avg # of iterations =  4.4

     total cpu time spent up to now is       54.3 secs

     total energy              =   -3100.40123682 Ry
     estimated scf accuracy    <       0.00127606 Ry

     iteration #  5     ecut=    60.00 Ry     beta= 0.70
     Davidson diagonalization with overlap
     ethr =  2.90E-06,  avg # of iterations =  2.1

     total cpu time spent up to now is       61.0 secs

     total energy              =   -3100.40114994 Ry
     estimated scf accuracy    <       0.00045052 Ry

     iteration #  6     ecut=    60.00 Ry     beta= 0.70
     Davidson diagonalization with overlap
     ethr =  1.02E-06,  avg # of iterations =  4.0

     total cpu time spent up to now is       70.6 secs

     total energy              =   -3100.40134143 Ry
     estimated scf accuracy    <       0.00001086 Ry

     iteration #  7     ecut=    60.00 Ry     beta= 0.70
     Davidson diagonalization with overlap
     ethr =  2.47E-08,  avg # of iterations =  7.8

     total cpu time spent up to now is       89.7 secs

     total energy              =   -3100.40136662 Ry
     estimated scf accuracy    <       0.00002153 Ry

     iteration #  8     ecut=    60.00 Ry     beta= 0.70
     Davidson diagonalization with overlap
     ethr =  2.47E-08,  avg # of iterations =  1.1

     total cpu time spent up to now is       95.6 secs

     total energy              =   -3100.40135926 Ry
     estimated scf accuracy    <       0.00001367 Ry

     iteration #  9     ecut=    60.00 Ry     beta= 0.70
     Davidson diagonalization with overlap
     ethr =  2.47E-08,  avg # of iterations =  2.0

     total cpu time spent up to now is      103.1 secs

     total energy              =   -3100.40136053 Ry
     estimated scf accuracy    <       0.00000097 Ry

     iteration # 10     ecut=    60.00 Ry     beta= 0.70
     Davidson diagonalization with overlap
     ethr =  2.20E-09,  avg # of iterations =  6.9

     total cpu time spent up to now is      117.9 secs

     total energy              =   -3100.40136171 Ry
     estimated scf accuracy    <       0.00000087 Ry

     iteration # 11     ecut=    60.00 Ry     beta= 0.70
     Davidson diagonalization with overlap
     ethr =  1.99E-09,  avg # of iterations =  1.1

     total cpu time spent up to now is      123.9 secs

     total energy              =   -3100.40136158 Ry
     estimated scf accuracy    <       0.00000024 Ry

     iteration # 12     ecut=    60.00 Ry     beta= 0.70
     Davidson diagonalization with overlap
     ethr =  5.55E-10,  avg # of iterations =  3.7

     total cpu time spent up to now is      133.0 secs

     total energy              =   -3100.40136168 Ry
     estimated scf accuracy    <          1.2E-09 Ry

     iteration # 13     ecut=    60.00 Ry     beta= 0.70
     Davidson diagonalization with overlap
     ethr =  2.83E-12,  avg # of iterations = 13.5

     total cpu time spent up to now is      162.6 secs

     total energy              =   -3100.40136166 Ry
     estimated scf accuracy    <       0.00000010 Ry

     iteration # 14     ecut=    60.00 Ry     beta= 0.70
     Davidson diagonalization with overlap
     c_bands:  1 eigenvalues not converged
     ethr =  2.83E-12,  avg # of iterations = 10.4

     total cpu time spent up to now is      184.6 secs

     End of self-consistent calculation

     Number of k-points >= 100: set verbosity='high' to print the bands.

     the Fermi energy is    20.2042 ev

!    total energy              =   -3100.40136168 Ry

     total all-electron energy =   -152095.785726 Ry
     estimated scf accuracy    <          7.9E-10 Ry
     smearing contrib. (-TS)   =      -0.00260933 Ry
     internal energy E=F+TS    =   -3100.39875235 Ry

     The total energy is F=E-TS. E is the sum of the following terms:
     one-electron contribution =      77.97369404 Ry
     hartree contribution      =      25.03901095 Ry
     xc contribution           =    -129.17427861 Ry
     ewald contribution        =    -303.98263617 Ry
     one-center paw contrib.   =   -2770.25454255 Ry

     convergence has been achieved in  14 iterations

     Forces acting on atoms (cartesian axes, Ry/au):

     atom    1 type  1   force =     0.00000105    0.00000095    0.00000147
     atom    2 type  1   force =    -0.00000103   -0.00000094    0.00000151
     atom    3 type  1   force =    -0.00000105    0.00000092   -0.00000149
     atom    4 type  1   force =     0.00000104   -0.00000094   -0.00000149

     Total force =     0.000004     Total SCF correction =     0.000010
     SCF correction compared to forces is large: reduce conv_thr to get better values


     Computing stress (Cartesian axis) and pressure

          total   stress  (Ry/bohr**3)                   (kbar)     P=      607.82
   0.00413191   0.00000000  -0.00000000          607.82        0.00       -0.00
   0.00000000   0.00413191   0.00000000            0.00      607.82        0.00
  -0.00000000   0.00000000   0.00413191           -0.00        0.00      607.82


     Writing all to output data dir ./gold.save/
 
     init_run     :      3.16s CPU      3.29s WALL (       1 calls)
     electrons    :    178.84s CPU    180.85s WALL (       1 calls)
     forces       :      0.60s CPU      0.62s WALL (       1 calls)
     stress       :      2.07s CPU      2.08s WALL (       1 calls)

     Called by init_run:
     wfcinit      :      2.83s CPU      2.92s WALL (       1 calls)
     potinit      :      0.06s CPU      0.08s WALL (       1 calls)
     hinit0       :      0.08s CPU      0.09s WALL (       1 calls)

     Called by electrons:
     c_bands      :    164.08s CPU    165.89s WALL (      15 calls)
     sum_band     :     14.01s CPU     14.19s WALL (      15 calls)
     v_of_rho     :      0.07s CPU      0.09s WALL (      15 calls)
     newd         :      0.05s CPU      0.06s WALL (      15 calls)
     PAW_pot      :      0.67s CPU      0.68s WALL (      15 calls)
     mix_rho      :      0.01s CPU      0.01s WALL (      15 calls)

     Called by c_bands:
     init_us_2    :      1.58s CPU      1.60s WALL (    7161 calls)
     init_us_2:cp :      1.57s CPU      1.59s WALL (    7161 calls)
     cegterg      :    140.43s CPU    142.05s WALL (    3255 calls)

     Called by *egterg:
     cdiaghg      :     12.04s CPU     12.12s WALL (   19219 calls)
     h_psi        :     98.89s CPU    100.30s WALL (   19653 calls)
     s_psi        :      6.56s CPU      6.62s WALL (   19653 calls)
     g_psi        :      0.83s CPU      0.84s WALL (   16181 calls)

     Called by h_psi:
     h_psi:calbec :      6.97s CPU      7.07s WALL (   19653 calls)
     vloc_psi     :     84.77s CPU     86.00s WALL (   19653 calls)
     add_vuspsi   :      6.70s CPU      6.78s WALL (   19653 calls)

     General routines
     calbec       :      8.97s CPU      9.10s WALL (   23993 calls)
     fft          :      0.06s CPU      0.11s WALL (     191 calls)
     ffts         :      0.01s CPU      0.01s WALL (      15 calls)
     fftw         :     88.24s CPU     89.49s WALL (  806708 calls)
 
     Parallel routines
 
     PWSCF        :   3m 5.79s CPU   3m 8.71s WALL

 
   This run was terminated on:  19:38: 0  15Nov2023            

=------------------------------------------------------------------------------=
   JOB DONE.
=------------------------------------------------------------------------------=
