MPI startup(): Warning: I_MPI_PMI_LIBRARY will be ignored since the hydra process manager was found
MPI startup(): Warning: I_MPI_PMI_LIBRARY will be ignored since the hydra process manager was found
MPI startup(): Warning: I_MPI_PMI_LIBRARY will be ignored since the hydra process manager was found
MPI startup(): Warning: I_MPI_PMI_LIBRARY will be ignored since the hydra process manager was found
MPI startup(): Warning: I_MPI_PMI_LIBRARY will be ignored since the hydra process manager was found
MPI startup(): Warning: I_MPI_PMI_LIBRARY will be ignored since the hydra process manager was found
MPI startup(): Warning: I_MPI_PMI_LIBRARY will be ignored since the hydra process manager was found
MPI startup(): Warning: I_MPI_PMI_LIBRARY will be ignored since the hydra process manager was found
MPI startup(): Warning: I_MPI_PMI_LIBRARY will be ignored since the hydra process manager was found
MPI startup(): Warning: I_MPI_PMI_LIBRARY will be ignored since the hydra process manager was found
MPI startup(): Warning: I_MPI_PMI_LIBRARY will be ignored since the hydra process manager was found
MPI startup(): Warning: I_MPI_PMI_LIBRARY will be ignored since the hydra process manager was found

     Program PWSCF v.7.0 starts on 15Nov2023 at 19:22:14 

     This program is part of the open-source Quantum ESPRESSO suite
     for quantum simulation of materials; please cite
         "P. Giannozzi et al., J. Phys.:Condens. Matter 21 395502 (2009);
         "P. Giannozzi et al., J. Phys.:Condens. Matter 29 465901 (2017);
         "P. Giannozzi et al., J. Chem. Phys. 152 154105 (2020);
          URL http://www.quantum-espresso.org", 
     in publications or presentations arising from this work. More details at
     http://www.quantum-espresso.org/quote

     Parallel version (MPI), running on    12 processors

     MPI processes distributed on     1 nodes
     K-points division:     npool     =       4
     R & G space division:  proc/nbgrp/npool/nimage =       3
     109707 MiB available memory on the printing compute node when the environment starts
 
     Waiting for input...
     Reading input from standard input

     Current dimensions of program PWSCF are:
     Max number of different atomic species (ntypx) = 10
     Max number of k-points (npk) =  40000
     Max angular momentum in pseudopotentials (lmaxx) =  4
     file Au.UPF: wavefunction(s)  6S 5D renormalized
     Found identity + ( -0.5000 -0.5000  0.0000) symmetry
     This is a supercell, fractional translations are disabled

     Subspace diagonalization in iterative solution of the eigenvalue problem:
     a serial algorithm will be used

 
     Parallelization info
     --------------------
     sticks:   dense  smooth     PW     G-vecs:    dense   smooth      PW
     Min         293     293     92                 6612     6612    1095
     Max         296     296     93                 6613     6613    1096
     Sum         885     885    277                19837    19837    3287
 
     Using Slab Decomposition
 


     bravais-lattice index     =            0
     lattice parameter (alat)  =       6.8000  a.u.
     unit-cell volume          =     314.4320 (a.u.)^3
     number of atoms/cell      =            4
     number of atomic types    =            1
     number of electrons       =        44.00
     number of Kohn-Sham states=           26
     kinetic-energy cutoff     =      60.0000  Ry
     charge density cutoff     =     240.0000  Ry
     scf convergence threshold =      1.0E-09
     mixing beta               =       0.7000
     number of iterations used =            8  plain     mixing
     Exchange-correlation= SLA  PW   PBX  PBC
                           (   1   4   3   4   0   0   0)

     celldm(1)=   6.800000  celldm(2)=   0.000000  celldm(3)=   0.000000
     celldm(4)=   0.000000  celldm(5)=   0.000000  celldm(6)=   0.000000

     crystal axes: (cart. coord. in units of alat)
               a(1) = (   1.000000   0.000000   0.000000 )  
               a(2) = (   0.000000   1.000000   0.000000 )  
               a(3) = (   0.000000   0.000000   1.000000 )  

     reciprocal axes: (cart. coord. in units 2 pi/alat)
               b(1) = (  1.000000  0.000000  0.000000 )  
               b(2) = (  0.000000  1.000000  0.000000 )  
               b(3) = (  0.000000  0.000000  1.000000 )  


     PseudoPot. # 1 for Au read from file:
     ./Au.UPF
     MD5 check sum: 4db85c736373c707a97ce4c36c2a9d23
     Pseudo is Projector augmented-wave + core cor, Zval = 11.0
     Generated using &quot;atomic&quot; code by A. Dal Corso  v.6.3
     Shape of augmentation charge: PSQ
     Using radial grid of 1279 points,  6 beta functions with: 
                l(1) =   0
                l(2) =   0
                l(3) =   1
                l(4) =   1
                l(5) =   2
                l(6) =   2
     Q(r) pseudized with 0 coefficients 


     atomic species   valence    mass     pseudopotential
        Au            11.00   196.96657     Au( 1.00)

     No symmetry found



   Cartesian axes

     site n.     atom                  positions (alat units)
         1           Au  tau(   1) = (   0.0000000   0.0000000   0.0000000  )
         2           Au  tau(   2) = (   0.5000000   0.5000000   0.0000000  )
         3           Au  tau(   3) = (   0.5000000   0.0000000   0.5000000  )
         4           Au  tau(   4) = (   0.0000000   0.5000000   0.5000000  )

     number of k points=   868  Gaussian smearing, width (Ry)=  0.0200

     Number of k-points >= 100: set verbosity='high' to print them.

     Dense  grid:    19837 G-vectors     FFT dimensions: (  36,  36,  36)

     Estimated max dynamical RAM per process >      82.16 MB

     Estimated total dynamical RAM >     971.44 MB

     Initial potential from superposition of free atoms

     starting charge      43.9996, renormalised to      44.0000
     Starting wfcs are   36 randomized atomic wfcs
     Checking if some PAW data can be deallocated... 

     total cpu time spent up to now is        3.5 secs

     Self-consistent Calculation

     iteration #  1     ecut=    60.00 Ry     beta= 0.70
     Davidson diagonalization with overlap
     ethr =  1.00E-02,  avg # of iterations =  4.1

     Threshold (ethr) on eigenvalues was too large:
     Diagonalizing with lowered threshold

     Davidson diagonalization with overlap
     ethr =  1.13E-04,  avg # of iterations =  7.8

     total cpu time spent up to now is       27.4 secs

     total energy              =   -3099.75009294 Ry
     estimated scf accuracy    <       0.09747639 Ry

     iteration #  2     ecut=    60.00 Ry     beta= 0.70
     Davidson diagonalization with overlap
     ethr =  2.22E-04,  avg # of iterations =  2.0

     total cpu time spent up to now is       34.3 secs

     total energy              =   -3099.76864366 Ry
     estimated scf accuracy    <       0.00340649 Ry

     iteration #  3     ecut=    60.00 Ry     beta= 0.70
     Davidson diagonalization with overlap
     ethr =  7.74E-06,  avg # of iterations =  5.8

     total cpu time spent up to now is       46.2 secs

     total energy              =   -3099.77081200 Ry
     estimated scf accuracy    <       0.00109890 Ry

     iteration #  4     ecut=    60.00 Ry     beta= 0.70
     Davidson diagonalization with overlap
     ethr =  2.50E-06,  avg # of iterations =  3.9

     total cpu time spent up to now is       55.1 secs

     total energy              =   -3099.77099877 Ry
     estimated scf accuracy    <       0.00087253 Ry

     iteration #  5     ecut=    60.00 Ry     beta= 0.70
     Davidson diagonalization with overlap
     c_bands:  1 eigenvalues not converged
     ethr =  1.98E-06,  avg # of iterations =  1.9

     total cpu time spent up to now is       61.2 secs

     total energy              =   -3099.77108742 Ry
     estimated scf accuracy    <       0.00009832 Ry

     iteration #  6     ecut=    60.00 Ry     beta= 0.70
     Davidson diagonalization with overlap
     ethr =  2.23E-07,  avg # of iterations =  5.1

     total cpu time spent up to now is       72.5 secs

     total energy              =   -3099.77116243 Ry
     estimated scf accuracy    <       0.00000994 Ry

     iteration #  7     ecut=    60.00 Ry     beta= 0.70
     Davidson diagonalization with overlap
     ethr =  2.26E-08,  avg # of iterations =  4.3

     total cpu time spent up to now is       82.3 secs

     total energy              =   -3099.77116472 Ry
     estimated scf accuracy    <       0.00000413 Ry

     iteration #  8     ecut=    60.00 Ry     beta= 0.70
     Davidson diagonalization with overlap
     ethr =  9.38E-09,  avg # of iterations =  2.1

     total cpu time spent up to now is       88.7 secs

     total energy              =   -3099.77116443 Ry
     estimated scf accuracy    <       0.00000140 Ry

     iteration #  9     ecut=    60.00 Ry     beta= 0.70
     Davidson diagonalization with overlap
     ethr =  3.19E-09,  avg # of iterations =  3.6

     total cpu time spent up to now is       97.1 secs

     total energy              =   -3099.77116471 Ry
     estimated scf accuracy    <       0.00000013 Ry

     iteration # 10     ecut=    60.00 Ry     beta= 0.70
     Davidson diagonalization with overlap
     ethr =  3.03E-10,  avg # of iterations =  6.8

     total cpu time spent up to now is      111.5 secs

     total energy              =   -3099.77116490 Ry
     estimated scf accuracy    <       0.00000003 Ry

     iteration # 11     ecut=    60.00 Ry     beta= 0.70
     Davidson diagonalization with overlap
     ethr =  6.80E-11,  avg # of iterations =  3.0

     total cpu time spent up to now is      119.4 secs

     total energy              =   -3099.77116490 Ry
     estimated scf accuracy    <       0.00000001 Ry

     iteration # 12     ecut=    60.00 Ry     beta= 0.70
     Davidson diagonalization with overlap
     ethr =  2.86E-11,  avg # of iterations =  2.8

     total cpu time spent up to now is      127.3 secs

     End of self-consistent calculation

     Number of k-points >= 100: set verbosity='high' to print the bands.

     the Fermi energy is    27.0072 ev

!    total energy              =   -3099.77116490 Ry

     total all-electron energy =   -152095.155529 Ry
     estimated scf accuracy    <          2.1E-11 Ry
     smearing contrib. (-TS)   =      -0.00241582 Ry
     internal energy E=F+TS    =   -3099.76874908 Ry

     The total energy is F=E-TS. E is the sum of the following terms:
     one-electron contribution =     108.71862317 Ry
     hartree contribution      =      18.98210980 Ry
     xc contribution           =    -130.51639134 Ry
     ewald contribution        =    -326.33430059 Ry
     one-center paw contrib.   =   -2770.61879012 Ry

     convergence has been achieved in  12 iterations

     Forces acting on atoms (cartesian axes, Ry/au):

     atom    1 type  1   force =     0.00000026    0.00000004   -0.00000102
     atom    2 type  1   force =    -0.00000022   -0.00000001   -0.00000127
     atom    3 type  1   force =    -0.00000010    0.00000006    0.00000128
     atom    4 type  1   force =     0.00000006   -0.00000009    0.00000101

     Total force =     0.000002     Total SCF correction =     0.000005
     SCF correction compared to forces is large: reduce conv_thr to get better values


     Computing stress (Cartesian axis) and pressure

          total   stress  (Ry/bohr**3)                   (kbar)     P=     2159.09
   0.01467719   0.00000000   0.00000000         2159.09        0.00        0.00
   0.00000000   0.01467719   0.00000000            0.00     2159.09        0.00
   0.00000000   0.00000000   0.01467719            0.00        0.00     2159.09


     Writing all to output data dir ./gold.save/
 
     init_run     :      2.94s CPU      3.06s WALL (       1 calls)
     electrons    :    122.36s CPU    123.89s WALL (       1 calls)
     forces       :      0.51s CPU      0.52s WALL (       1 calls)
     stress       :      1.68s CPU      1.69s WALL (       1 calls)

     Called by init_run:
     wfcinit      :      2.65s CPU      2.72s WALL (       1 calls)
     potinit      :      0.06s CPU      0.08s WALL (       1 calls)
     hinit0       :      0.08s CPU      0.09s WALL (       1 calls)

     Called by electrons:
     c_bands      :    110.04s CPU    111.33s WALL (      13 calls)
     sum_band     :     11.58s CPU     11.75s WALL (      13 calls)
     v_of_rho     :      0.07s CPU      0.15s WALL (      13 calls)
     newd         :      0.04s CPU      0.05s WALL (      13 calls)
     PAW_pot      :      0.66s CPU      0.67s WALL (      13 calls)
     mix_rho      :      0.01s CPU      0.01s WALL (      13 calls)

     Called by c_bands:
     init_us_2    :      1.11s CPU      1.13s WALL (    6293 calls)
     init_us_2:cp :      1.10s CPU      1.12s WALL (    6293 calls)
     cegterg      :     91.34s CPU     92.48s WALL (    2821 calls)

     Called by *egterg:
     cdiaghg      :      8.67s CPU      8.75s WALL (   14416 calls)
     h_psi        :     67.17s CPU     68.17s WALL (   14850 calls)
     s_psi        :      3.89s CPU      3.93s WALL (   14850 calls)
     g_psi        :      0.43s CPU      0.43s WALL (   11812 calls)

     Called by h_psi:
     h_psi:calbec :      4.23s CPU      4.29s WALL (   14850 calls)
     vloc_psi     :     58.76s CPU     59.65s WALL (   14850 calls)
     add_vuspsi   :      3.91s CPU      3.96s WALL (   14850 calls)

     General routines
     calbec       :      5.71s CPU      5.79s WALL (   18756 calls)
     fft          :      0.06s CPU      0.17s WALL (     169 calls)
     ffts         :      0.00s CPU      0.01s WALL (      13 calls)
     fftw         :     62.83s CPU     63.76s WALL (  578180 calls)
 
     Parallel routines
 
     PWSCF        :   2m 8.44s CPU   2m10.84s WALL

 
   This run was terminated on:  19:24:25  15Nov2023            

=------------------------------------------------------------------------------=
   JOB DONE.
=------------------------------------------------------------------------------=
