MPI startup(): Warning: I_MPI_PMI_LIBRARY will be ignored since the hydra process manager was found
MPI startup(): Warning: I_MPI_PMI_LIBRARY will be ignored since the hydra process manager was found
MPI startup(): Warning: I_MPI_PMI_LIBRARY will be ignored since the hydra process manager was found
MPI startup(): Warning: I_MPI_PMI_LIBRARY will be ignored since the hydra process manager was found
MPI startup(): Warning: I_MPI_PMI_LIBRARY will be ignored since the hydra process manager was found
MPI startup(): Warning: I_MPI_PMI_LIBRARY will be ignored since the hydra process manager was found
MPI startup(): Warning: I_MPI_PMI_LIBRARY will be ignored since the hydra process manager was found
MPI startup(): Warning: I_MPI_PMI_LIBRARY will be ignored since the hydra process manager was found
MPI startup(): Warning: I_MPI_PMI_LIBRARY will be ignored since the hydra process manager was found
MPI startup(): Warning: I_MPI_PMI_LIBRARY will be ignored since the hydra process manager was found
MPI startup(): Warning: I_MPI_PMI_LIBRARY will be ignored since the hydra process manager was found
MPI startup(): Warning: I_MPI_PMI_LIBRARY will be ignored since the hydra process manager was found

     Program PWSCF v.7.0 starts on 16Nov2023 at 13:59:52 

     This program is part of the open-source Quantum ESPRESSO suite
     for quantum simulation of materials; please cite
         "P. Giannozzi et al., J. Phys.:Condens. Matter 21 395502 (2009);
         "P. Giannozzi et al., J. Phys.:Condens. Matter 29 465901 (2017);
         "P. Giannozzi et al., J. Chem. Phys. 152 154105 (2020);
          URL http://www.quantum-espresso.org", 
     in publications or presentations arising from this work. More details at
     http://www.quantum-espresso.org/quote

     Parallel version (MPI), running on    12 processors

     MPI processes distributed on     1 nodes
     K-points division:     npool     =       4
     R & G space division:  proc/nbgrp/npool/nimage =       3
     194453 MiB available memory on the printing compute node when the environment starts
 
     Waiting for input...
     Reading input from standard input

     Current dimensions of program PWSCF are:
     Max number of different atomic species (ntypx) = 10
     Max number of k-points (npk) =  40000
     Max angular momentum in pseudopotentials (lmaxx) =  4
     file Au.UPF: wavefunction(s)  6S 5D renormalized
     Found identity + ( -0.5000 -0.5000  0.0000) symmetry
     This is a supercell, fractional translations are disabled

     Subspace diagonalization in iterative solution of the eigenvalue problem:
     a serial algorithm will be used

 
     Parallelization info
     --------------------
     sticks:   dense  smooth     PW     G-vecs:    dense   smooth      PW
     Min         437     437    128                11941    11941    1914
     Max         438     438    129                11942    11942    1915
     Sum        1313    1313    385                35825    35825    5743
 
     Using Slab Decomposition
 


     bravais-lattice index     =            0
     lattice parameter (alat)  =       8.3000  a.u.
     unit-cell volume          =     571.7870 (a.u.)^3
     number of atoms/cell      =            4
     number of atomic types    =            1
     number of electrons       =        44.00
     number of Kohn-Sham states=           26
     kinetic-energy cutoff     =      60.0000  Ry
     charge density cutoff     =     240.0000  Ry
     scf convergence threshold =      1.0E-09
     mixing beta               =       0.7000
     number of iterations used =            8  plain     mixing
     Exchange-correlation= SLA  PW   PBX  PBC
                           (   1   4   3   4   0   0   0)

     celldm(1)=   8.300000  celldm(2)=   0.000000  celldm(3)=   0.000000
     celldm(4)=   0.000000  celldm(5)=   0.000000  celldm(6)=   0.000000

     crystal axes: (cart. coord. in units of alat)
               a(1) = (   1.000000   0.000000   0.000000 )  
               a(2) = (   0.000000   1.000000   0.000000 )  
               a(3) = (   0.000000   0.000000   1.000000 )  

     reciprocal axes: (cart. coord. in units 2 pi/alat)
               b(1) = (  1.000000  0.000000  0.000000 )  
               b(2) = (  0.000000  1.000000  0.000000 )  
               b(3) = (  0.000000  0.000000  1.000000 )  


     PseudoPot. # 1 for Au read from file:
     ./Au.UPF
     MD5 check sum: 4db85c736373c707a97ce4c36c2a9d23
     Pseudo is Projector augmented-wave + core cor, Zval = 11.0
     Generated using &quot;atomic&quot; code by A. Dal Corso  v.6.3
     Shape of augmentation charge: PSQ
     Using radial grid of 1279 points,  6 beta functions with: 
                l(1) =   0
                l(2) =   0
                l(3) =   1
                l(4) =   1
                l(5) =   2
                l(6) =   2
     Q(r) pseudized with 0 coefficients 


     atomic species   valence    mass     pseudopotential
        Au            11.00   196.96657     Au( 1.00)

     No symmetry found



   Cartesian axes

     site n.     atom                  positions (alat units)
         1           Au  tau(   1) = (   0.0000000   0.0000000   0.0000000  )
         2           Au  tau(   2) = (   0.5000000   0.5000000   0.0000000  )
         3           Au  tau(   3) = (   0.5000000   0.0000000   0.5000000  )
         4           Au  tau(   4) = (   0.0000000   0.5000000   0.5000000  )

     number of k points=   868  Gaussian smearing, width (Ry)=  0.0200

     Number of k-points >= 100: set verbosity='high' to print them.

     Dense  grid:    35825 G-vectors     FFT dimensions: (  45,  45,  45)

     Estimated max dynamical RAM per process >     148.55 MB

     Estimated total dynamical RAM >       1.72 GB

     Initial potential from superposition of free atoms

     starting charge      43.9996, renormalised to      44.0000
     Starting wfcs are   36 randomized atomic wfcs
     Checking if some PAW data can be deallocated... 

     total cpu time spent up to now is        5.9 secs

     Self-consistent Calculation

     iteration #  1     ecut=    60.00 Ry     beta= 0.70
     Davidson diagonalization with overlap
     ethr =  1.00E-02,  avg # of iterations =  2.7

     Threshold (ethr) on eigenvalues was too large:
     Diagonalizing with lowered threshold

     Davidson diagonalization with overlap
     ethr =  3.08E-04,  avg # of iterations =  3.9

     total cpu time spent up to now is       30.2 secs

     total energy              =   -3100.44155938 Ry
     estimated scf accuracy    <       0.18134101 Ry

     iteration #  2     ecut=    60.00 Ry     beta= 0.70
     Davidson diagonalization with overlap
     ethr =  4.12E-04,  avg # of iterations =  2.9

     total cpu time spent up to now is       43.3 secs

     total energy              =   -3100.50417407 Ry
     estimated scf accuracy    <       0.02969694 Ry

     iteration #  3     ecut=    60.00 Ry     beta= 0.70
     Davidson diagonalization with overlap
     ethr =  6.75E-05,  avg # of iterations =  3.0

     total cpu time spent up to now is       55.1 secs

     total energy              =   -3100.50897154 Ry
     estimated scf accuracy    <       0.00182742 Ry

     iteration #  4     ecut=    60.00 Ry     beta= 0.70
     Davidson diagonalization with overlap
     c_bands:  1 eigenvalues not converged
     c_bands:  1 eigenvalues not converged
     c_bands:  1 eigenvalues not converged
     c_bands:  1 eigenvalues not converged
     ethr =  4.15E-06,  avg # of iterations =  7.0

     total cpu time spent up to now is       76.3 secs

     total energy              =   -3100.51118860 Ry
     estimated scf accuracy    <       0.00185353 Ry

     iteration #  5     ecut=    60.00 Ry     beta= 0.70
     Davidson diagonalization with overlap
     ethr =  4.15E-06,  avg # of iterations =  1.9

     total cpu time spent up to now is       86.2 secs

     total energy              =   -3100.51046941 Ry
     estimated scf accuracy    <       0.00140640 Ry

     iteration #  6     ecut=    60.00 Ry     beta= 0.70
     Davidson diagonalization with overlap
     ethr =  3.20E-06,  avg # of iterations =  2.7

     total cpu time spent up to now is       99.1 secs

     total energy              =   -3100.51098561 Ry
     estimated scf accuracy    <       0.00005388 Ry

     iteration #  7     ecut=    60.00 Ry     beta= 0.70
     Davidson diagonalization with overlap
     c_bands:  1 eigenvalues not converged
     ethr =  1.22E-07,  avg # of iterations =  6.5

     total cpu time spent up to now is      120.5 secs

     total energy              =   -3100.51103300 Ry
     estimated scf accuracy    <       0.00012937 Ry

     iteration #  8     ecut=    60.00 Ry     beta= 0.70
     Davidson diagonalization with overlap
     ethr =  1.22E-07,  avg # of iterations =  1.1

     total cpu time spent up to now is      129.6 secs

     total energy              =   -3100.51099343 Ry
     estimated scf accuracy    <       0.00010064 Ry

     iteration #  9     ecut=    60.00 Ry     beta= 0.70
     Davidson diagonalization with overlap
     ethr =  1.22E-07,  avg # of iterations =  2.0

     total cpu time spent up to now is      140.0 secs

     total energy              =   -3100.51098107 Ry
     estimated scf accuracy    <       0.00002282 Ry

     iteration # 10     ecut=    60.00 Ry     beta= 0.70
     Davidson diagonalization with overlap
     ethr =  5.19E-08,  avg # of iterations =  5.1

     total cpu time spent up to now is      157.8 secs

     total energy              =   -3100.51101222 Ry
     estimated scf accuracy    <       0.00003913 Ry

     iteration # 11     ecut=    60.00 Ry     beta= 0.70
     Davidson diagonalization with overlap
     ethr =  5.19E-08,  avg # of iterations =  1.0

     total cpu time spent up to now is      166.9 secs

     total energy              =   -3100.51100597 Ry
     estimated scf accuracy    <       0.00003610 Ry

     iteration # 12     ecut=    60.00 Ry     beta= 0.70
     Davidson diagonalization with overlap
     ethr =  5.19E-08,  avg # of iterations =  1.0

     total cpu time spent up to now is      175.9 secs

     total energy              =   -3100.51098964 Ry
     estimated scf accuracy    <       0.00002446 Ry

     iteration # 13     ecut=    60.00 Ry     beta= 0.70
     Davidson diagonalization with overlap
     ethr =  5.19E-08,  avg # of iterations =  2.0

     total cpu time spent up to now is      187.8 secs

     total energy              =   -3100.51099619 Ry
     estimated scf accuracy    <       0.00000003 Ry

     iteration # 14     ecut=    60.00 Ry     beta= 0.70
     Davidson diagonalization with overlap
     ethr =  6.74E-11,  avg # of iterations = 15.1

     total cpu time spent up to now is      235.9 secs

     total energy              =   -3100.51099680 Ry
     estimated scf accuracy    <       0.00000036 Ry

     iteration # 15     ecut=    60.00 Ry     beta= 0.70
     Davidson diagonalization with overlap
     ethr =  6.74E-11,  avg # of iterations =  2.0

     total cpu time spent up to now is      248.0 secs

     total energy              =   -3100.51099676 Ry
     estimated scf accuracy    <       0.00000014 Ry

     iteration # 16     ecut=    60.00 Ry     beta= 0.70
     Davidson diagonalization with overlap
     ethr =  6.74E-11,  avg # of iterations =  3.5

     total cpu time spent up to now is      262.3 secs

     total energy              =   -3100.51099676 Ry
     estimated scf accuracy    <       0.00000002 Ry

     iteration # 17     ecut=    60.00 Ry     beta= 0.70
     Davidson diagonalization with overlap
     ethr =  5.30E-11,  avg # of iterations =  6.0

     total cpu time spent up to now is      281.7 secs

     total energy              =   -3100.51099677 Ry
     estimated scf accuracy    <       0.00000003 Ry

     iteration # 18     ecut=    60.00 Ry     beta= 0.70
     Davidson diagonalization with overlap
     ethr =  5.30E-11,  avg # of iterations =  2.0

     total cpu time spent up to now is      291.9 secs

     total energy              =   -3100.51099677 Ry
     estimated scf accuracy    <          2.7E-09 Ry

     iteration # 19     ecut=    60.00 Ry     beta= 0.70
     Davidson diagonalization with overlap
     ethr =  6.03E-12,  avg # of iterations =  5.0

     total cpu time spent up to now is      307.9 secs

     End of self-consistent calculation

     Number of k-points >= 100: set verbosity='high' to print the bands.

     the Fermi energy is    11.4497 ev

!    total energy              =   -3100.51099678 Ry

     total all-electron energy =   -152095.895361 Ry
     estimated scf accuracy    <          3.4E-10 Ry
     smearing contrib. (-TS)   =      -0.00344637 Ry
     internal energy E=F+TS    =   -3100.50755041 Ry

     The total energy is F=E-TS. E is the sum of the following terms:
     one-electron contribution =      25.84943180 Ry
     hartree contribution      =      38.88818043 Ry
     xc contribution           =    -127.89997650 Ry
     ewald contribution        =    -267.35822218 Ry
     one-center paw contrib.   =   -2769.98696396 Ry

     convergence has been achieved in  19 iterations

     Forces acting on atoms (cartesian axes, Ry/au):

     atom    1 type  1   force =    -0.00000000    0.00000020   -0.00000018
     atom    2 type  1   force =    -0.00000002   -0.00000022   -0.00000019
     atom    3 type  1   force =     0.00000001    0.00000027    0.00000022
     atom    4 type  1   force =     0.00000001   -0.00000025    0.00000016

     Total force =     0.000001     Total SCF correction =     0.000001
     SCF correction compared to forces is large: reduce conv_thr to get better values


     Computing stress (Cartesian axis) and pressure

          total   stress  (Ry/bohr**3)                   (kbar)     P=     -136.85
  -0.00093029   0.00000000   0.00000000         -136.85        0.00        0.00
   0.00000000  -0.00093029  -0.00000000            0.00     -136.85       -0.00
   0.00000000  -0.00000000  -0.00093029            0.00       -0.00     -136.85


     Writing all to output data dir ./gold.save/
 
     init_run     :      4.84s CPU      4.98s WALL (       1 calls)
     electrons    :    298.88s CPU    301.97s WALL (       1 calls)
     forces       :      0.73s CPU      0.74s WALL (       1 calls)
     stress       :      2.58s CPU      2.59s WALL (       1 calls)

     Called by init_run:
     wfcinit      :      4.55s CPU      4.65s WALL (       1 calls)
     potinit      :      0.05s CPU      0.08s WALL (       1 calls)
     hinit0       :      0.16s CPU      0.16s WALL (       1 calls)

     Called by electrons:
     c_bands      :    266.89s CPU    269.50s WALL (      20 calls)
     sum_band     :     31.06s CPU     31.45s WALL (      20 calls)
     v_of_rho     :      0.17s CPU      0.24s WALL (      20 calls)
     newd         :      0.06s CPU      0.07s WALL (      20 calls)
     PAW_pot      :      0.69s CPU      0.71s WALL (      20 calls)
     mix_rho      :      0.03s CPU      0.03s WALL (      20 calls)

     Called by c_bands:
     init_us_2    :      2.44s CPU      2.49s WALL (    9331 calls)
     init_us_2:cp :      2.43s CPU      2.48s WALL (    9331 calls)
     cegterg      :    236.88s CPU    239.20s WALL (    4340 calls)

     Called by *egterg:
     cdiaghg      :     10.62s CPU     10.69s WALL (   20841 calls)
     h_psi        :    192.88s CPU    194.96s WALL (   21275 calls)
     s_psi        :      7.80s CPU      7.87s WALL (   21275 calls)
     g_psi        :      1.04s CPU      1.05s WALL (   16718 calls)

     Called by h_psi:
     h_psi:calbec :      8.36s CPU      8.45s WALL (   21275 calls)
     vloc_psi     :    176.09s CPU    178.00s WALL (   21275 calls)
     add_vuspsi   :      7.93s CPU      8.01s WALL (   21275 calls)

     General routines
     calbec       :     11.16s CPU     11.28s WALL (   26700 calls)
     fft          :      0.11s CPU      0.20s WALL (     246 calls)
     ffts         :      0.02s CPU      0.02s WALL (      20 calls)
     fftw         :    189.82s CPU    191.89s WALL (  902882 calls)
 
     Parallel routines
 
     PWSCF        :   5m 8.18s CPU   5m12.73s WALL

 
   This run was terminated on:  14: 5: 4  16Nov2023            

=------------------------------------------------------------------------------=
   JOB DONE.
=------------------------------------------------------------------------------=
