MPI startup(): Warning: I_MPI_PMI_LIBRARY will be ignored since the hydra process manager was found
MPI startup(): Warning: I_MPI_PMI_LIBRARY will be ignored since the hydra process manager was found
MPI startup(): Warning: I_MPI_PMI_LIBRARY will be ignored since the hydra process manager was found
MPI startup(): Warning: I_MPI_PMI_LIBRARY will be ignored since the hydra process manager was found
MPI startup(): Warning: I_MPI_PMI_LIBRARY will be ignored since the hydra process manager was found
MPI startup(): Warning: I_MPI_PMI_LIBRARY will be ignored since the hydra process manager was found
MPI startup(): Warning: I_MPI_PMI_LIBRARY will be ignored since the hydra process manager was found
MPI startup(): Warning: I_MPI_PMI_LIBRARY will be ignored since the hydra process manager was found
MPI startup(): Warning: I_MPI_PMI_LIBRARY will be ignored since the hydra process manager was found
MPI startup(): Warning: I_MPI_PMI_LIBRARY will be ignored since the hydra process manager was found
MPI startup(): Warning: I_MPI_PMI_LIBRARY will be ignored since the hydra process manager was found
MPI startup(): Warning: I_MPI_PMI_LIBRARY will be ignored since the hydra process manager was found

     Program PWSCF v.7.0 starts on 17Nov2023 at 23:58:50 

     This program is part of the open-source Quantum ESPRESSO suite
     for quantum simulation of materials; please cite
         "P. Giannozzi et al., J. Phys.:Condens. Matter 21 395502 (2009);
         "P. Giannozzi et al., J. Phys.:Condens. Matter 29 465901 (2017);
         "P. Giannozzi et al., J. Chem. Phys. 152 154105 (2020);
          URL http://www.quantum-espresso.org", 
     in publications or presentations arising from this work. More details at
     http://www.quantum-espresso.org/quote

     Parallel version (MPI), running on    12 processors

     MPI processes distributed on     1 nodes
     K-points division:     npool     =       4
     R & G space division:  proc/nbgrp/npool/nimage =       3
     235340 MiB available memory on the printing compute node when the environment starts
 
     Waiting for input...
     Reading input from standard input

     Current dimensions of program PWSCF are:
     Max number of different atomic species (ntypx) = 10
     Max number of k-points (npk) =  40000
     Max angular momentum in pseudopotentials (lmaxx) =  4
     file Au.UPF: wavefunction(s)  6S 5D renormalized
     Found identity + ( -0.5000 -0.5000  0.0000) symmetry
     This is a supercell, fractional translations are disabled

     Subspace diagonalization in iterative solution of the eigenvalue problem:
     a serial algorithm will be used

 
     Parallelization info
     --------------------
     sticks:   dense  smooth     PW     G-vecs:    dense   smooth      PW
     Min         516     516    145                15272    15272    2371
     Max         517     517    146                15273    15273    2376
     Sum        1549    1549    437                45817    45817    7123
 
     Using Slab Decomposition
 


     bravais-lattice index     =            0
     lattice parameter (alat)  =       9.0000  a.u.
     unit-cell volume          =     729.0000 (a.u.)^3
     number of atoms/cell      =            4
     number of atomic types    =            1
     number of electrons       =        44.00
     number of Kohn-Sham states=           26
     kinetic-energy cutoff     =      60.0000  Ry
     charge density cutoff     =     240.0000  Ry
     scf convergence threshold =      1.0E-09
     mixing beta               =       0.7000
     number of iterations used =            8  plain     mixing
     Exchange-correlation= SLA  PW   PBX  PBC
                           (   1   4   3   4   0   0   0)

     celldm(1)=   9.000000  celldm(2)=   0.000000  celldm(3)=   0.000000
     celldm(4)=   0.000000  celldm(5)=   0.000000  celldm(6)=   0.000000

     crystal axes: (cart. coord. in units of alat)
               a(1) = (   1.000000   0.000000   0.000000 )  
               a(2) = (   0.000000   1.000000   0.000000 )  
               a(3) = (   0.000000   0.000000   1.000000 )  

     reciprocal axes: (cart. coord. in units 2 pi/alat)
               b(1) = (  1.000000  0.000000  0.000000 )  
               b(2) = (  0.000000  1.000000  0.000000 )  
               b(3) = (  0.000000  0.000000  1.000000 )  


     PseudoPot. # 1 for Au read from file:
     ./Au.UPF
     MD5 check sum: 4db85c736373c707a97ce4c36c2a9d23
     Pseudo is Projector augmented-wave + core cor, Zval = 11.0
     Generated using &quot;atomic&quot; code by A. Dal Corso  v.6.3
     Shape of augmentation charge: PSQ
     Using radial grid of 1279 points,  6 beta functions with: 
                l(1) =   0
                l(2) =   0
                l(3) =   1
                l(4) =   1
                l(5) =   2
                l(6) =   2
     Q(r) pseudized with 0 coefficients 


     atomic species   valence    mass     pseudopotential
        Au            11.00   196.96657     Au( 1.00)

     No symmetry found



   Cartesian axes

     site n.     atom                  positions (alat units)
         1           Au  tau(   1) = (   0.0000000   0.0000000   0.0000000  )
         2           Au  tau(   2) = (   0.5000000   0.5000000   0.0000000  )
         3           Au  tau(   3) = (   0.5000000   0.0000000   0.5000000  )
         4           Au  tau(   4) = (   0.0000000   0.5000000   0.5000000  )

     number of k points=   868  Gaussian smearing, width (Ry)=  0.0200

     Number of k-points >= 100: set verbosity='high' to print them.

     Dense  grid:    45817 G-vectors     FFT dimensions: (  45,  45,  45)

     Estimated max dynamical RAM per process >     188.50 MB

     Estimated total dynamical RAM >       2.18 GB

     Initial potential from superposition of free atoms

     starting charge      43.9996, renormalised to      44.0000
     Starting wfcs are   36 randomized atomic wfcs
     Checking if some PAW data can be deallocated... 

     total cpu time spent up to now is        8.3 secs

     Self-consistent Calculation

     iteration #  1     ecut=    60.00 Ry     beta= 0.70
     Davidson diagonalization with overlap
     ethr =  1.00E-02,  avg # of iterations =  2.5

     Threshold (ethr) on eigenvalues was too large:
     Diagonalizing with lowered threshold

     Davidson diagonalization with overlap
     ethr =  2.51E-04,  avg # of iterations =  3.3

     total cpu time spent up to now is       38.4 secs

     total energy              =   -3100.28303140 Ry
     estimated scf accuracy    <       0.13894338 Ry

     iteration #  2     ecut=    60.00 Ry     beta= 0.70
     Davidson diagonalization with overlap
     ethr =  3.16E-04,  avg # of iterations =  2.3

     total cpu time spent up to now is       54.5 secs

     total energy              =   -3100.33319000 Ry
     estimated scf accuracy    <       0.03171213 Ry

     iteration #  3     ecut=    60.00 Ry     beta= 0.70
     Davidson diagonalization with overlap
     ethr =  7.21E-05,  avg # of iterations =  2.1

     total cpu time spent up to now is       68.2 secs

     total energy              =   -3100.33726941 Ry
     estimated scf accuracy    <       0.00184839 Ry

     iteration #  4     ecut=    60.00 Ry     beta= 0.70
     Davidson diagonalization with overlap
     ethr =  4.20E-06,  avg # of iterations =  6.5

     total cpu time spent up to now is       94.6 secs

     total energy              =   -3100.33974126 Ry
     estimated scf accuracy    <       0.00192309 Ry

     iteration #  5     ecut=    60.00 Ry     beta= 0.70
     Davidson diagonalization with overlap
     ethr =  4.20E-06,  avg # of iterations =  1.9

     total cpu time spent up to now is      107.3 secs

     total energy              =   -3100.33886567 Ry
     estimated scf accuracy    <       0.00169699 Ry

     iteration #  6     ecut=    60.00 Ry     beta= 0.70
     Davidson diagonalization with overlap
     ethr =  3.86E-06,  avg # of iterations =  2.6

     total cpu time spent up to now is      123.8 secs

     total energy              =   -3100.33945268 Ry
     estimated scf accuracy    <       0.00003307 Ry

     iteration #  7     ecut=    60.00 Ry     beta= 0.70
     Davidson diagonalization with overlap
     ethr =  7.52E-08,  avg # of iterations =  8.5

     total cpu time spent up to now is      160.0 secs

     total energy              =   -3100.33955222 Ry
     estimated scf accuracy    <       0.00016548 Ry

     iteration #  8     ecut=    60.00 Ry     beta= 0.70
     Davidson diagonalization with overlap
     ethr =  7.52E-08,  avg # of iterations =  1.7

     total cpu time spent up to now is      172.5 secs

     total energy              =   -3100.33957485 Ry
     estimated scf accuracy    <       0.00017735 Ry

     iteration #  9     ecut=    60.00 Ry     beta= 0.70
     Davidson diagonalization with overlap
     ethr =  7.52E-08,  avg # of iterations =  1.0

     total cpu time spent up to now is      184.2 secs

     total energy              =   -3100.33945305 Ry
     estimated scf accuracy    <       0.00023023 Ry

     iteration # 10     ecut=    60.00 Ry     beta= 0.70
     Davidson diagonalization with overlap
     ethr =  7.52E-08,  avg # of iterations = 11.0

     total cpu time spent up to now is      229.8 secs

     total energy              =   -3100.34003501 Ry
     estimated scf accuracy    <       0.00203502 Ry

     iteration # 11     ecut=    60.00 Ry     beta= 0.70
     Davidson diagonalization with overlap
     ethr =  7.52E-08,  avg # of iterations =  2.0

     total cpu time spent up to now is      244.0 secs

     total energy              =   -3100.33920924 Ry
     estimated scf accuracy    <       0.00160231 Ry

     iteration # 12     ecut=    60.00 Ry     beta= 0.70
     Davidson diagonalization with overlap
     ethr =  7.52E-08,  avg # of iterations =  8.2

     total cpu time spent up to now is      279.5 secs

     total energy              =   -3100.33947534 Ry
     estimated scf accuracy    <       0.00002283 Ry

     iteration # 13     ecut=    60.00 Ry     beta= 0.70
     Davidson diagonalization with overlap
     ethr =  5.19E-08,  avg # of iterations =  3.2

     total cpu time spent up to now is      297.9 secs

     total energy              =   -3100.33948639 Ry
     estimated scf accuracy    <       0.00000130 Ry

     iteration # 14     ecut=    60.00 Ry     beta= 0.70
     Davidson diagonalization with overlap
     ethr =  2.96E-09,  avg # of iterations =  5.0

     total cpu time spent up to now is      320.2 secs

     total energy              =   -3100.33948743 Ry
     estimated scf accuracy    <       0.00000007 Ry

     iteration # 15     ecut=    60.00 Ry     beta= 0.70
     Davidson diagonalization with overlap
     ethr =  1.55E-10,  avg # of iterations =  6.2

     total cpu time spent up to now is      349.3 secs

     total energy              =   -3100.33948781 Ry
     estimated scf accuracy    <       0.00000014 Ry

     iteration # 16     ecut=    60.00 Ry     beta= 0.70
     Davidson diagonalization with overlap
     ethr =  1.55E-10,  avg # of iterations =  5.2

     total cpu time spent up to now is      374.0 secs

     total energy              =   -3100.33948800 Ry
     estimated scf accuracy    <       0.00000125 Ry

     iteration # 17     ecut=    60.00 Ry     beta= 0.70
     Davidson diagonalization with overlap
     ethr =  1.55E-10,  avg # of iterations =  1.9

     total cpu time spent up to now is      386.8 secs

     total energy              =   -3100.33948752 Ry
     estimated scf accuracy    <       0.00000138 Ry

     iteration # 18     ecut=    60.00 Ry     beta= 0.70
     Davidson diagonalization with overlap
     ethr =  1.55E-10,  avg # of iterations =  3.1

     total cpu time spent up to now is      405.0 secs

     total energy              =   -3100.33948732 Ry
     estimated scf accuracy    <       0.00000042 Ry

     iteration # 19     ecut=    60.00 Ry     beta= 0.70
     Davidson diagonalization with overlap
     ethr =  1.55E-10,  avg # of iterations =  5.9

     total cpu time spent up to now is      431.1 secs

     total energy              =   -3100.33948747 Ry
     estimated scf accuracy    <       0.00000001 Ry

     iteration # 20     ecut=    60.00 Ry     beta= 0.70
     Davidson diagonalization with overlap
     ethr =  2.53E-11,  avg # of iterations =  5.2

     total cpu time spent up to now is      454.8 secs

     total energy              =   -3100.33948747 Ry
     estimated scf accuracy    <       0.00000001 Ry

     iteration # 21     ecut=    60.00 Ry     beta= 0.70
     Davidson diagonalization with overlap
     ethr =  2.53E-11,  avg # of iterations =  2.0

     total cpu time spent up to now is      468.1 secs

     total energy              =   -3100.33948747 Ry
     estimated scf accuracy    <          1.1E-09 Ry

     iteration # 22     ecut=    60.00 Ry     beta= 0.70
     Davidson diagonalization with overlap
     ethr =  2.54E-12,  avg # of iterations =  5.7

     total cpu time spent up to now is      492.3 secs

     End of self-consistent calculation

     Number of k-points >= 100: set verbosity='high' to print the bands.

     the Fermi energy is     7.5860 ev

!    total energy              =   -3100.33948747 Ry

     total all-electron energy =   -152095.723852 Ry
     estimated scf accuracy    <          6.3E-10 Ry
     smearing contrib. (-TS)   =      -0.00397930 Ry
     internal energy E=F+TS    =   -3100.33550817 Ry

     The total energy is F=E-TS. E is the sum of the following terms:
     one-electron contribution =      -5.32811261 Ry
     hartree contribution      =      49.08451605 Ry
     xc contribution           =    -127.58519461 Ry
     ewald contribution        =    -246.56369378 Ry
     one-center paw contrib.   =   -2769.94302321 Ry

     convergence has been achieved in  22 iterations

     Forces acting on atoms (cartesian axes, Ry/au):

     atom    1 type  1   force =    -0.00000018    0.00000012   -0.00000007
     atom    2 type  1   force =     0.00000016   -0.00000005   -0.00000002
     atom    3 type  1   force =     0.00000014    0.00000008    0.00000005
     atom    4 type  1   force =    -0.00000012   -0.00000015    0.00000004

     Total force =     0.000000     Total SCF correction =     0.000001
     SCF correction compared to forces is large: reduce conv_thr to get better values


     Computing stress (Cartesian axis) and pressure

          total   stress  (Ry/bohr**3)                   (kbar)     P=     -162.12
  -0.00110207   0.00000000  -0.00000000         -162.12        0.00       -0.00
   0.00000000  -0.00110207  -0.00000000            0.00     -162.12       -0.00
  -0.00000000  -0.00000000  -0.00110207           -0.00       -0.00     -162.12


     Writing all to output data dir ./gold.save/
 
     init_run     :      6.04s CPU      6.61s WALL (       1 calls)
     electrons    :    479.98s CPU    485.57s WALL (       1 calls)
     forces       :      1.03s CPU      1.06s WALL (       1 calls)
     stress       :      3.77s CPU      3.81s WALL (       1 calls)

     Called by init_run:
     wfcinit      :      5.65s CPU      5.76s WALL (       1 calls)
     potinit      :      0.07s CPU      0.24s WALL (       1 calls)
     hinit0       :      0.08s CPU      0.23s WALL (       1 calls)

     Called by electrons:
     c_bands      :    434.87s CPU    438.49s WALL (      23 calls)
     sum_band     :     43.79s CPU     44.16s WALL (      23 calls)
     v_of_rho     :      0.20s CPU      0.26s WALL (      23 calls)
     newd         :      0.12s CPU      0.14s WALL (      23 calls)
     PAW_pot      :      0.99s CPU      1.07s WALL (      23 calls)
     mix_rho      :      0.05s CPU      0.05s WALL (      23 calls)

     Called by c_bands:
     init_us_2    :      4.40s CPU      4.43s WALL (   10633 calls)
     init_us_2:cp :      4.38s CPU      4.41s WALL (   10633 calls)
     cegterg      :    371.53s CPU    374.74s WALL (    4991 calls)

     Called by *egterg:
     cdiaghg      :     16.36s CPU     16.43s WALL (   25698 calls)
     h_psi        :    285.32s CPU    288.16s WALL (   26132 calls)
     s_psi        :     14.67s CPU     14.77s WALL (   26132 calls)
     g_psi        :      2.00s CPU      2.02s WALL (   20924 calls)

     Called by h_psi:
     h_psi:calbec :     16.59s CPU     16.73s WALL (   26132 calls)
     vloc_psi     :    251.40s CPU    254.00s WALL (   26132 calls)
     add_vuspsi   :     16.13s CPU     16.23s WALL (   26132 calls)

     General routines
     calbec       :     21.03s CPU     21.21s WALL (   32208 calls)
     fft          :      0.12s CPU      0.23s WALL (     279 calls)
     ffts         :      0.01s CPU      0.01s WALL (      23 calls)
     fftw         :    266.15s CPU    268.77s WALL ( 1102334 calls)
 
     Parallel routines
 
     PWSCF        :   8m30.36s CPU   8m39.84s WALL

 
   This run was terminated on:   0: 7:30  18Nov2023            

=------------------------------------------------------------------------------=
   JOB DONE.
=------------------------------------------------------------------------------=
