MPI startup(): Warning: I_MPI_PMI_LIBRARY will be ignored since the hydra process manager was found
MPI startup(): Warning: I_MPI_PMI_LIBRARY will be ignored since the hydra process manager was found
MPI startup(): Warning: I_MPI_PMI_LIBRARY will be ignored since the hydra process manager was found
MPI startup(): Warning: I_MPI_PMI_LIBRARY will be ignored since the hydra process manager was found
MPI startup(): Warning: I_MPI_PMI_LIBRARY will be ignored since the hydra process manager was found
MPI startup(): Warning: I_MPI_PMI_LIBRARY will be ignored since the hydra process manager was found
MPI startup(): Warning: I_MPI_PMI_LIBRARY will be ignored since the hydra process manager was found
MPI startup(): Warning: I_MPI_PMI_LIBRARY will be ignored since the hydra process manager was found
MPI startup(): Warning: I_MPI_PMI_LIBRARY will be ignored since the hydra process manager was found
MPI startup(): Warning: I_MPI_PMI_LIBRARY will be ignored since the hydra process manager was found
MPI startup(): Warning: I_MPI_PMI_LIBRARY will be ignored since the hydra process manager was found
MPI startup(): Warning: I_MPI_PMI_LIBRARY will be ignored since the hydra process manager was found

     Program PWSCF v.7.0 starts on 15Nov2023 at 19:17:45 

     This program is part of the open-source Quantum ESPRESSO suite
     for quantum simulation of materials; please cite
         "P. Giannozzi et al., J. Phys.:Condens. Matter 21 395502 (2009);
         "P. Giannozzi et al., J. Phys.:Condens. Matter 29 465901 (2017);
         "P. Giannozzi et al., J. Chem. Phys. 152 154105 (2020);
          URL http://www.quantum-espresso.org", 
     in publications or presentations arising from this work. More details at
     http://www.quantum-espresso.org/quote

     Parallel version (MPI), running on    12 processors

     MPI processes distributed on     1 nodes
     K-points division:     npool     =       4
     R & G space division:  proc/nbgrp/npool/nimage =       3
     110218 MiB available memory on the printing compute node when the environment starts
 
     Waiting for input...
     Reading input from standard input

     Current dimensions of program PWSCF are:
     Max number of different atomic species (ntypx) = 10
     Max number of k-points (npk) =  40000
     Max angular momentum in pseudopotentials (lmaxx) =  4
     file Au.UPF: wavefunction(s)  6S 5D renormalized
     Found identity + ( -0.5000 -0.5000  0.0000) symmetry
     This is a supercell, fractional translations are disabled

     Subspace diagonalization in iterative solution of the eigenvalue problem:
     a serial algorithm will be used

 
     Parallelization info
     --------------------
     sticks:   dense  smooth     PW     G-vecs:    dense   smooth      PW
     Min         275     275     84                 5979     5979    1023
     Max         277     277     85                 5981     5981    1024
     Sum         829     829    253                17941    17941    3071
 
     Using Slab Decomposition
 


     bravais-lattice index     =            0
     lattice parameter (alat)  =       6.6000  a.u.
     unit-cell volume          =     287.4960 (a.u.)^3
     number of atoms/cell      =            4
     number of atomic types    =            1
     number of electrons       =        44.00
     number of Kohn-Sham states=           26
     kinetic-energy cutoff     =      60.0000  Ry
     charge density cutoff     =     240.0000  Ry
     scf convergence threshold =      1.0E-09
     mixing beta               =       0.7000
     number of iterations used =            8  plain     mixing
     Exchange-correlation= SLA  PW   PBX  PBC
                           (   1   4   3   4   0   0   0)

     celldm(1)=   6.600000  celldm(2)=   0.000000  celldm(3)=   0.000000
     celldm(4)=   0.000000  celldm(5)=   0.000000  celldm(6)=   0.000000

     crystal axes: (cart. coord. in units of alat)
               a(1) = (   1.000000   0.000000   0.000000 )  
               a(2) = (   0.000000   1.000000   0.000000 )  
               a(3) = (   0.000000   0.000000   1.000000 )  

     reciprocal axes: (cart. coord. in units 2 pi/alat)
               b(1) = (  1.000000  0.000000  0.000000 )  
               b(2) = (  0.000000  1.000000  0.000000 )  
               b(3) = (  0.000000  0.000000  1.000000 )  


     PseudoPot. # 1 for Au read from file:
     ./Au.UPF
     MD5 check sum: 4db85c736373c707a97ce4c36c2a9d23
     Pseudo is Projector augmented-wave + core cor, Zval = 11.0
     Generated using &quot;atomic&quot; code by A. Dal Corso  v.6.3
     Shape of augmentation charge: PSQ
     Using radial grid of 1279 points,  6 beta functions with: 
                l(1) =   0
                l(2) =   0
                l(3) =   1
                l(4) =   1
                l(5) =   2
                l(6) =   2
     Q(r) pseudized with 0 coefficients 


     atomic species   valence    mass     pseudopotential
        Au            11.00   196.96657     Au( 1.00)

     No symmetry found



   Cartesian axes

     site n.     atom                  positions (alat units)
         1           Au  tau(   1) = (   0.0000000   0.0000000   0.0000000  )
         2           Au  tau(   2) = (   0.5000000   0.5000000   0.0000000  )
         3           Au  tau(   3) = (   0.5000000   0.0000000   0.5000000  )
         4           Au  tau(   4) = (   0.0000000   0.5000000   0.5000000  )

     number of k points=   868  Gaussian smearing, width (Ry)=  0.0200

     Number of k-points >= 100: set verbosity='high' to print them.

     Dense  grid:    17941 G-vectors     FFT dimensions: (  36,  36,  36)

     Estimated max dynamical RAM per process >      75.28 MB

     Estimated total dynamical RAM >     890.25 MB

     Initial potential from superposition of free atoms

     starting charge      43.9996, renormalised to      44.0000
     Starting wfcs are   36 randomized atomic wfcs
     Checking if some PAW data can be deallocated... 

     total cpu time spent up to now is        3.7 secs

     Self-consistent Calculation

     iteration #  1     ecut=    60.00 Ry     beta= 0.70
     Davidson diagonalization with overlap
     ethr =  1.00E-02,  avg # of iterations =  4.3

     Threshold (ethr) on eigenvalues was too large:
     Diagonalizing with lowered threshold

     Davidson diagonalization with overlap
     ethr =  1.11E-04,  avg # of iterations =  7.9

     total cpu time spent up to now is       27.5 secs

     total energy              =   -3099.26461562 Ry
     estimated scf accuracy    <       0.07478466 Ry

     iteration #  2     ecut=    60.00 Ry     beta= 0.70
     Davidson diagonalization with overlap
     ethr =  1.70E-04,  avg # of iterations =  2.0

     total cpu time spent up to now is       33.5 secs

     total energy              =   -3099.27448470 Ry
     estimated scf accuracy    <       0.00384809 Ry

     iteration #  3     ecut=    60.00 Ry     beta= 0.70
     Davidson diagonalization with overlap
     c_bands:  2 eigenvalues not converged
     ethr =  8.75E-06,  avg # of iterations =  5.5

     total cpu time spent up to now is       44.2 secs

     total energy              =   -3099.27627075 Ry
     estimated scf accuracy    <       0.00072768 Ry

     iteration #  4     ecut=    60.00 Ry     beta= 0.70
     Davidson diagonalization with overlap
     c_bands:  1 eigenvalues not converged
     c_bands:  1 eigenvalues not converged
     c_bands:  1 eigenvalues not converged
     ethr =  1.65E-06,  avg # of iterations =  4.5

     total cpu time spent up to now is       53.5 secs

     total energy              =   -3099.27645272 Ry
     estimated scf accuracy    <       0.00054173 Ry

     iteration #  5     ecut=    60.00 Ry     beta= 0.70
     Davidson diagonalization with overlap
     ethr =  1.23E-06,  avg # of iterations =  2.0

     total cpu time spent up to now is       59.6 secs

     total energy              =   -3099.27653875 Ry
     estimated scf accuracy    <       0.00003359 Ry

     iteration #  6     ecut=    60.00 Ry     beta= 0.70
     Davidson diagonalization with overlap
     ethr =  7.63E-08,  avg # of iterations =  6.3

     total cpu time spent up to now is       72.6 secs

     total energy              =   -3099.27658524 Ry
     estimated scf accuracy    <       0.00000804 Ry

     iteration #  7     ecut=    60.00 Ry     beta= 0.70
     Davidson diagonalization with overlap
     ethr =  1.83E-08,  avg # of iterations =  2.7

     total cpu time spent up to now is       79.7 secs

     total energy              =   -3099.27658595 Ry
     estimated scf accuracy    <       0.00000136 Ry

     iteration #  8     ecut=    60.00 Ry     beta= 0.70
     Davidson diagonalization with overlap
     ethr =  3.10E-09,  avg # of iterations =  4.2

     total cpu time spent up to now is       88.4 secs

     total energy              =   -3099.27658640 Ry
     estimated scf accuracy    <       0.00000020 Ry

     iteration #  9     ecut=    60.00 Ry     beta= 0.70
     Davidson diagonalization with overlap
     ethr =  4.46E-10,  avg # of iterations =  5.3

     total cpu time spent up to now is       99.8 secs

     total energy              =   -3099.27658649 Ry
     estimated scf accuracy    <       0.00000005 Ry

     iteration # 10     ecut=    60.00 Ry     beta= 0.70
     Davidson diagonalization with overlap
     ethr =  1.07E-10,  avg # of iterations =  5.7

     total cpu time spent up to now is      111.8 secs

     total energy              =   -3099.27658653 Ry
     estimated scf accuracy    <       0.00000002 Ry

     iteration # 11     ecut=    60.00 Ry     beta= 0.70
     Davidson diagonalization with overlap
     ethr =  5.00E-11,  avg # of iterations =  2.0

     total cpu time spent up to now is      117.9 secs

     total energy              =   -3099.27658653 Ry
     estimated scf accuracy    <          2.1E-09 Ry

     iteration # 12     ecut=    60.00 Ry     beta= 0.70
     Davidson diagonalization with overlap
     ethr =  4.71E-12,  avg # of iterations =  5.1

     total cpu time spent up to now is      128.1 secs

     End of self-consistent calculation

     Number of k-points >= 100: set verbosity='high' to print the bands.

     the Fermi energy is    30.3869 ev

!    total energy              =   -3099.27658653 Ry

     total all-electron energy =   -152094.660951 Ry
     estimated scf accuracy    <          4.1E-11 Ry
     smearing contrib. (-TS)   =      -0.00216036 Ry
     internal energy E=F+TS    =   -3099.27442617 Ry

     The total energy is F=E-TS. E is the sum of the following terms:
     one-electron contribution =     122.24954743 Ry
     hartree contribution      =      16.80429012 Ry
     xc contribution           =    -131.25786951 Ry
     ewald contribution        =    -336.22321879 Ry
     one-center paw contrib.   =   -2770.84717542 Ry

     convergence has been achieved in  12 iterations

     Forces acting on atoms (cartesian axes, Ry/au):

     atom    1 type  1   force =     0.00000007    0.00000001    0.00000001
     atom    2 type  1   force =     0.00000008   -0.00000007    0.00000003
     atom    3 type  1   force =    -0.00000014   -0.00000004   -0.00000003
     atom    4 type  1   force =    -0.00000001    0.00000010   -0.00000001

     Total force =     0.000000     Total SCF correction =     0.000001
     SCF correction compared to forces is large: reduce conv_thr to get better values


     Computing stress (Cartesian axis) and pressure

          total   stress  (Ry/bohr**3)                   (kbar)     P=     3326.13
   0.02261059   0.00000000  -0.00000000         3326.13        0.00       -0.00
   0.00000000   0.02261059  -0.00000000            0.00     3326.13       -0.00
  -0.00000000  -0.00000000   0.02261059           -0.00       -0.00     3326.13


     Writing all to output data dir ./gold.save/
 
     init_run     :      3.20s CPU      3.32s WALL (       1 calls)
     electrons    :    122.69s CPU    124.42s WALL (       1 calls)
     forces       :      0.47s CPU      0.50s WALL (       1 calls)
     stress       :      1.55s CPU      1.56s WALL (       1 calls)

     Called by init_run:
     wfcinit      :      2.54s CPU      2.62s WALL (       1 calls)
     potinit      :      0.08s CPU      0.10s WALL (       1 calls)
     hinit0       :      0.08s CPU      0.09s WALL (       1 calls)

     Called by electrons:
     c_bands      :    110.66s CPU    112.06s WALL (      13 calls)
     sum_band     :     11.30s CPU     11.47s WALL (      13 calls)
     v_of_rho     :      0.07s CPU      0.18s WALL (      13 calls)
     newd         :      0.03s CPU      0.06s WALL (      13 calls)
     PAW_pot      :      0.66s CPU      0.72s WALL (      13 calls)
     mix_rho      :      0.01s CPU      0.01s WALL (      13 calls)

     Called by c_bands:
     init_us_2    :      1.02s CPU      1.03s WALL (    6293 calls)
     init_us_2:cp :      1.01s CPU      1.02s WALL (    6293 calls)
     cegterg      :     92.49s CPU     93.74s WALL (    2821 calls)

     Called by *egterg:
     cdiaghg      :      9.33s CPU      9.41s WALL (   15509 calls)
     h_psi        :     67.85s CPU     68.96s WALL (   15943 calls)
     s_psi        :      3.73s CPU      3.77s WALL (   15943 calls)
     g_psi        :      0.41s CPU      0.42s WALL (   12905 calls)

     Called by h_psi:
     h_psi:calbec :      4.07s CPU      4.14s WALL (   15943 calls)
     vloc_psi     :     59.79s CPU     60.79s WALL (   15943 calls)
     add_vuspsi   :      3.75s CPU      3.80s WALL (   15943 calls)

     General routines
     calbec       :      5.44s CPU      5.53s WALL (   19849 calls)
     fft          :      0.05s CPU      0.20s WALL (     169 calls)
     ffts         :      0.00s CPU      0.01s WALL (      13 calls)
     fftw         :     63.58s CPU     64.61s WALL (  596872 calls)
 
     Parallel routines
 
     PWSCF        :   2m 8.93s CPU   2m11.49s WALL

 
   This run was terminated on:  19:19:56  15Nov2023            

=------------------------------------------------------------------------------=
   JOB DONE.
=------------------------------------------------------------------------------=
