MPI startup(): Warning: I_MPI_PMI_LIBRARY will be ignored since the hydra process manager was found
MPI startup(): Warning: I_MPI_PMI_LIBRARY will be ignored since the hydra process manager was found
MPI startup(): Warning: I_MPI_PMI_LIBRARY will be ignored since the hydra process manager was found
MPI startup(): Warning: I_MPI_PMI_LIBRARY will be ignored since the hydra process manager was found
MPI startup(): Warning: I_MPI_PMI_LIBRARY will be ignored since the hydra process manager was found
MPI startup(): Warning: I_MPI_PMI_LIBRARY will be ignored since the hydra process manager was found
MPI startup(): Warning: I_MPI_PMI_LIBRARY will be ignored since the hydra process manager was found
MPI startup(): Warning: I_MPI_PMI_LIBRARY will be ignored since the hydra process manager was found
MPI startup(): Warning: I_MPI_PMI_LIBRARY will be ignored since the hydra process manager was found
MPI startup(): Warning: I_MPI_PMI_LIBRARY will be ignored since the hydra process manager was found
MPI startup(): Warning: I_MPI_PMI_LIBRARY will be ignored since the hydra process manager was found
MPI startup(): Warning: I_MPI_PMI_LIBRARY will be ignored since the hydra process manager was found

     Program PWSCF v.7.0 starts on 15Nov2023 at 19:15:29 

     This program is part of the open-source Quantum ESPRESSO suite
     for quantum simulation of materials; please cite
         "P. Giannozzi et al., J. Phys.:Condens. Matter 21 395502 (2009);
         "P. Giannozzi et al., J. Phys.:Condens. Matter 29 465901 (2017);
         "P. Giannozzi et al., J. Chem. Phys. 152 154105 (2020);
          URL http://www.quantum-espresso.org", 
     in publications or presentations arising from this work. More details at
     http://www.quantum-espresso.org/quote

     Parallel version (MPI), running on    12 processors

     MPI processes distributed on     1 nodes
     K-points division:     npool     =       4
     R & G space division:  proc/nbgrp/npool/nimage =       3
     110270 MiB available memory on the printing compute node when the environment starts
 
     Waiting for input...
     Reading input from standard input

     Current dimensions of program PWSCF are:
     Max number of different atomic species (ntypx) = 10
     Max number of k-points (npk) =  40000
     Max angular momentum in pseudopotentials (lmaxx) =  4
     file Au.UPF: wavefunction(s)  6S 5D renormalized
     Found identity + ( -0.5000 -0.5000  0.0000) symmetry
     This is a supercell, fractional translations are disabled

     Subspace diagonalization in iterative solution of the eigenvalue problem:
     a serial algorithm will be used

 
     Parallelization info
     --------------------
     sticks:   dense  smooth     PW     G-vecs:    dense   smooth      PW
     Min         265     265     80                 5692     5692     980
     Max         266     266     81                 5693     5693     985
     Sum         797     797    241                17077    17077    2945
 
     Using Slab Decomposition
 


     bravais-lattice index     =            0
     lattice parameter (alat)  =       6.5000  a.u.
     unit-cell volume          =     274.6250 (a.u.)^3
     number of atoms/cell      =            4
     number of atomic types    =            1
     number of electrons       =        44.00
     number of Kohn-Sham states=           26
     kinetic-energy cutoff     =      60.0000  Ry
     charge density cutoff     =     240.0000  Ry
     scf convergence threshold =      1.0E-09
     mixing beta               =       0.7000
     number of iterations used =            8  plain     mixing
     Exchange-correlation= SLA  PW   PBX  PBC
                           (   1   4   3   4   0   0   0)

     celldm(1)=   6.500000  celldm(2)=   0.000000  celldm(3)=   0.000000
     celldm(4)=   0.000000  celldm(5)=   0.000000  celldm(6)=   0.000000

     crystal axes: (cart. coord. in units of alat)
               a(1) = (   1.000000   0.000000   0.000000 )  
               a(2) = (   0.000000   1.000000   0.000000 )  
               a(3) = (   0.000000   0.000000   1.000000 )  

     reciprocal axes: (cart. coord. in units 2 pi/alat)
               b(1) = (  1.000000  0.000000  0.000000 )  
               b(2) = (  0.000000  1.000000  0.000000 )  
               b(3) = (  0.000000  0.000000  1.000000 )  


     PseudoPot. # 1 for Au read from file:
     ./Au.UPF
     MD5 check sum: 4db85c736373c707a97ce4c36c2a9d23
     Pseudo is Projector augmented-wave + core cor, Zval = 11.0
     Generated using &quot;atomic&quot; code by A. Dal Corso  v.6.3
     Shape of augmentation charge: PSQ
     Using radial grid of 1279 points,  6 beta functions with: 
                l(1) =   0
                l(2) =   0
                l(3) =   1
                l(4) =   1
                l(5) =   2
                l(6) =   2
     Q(r) pseudized with 0 coefficients 


     atomic species   valence    mass     pseudopotential
        Au            11.00   196.96657     Au( 1.00)

     No symmetry found



   Cartesian axes

     site n.     atom                  positions (alat units)
         1           Au  tau(   1) = (   0.0000000   0.0000000   0.0000000  )
         2           Au  tau(   2) = (   0.5000000   0.5000000   0.0000000  )
         3           Au  tau(   3) = (   0.5000000   0.0000000   0.5000000  )
         4           Au  tau(   4) = (   0.0000000   0.5000000   0.5000000  )

     number of k points=   868  Gaussian smearing, width (Ry)=  0.0200

     Number of k-points >= 100: set verbosity='high' to print them.

     Dense  grid:    17077 G-vectors     FFT dimensions: (  36,  36,  36)

     Estimated max dynamical RAM per process >      71.96 MB

     Estimated total dynamical RAM >     851.04 MB

     Initial potential from superposition of free atoms

     starting charge      43.9996, renormalised to      44.0000
     Starting wfcs are   36 randomized atomic wfcs
     Checking if some PAW data can be deallocated... 

     total cpu time spent up to now is        4.2 secs

     Self-consistent Calculation

     iteration #  1     ecut=    60.00 Ry     beta= 0.70
     Davidson diagonalization with overlap
     ethr =  1.00E-02,  avg # of iterations =  4.4

     Threshold (ethr) on eigenvalues was too large:
     Diagonalizing with lowered threshold

     Davidson diagonalization with overlap
     ethr =  1.21E-04,  avg # of iterations =  7.8

     total cpu time spent up to now is       27.2 secs

     total energy              =   -3098.94407788 Ry
     estimated scf accuracy    <       0.06726131 Ry

     iteration #  2     ecut=    60.00 Ry     beta= 0.70
     Davidson diagonalization with overlap
     ethr =  1.53E-04,  avg # of iterations =  1.9

     total cpu time spent up to now is       33.0 secs

     total energy              =   -3098.95132607 Ry
     estimated scf accuracy    <       0.00462340 Ry

     iteration #  3     ecut=    60.00 Ry     beta= 0.70
     Davidson diagonalization with overlap
     c_bands:  1 eigenvalues not converged
     ethr =  1.05E-05,  avg # of iterations =  5.0

     total cpu time spent up to now is       42.4 secs

     total energy              =   -3098.95283231 Ry
     estimated scf accuracy    <       0.00042839 Ry

     iteration #  4     ecut=    60.00 Ry     beta= 0.70
     Davidson diagonalization with overlap
     c_bands:  1 eigenvalues not converged
     c_bands:  1 eigenvalues not converged
     c_bands:  1 eigenvalues not converged
     ethr =  9.74E-07,  avg # of iterations =  6.1

     total cpu time spent up to now is       53.7 secs

     total energy              =   -3098.95308704 Ry
     estimated scf accuracy    <       0.00034434 Ry

     iteration #  5     ecut=    60.00 Ry     beta= 0.70
     Davidson diagonalization with overlap
     ethr =  7.83E-07,  avg # of iterations =  2.2

     total cpu time spent up to now is       60.1 secs

     total energy              =   -3098.95316155 Ry
     estimated scf accuracy    <       0.00000745 Ry

     iteration #  6     ecut=    60.00 Ry     beta= 0.70
     Davidson diagonalization with overlap
     ethr =  1.69E-08,  avg # of iterations =  8.2

     total cpu time spent up to now is       76.8 secs

     total energy              =   -3098.95318123 Ry
     estimated scf accuracy    <       0.00000516 Ry

     iteration #  7     ecut=    60.00 Ry     beta= 0.70
     Davidson diagonalization with overlap
     ethr =  1.17E-08,  avg # of iterations =  1.7

     total cpu time spent up to now is       82.6 secs

     total energy              =   -3098.95318141 Ry
     estimated scf accuracy    <       0.00000103 Ry

     iteration #  8     ecut=    60.00 Ry     beta= 0.70
     Davidson diagonalization with overlap
     ethr =  2.35E-09,  avg # of iterations =  3.0

     total cpu time spent up to now is       89.9 secs

     total energy              =   -3098.95318150 Ry
     estimated scf accuracy    <       0.00000032 Ry

     iteration #  9     ecut=    60.00 Ry     beta= 0.70
     Davidson diagonalization with overlap
     c_bands:  1 eigenvalues not converged
     ethr =  7.24E-10,  avg # of iterations =  4.0

     total cpu time spent up to now is       98.2 secs

     total energy              =   -3098.95318159 Ry
     estimated scf accuracy    <       0.00000004 Ry

     iteration # 10     ecut=    60.00 Ry     beta= 0.70
     Davidson diagonalization with overlap
     ethr =  9.19E-11,  avg # of iterations =  7.0

     total cpu time spent up to now is      112.9 secs

     total energy              =   -3098.95318164 Ry
     estimated scf accuracy    <          7.5E-09 Ry

     iteration # 11     ecut=    60.00 Ry     beta= 0.70
     Davidson diagonalization with overlap
     ethr =  1.70E-11,  avg # of iterations =  3.3

     total cpu time spent up to now is      121.0 secs

     total energy              =   -3098.95318164 Ry
     estimated scf accuracy    <          2.4E-09 Ry

     iteration # 12     ecut=    60.00 Ry     beta= 0.70
     Davidson diagonalization with overlap
     ethr =  5.53E-12,  avg # of iterations =  3.2

     total cpu time spent up to now is      129.0 secs

     End of self-consistent calculation

     Number of k-points >= 100: set verbosity='high' to print the bands.

     the Fermi energy is    32.2487 ev

!    total energy              =   -3098.95318164 Ry

     total all-electron energy =   -152094.337546 Ry
     estimated scf accuracy    <          1.2E-10 Ry
     smearing contrib. (-TS)   =      -0.00202165 Ry
     internal energy E=F+TS    =   -3098.95115999 Ry

     The total energy is F=E-TS. E is the sum of the following terms:
     one-electron contribution =     129.33668397 Ry
     hartree contribution      =      15.77571879 Ry
     xc contribution           =    -131.68220067 Ry
     ewald contribution        =    -341.39588370 Ry
     one-center paw contrib.   =   -2770.98547838 Ry

     convergence has been achieved in  12 iterations

     Forces acting on atoms (cartesian axes, Ry/au):

     atom    1 type  1   force =    -0.00000004    0.00000031   -0.00000012
     atom    2 type  1   force =    -0.00000010   -0.00000029    0.00000008
     atom    3 type  1   force =     0.00000004    0.00000035   -0.00000005
     atom    4 type  1   force =     0.00000011   -0.00000038    0.00000009

     Total force =     0.000001     Total SCF correction =     0.000002
     SCF correction compared to forces is large: reduce conv_thr to get better values


     Computing stress (Cartesian axis) and pressure

          total   stress  (Ry/bohr**3)                   (kbar)     P=     4093.24
   0.02782528  -0.00000000   0.00000000         4093.24       -0.00        0.00
  -0.00000000   0.02782528   0.00000000           -0.00     4093.24        0.00
   0.00000000   0.00000000   0.02782528            0.00        0.00     4093.24


     Writing all to output data dir ./gold.save/
 
     init_run     :      2.80s CPU      3.80s WALL (       1 calls)
     electrons    :    123.14s CPU    124.86s WALL (       1 calls)
     forces       :      0.46s CPU      0.48s WALL (       1 calls)
     stress       :      1.49s CPU      1.49s WALL (       1 calls)

     Called by init_run:
     wfcinit      :      2.59s CPU      3.55s WALL (       1 calls)
     potinit      :      0.06s CPU      0.08s WALL (       1 calls)
     hinit0       :      0.08s CPU      0.09s WALL (       1 calls)

     Called by electrons:
     c_bands      :    111.21s CPU    112.58s WALL (      13 calls)
     sum_band     :     11.22s CPU     11.39s WALL (      13 calls)
     v_of_rho     :      0.11s CPU      0.22s WALL (      13 calls)
     newd         :      0.03s CPU      0.06s WALL (      13 calls)
     PAW_pot      :      0.60s CPU      0.67s WALL (      13 calls)
     mix_rho      :      0.01s CPU      0.01s WALL (      13 calls)

     Called by c_bands:
     init_us_2    :      0.99s CPU      1.00s WALL (    6293 calls)
     init_us_2:cp :      0.98s CPU      1.00s WALL (    6293 calls)
     cegterg      :     93.04s CPU     94.27s WALL (    2821 calls)

     Called by *egterg:
     cdiaghg      :      9.48s CPU      9.56s WALL (   15532 calls)
     h_psi        :     68.62s CPU     70.59s WALL (   15966 calls)
     s_psi        :      3.71s CPU      3.76s WALL (   15966 calls)
     g_psi        :      0.41s CPU      0.41s WALL (   12928 calls)

     Called by h_psi:
     h_psi:calbec :      3.99s CPU      4.05s WALL (   15966 calls)
     vloc_psi     :     60.64s CPU     62.50s WALL (   15966 calls)
     add_vuspsi   :      3.74s CPU      3.79s WALL (   15966 calls)

     General routines
     calbec       :      5.33s CPU      5.41s WALL (   19872 calls)
     fft          :      0.09s CPU      0.24s WALL (     169 calls)
     ffts         :      0.00s CPU      0.01s WALL (      13 calls)
     fftw         :     64.31s CPU     66.22s WALL (  609762 calls)
 
     Parallel routines
 
     PWSCF        :   2m 9.11s CPU   2m12.54s WALL

 
   This run was terminated on:  19:17:41  15Nov2023            

=------------------------------------------------------------------------------=
   JOB DONE.
=------------------------------------------------------------------------------=
