MPI startup(): Warning: I_MPI_PMI_LIBRARY will be ignored since the hydra process manager was found
MPI startup(): Warning: I_MPI_PMI_LIBRARY will be ignored since the hydra process manager was found
MPI startup(): Warning: I_MPI_PMI_LIBRARY will be ignored since the hydra process manager was found
MPI startup(): Warning: I_MPI_PMI_LIBRARY will be ignored since the hydra process manager was found
MPI startup(): Warning: I_MPI_PMI_LIBRARY will be ignored since the hydra process manager was found
MPI startup(): Warning: I_MPI_PMI_LIBRARY will be ignored since the hydra process manager was found
MPI startup(): Warning: I_MPI_PMI_LIBRARY will be ignored since the hydra process manager was found
MPI startup(): Warning: I_MPI_PMI_LIBRARY will be ignored since the hydra process manager was found
MPI startup(): Warning: I_MPI_PMI_LIBRARY will be ignored since the hydra process manager was found
MPI startup(): Warning: I_MPI_PMI_LIBRARY will be ignored since the hydra process manager was found
MPI startup(): Warning: I_MPI_PMI_LIBRARY will be ignored since the hydra process manager was found
MPI startup(): Warning: I_MPI_PMI_LIBRARY will be ignored since the hydra process manager was found

     Program PWSCF v.7.0 starts on 15Nov2023 at 19:48:49 

     This program is part of the open-source Quantum ESPRESSO suite
     for quantum simulation of materials; please cite
         "P. Giannozzi et al., J. Phys.:Condens. Matter 21 395502 (2009);
         "P. Giannozzi et al., J. Phys.:Condens. Matter 29 465901 (2017);
         "P. Giannozzi et al., J. Chem. Phys. 152 154105 (2020);
          URL http://www.quantum-espresso.org", 
     in publications or presentations arising from this work. More details at
     http://www.quantum-espresso.org/quote

     Parallel version (MPI), running on    12 processors

     MPI processes distributed on     1 nodes
     K-points division:     npool     =       4
     R & G space division:  proc/nbgrp/npool/nimage =       3
     110942 MiB available memory on the printing compute node when the environment starts
 
     Waiting for input...
     Reading input from standard input

     Current dimensions of program PWSCF are:
     Max number of different atomic species (ntypx) = 10
     Max number of k-points (npk) =  40000
     Max angular momentum in pseudopotentials (lmaxx) =  4
     file Au.UPF: wavefunction(s)  6S 5D renormalized
     Found identity + ( -0.5000 -0.5000  0.0000) symmetry
     This is a supercell, fractional translations are disabled

     Subspace diagonalization in iterative solution of the eigenvalue problem:
     a serial algorithm will be used

 
     Parallelization info
     --------------------
     sticks:   dense  smooth     PW     G-vecs:    dense   smooth      PW
     Min         373     373    113                 9515     9515    1565
     Max         377     377    114                 9515     9515    1566
     Sum        1125    1125    341                28545    28545    4697
 
     Using Slab Decomposition
 


     bravais-lattice index     =            0
     lattice parameter (alat)  =       7.7000  a.u.
     unit-cell volume          =     456.5330 (a.u.)^3
     number of atoms/cell      =            4
     number of atomic types    =            1
     number of electrons       =        44.00
     number of Kohn-Sham states=           26
     kinetic-energy cutoff     =      60.0000  Ry
     charge density cutoff     =     240.0000  Ry
     scf convergence threshold =      1.0E-09
     mixing beta               =       0.7000
     number of iterations used =            8  plain     mixing
     Exchange-correlation= SLA  PW   PBX  PBC
                           (   1   4   3   4   0   0   0)

     celldm(1)=   7.700000  celldm(2)=   0.000000  celldm(3)=   0.000000
     celldm(4)=   0.000000  celldm(5)=   0.000000  celldm(6)=   0.000000

     crystal axes: (cart. coord. in units of alat)
               a(1) = (   1.000000   0.000000   0.000000 )  
               a(2) = (   0.000000   1.000000   0.000000 )  
               a(3) = (   0.000000   0.000000   1.000000 )  

     reciprocal axes: (cart. coord. in units 2 pi/alat)
               b(1) = (  1.000000  0.000000  0.000000 )  
               b(2) = (  0.000000  1.000000  0.000000 )  
               b(3) = (  0.000000  0.000000  1.000000 )  


     PseudoPot. # 1 for Au read from file:
     ./Au.UPF
     MD5 check sum: 4db85c736373c707a97ce4c36c2a9d23
     Pseudo is Projector augmented-wave + core cor, Zval = 11.0
     Generated using &quot;atomic&quot; code by A. Dal Corso  v.6.3
     Shape of augmentation charge: PSQ
     Using radial grid of 1279 points,  6 beta functions with: 
                l(1) =   0
                l(2) =   0
                l(3) =   1
                l(4) =   1
                l(5) =   2
                l(6) =   2
     Q(r) pseudized with 0 coefficients 


     atomic species   valence    mass     pseudopotential
        Au            11.00   196.96657     Au( 1.00)

     No symmetry found



   Cartesian axes

     site n.     atom                  positions (alat units)
         1           Au  tau(   1) = (   0.0000000   0.0000000   0.0000000  )
         2           Au  tau(   2) = (   0.5000000   0.5000000   0.0000000  )
         3           Au  tau(   3) = (   0.5000000   0.0000000   0.5000000  )
         4           Au  tau(   4) = (   0.0000000   0.5000000   0.5000000  )

     number of k points=   868  Gaussian smearing, width (Ry)=  0.0200

     Number of k-points >= 100: set verbosity='high' to print them.

     Dense  grid:    28545 G-vectors     FFT dimensions: (  40,  40,  40)

     Estimated max dynamical RAM per process >     118.66 MB

     Estimated total dynamical RAM >       1.37 GB

     Initial potential from superposition of free atoms

     starting charge      43.9996, renormalised to      44.0000
     Starting wfcs are   36 randomized atomic wfcs
     Checking if some PAW data can be deallocated... 

     total cpu time spent up to now is        4.5 secs

     Self-consistent Calculation

     iteration #  1     ecut=    60.00 Ry     beta= 0.70
     Davidson diagonalization with overlap
     ethr =  1.00E-02,  avg # of iterations =  2.8

     Threshold (ethr) on eigenvalues was too large:
     Diagonalizing with lowered threshold

     Davidson diagonalization with overlap
     ethr =  2.64E-04,  avg # of iterations =  5.0

     total cpu time spent up to now is       27.5 secs

     total energy              =   -3100.48360294 Ry
     estimated scf accuracy    <       0.18634326 Ry

     iteration #  2     ecut=    60.00 Ry     beta= 0.70
     Davidson diagonalization with overlap
     ethr =  4.24E-04,  avg # of iterations =  2.4

     total cpu time spent up to now is       37.9 secs

     total energy              =   -3100.54263156 Ry
     estimated scf accuracy    <       0.01742356 Ry

     iteration #  3     ecut=    60.00 Ry     beta= 0.70
     Davidson diagonalization with overlap
     ethr =  3.96E-05,  avg # of iterations =  4.3

     total cpu time spent up to now is       49.8 secs

     total energy              =   -3100.54697188 Ry
     estimated scf accuracy    <       0.00177157 Ry

     iteration #  4     ecut=    60.00 Ry     beta= 0.70
     Davidson diagonalization with overlap
     ethr =  4.03E-06,  avg # of iterations =  5.4

     total cpu time spent up to now is       64.3 secs

     total energy              =   -3100.54815840 Ry
     estimated scf accuracy    <       0.00146766 Ry

     iteration #  5     ecut=    60.00 Ry     beta= 0.70
     Davidson diagonalization with overlap
     ethr =  3.34E-06,  avg # of iterations =  2.1

     total cpu time spent up to now is       73.1 secs

     total energy              =   -3100.54781429 Ry
     estimated scf accuracy    <       0.00089524 Ry

     iteration #  6     ecut=    60.00 Ry     beta= 0.70
     Davidson diagonalization with overlap
     c_bands:  1 eigenvalues not converged
     ethr =  2.03E-06,  avg # of iterations =  3.4

     total cpu time spent up to now is       84.2 secs

     total energy              =   -3100.54810891 Ry
     estimated scf accuracy    <       0.00001036 Ry

     iteration #  7     ecut=    60.00 Ry     beta= 0.70
     Davidson diagonalization with overlap
     ethr =  2.35E-08,  avg # of iterations =  9.0

     total cpu time spent up to now is      109.9 secs

     total energy              =   -3100.54813924 Ry
     estimated scf accuracy    <       0.00004082 Ry

     iteration #  8     ecut=    60.00 Ry     beta= 0.70
     Davidson diagonalization with overlap
     ethr =  2.35E-08,  avg # of iterations =  2.0

     total cpu time spent up to now is      118.3 secs

     total energy              =   -3100.54813042 Ry
     estimated scf accuracy    <       0.00001734 Ry

     iteration #  9     ecut=    60.00 Ry     beta= 0.70
     Davidson diagonalization with overlap
     ethr =  2.35E-08,  avg # of iterations =  2.4

     total cpu time spent up to now is      128.9 secs

     total energy              =   -3100.54813435 Ry
     estimated scf accuracy    <       0.00000053 Ry

     iteration # 10     ecut=    60.00 Ry     beta= 0.70
     Davidson diagonalization with overlap
     ethr =  1.20E-09,  avg # of iterations = 10.0

     total cpu time spent up to now is      155.9 secs

     total energy              =   -3100.54813562 Ry
     estimated scf accuracy    <       0.00000844 Ry

     iteration # 11     ecut=    60.00 Ry     beta= 0.70
     Davidson diagonalization with overlap
     ethr =  1.20E-09,  avg # of iterations =  3.1

     total cpu time spent up to now is      167.2 secs

     total energy              =   -3100.54813444 Ry
     estimated scf accuracy    <       0.00000289 Ry

     iteration # 12     ecut=    60.00 Ry     beta= 0.70
     Davidson diagonalization with overlap
     ethr =  1.20E-09,  avg # of iterations =  4.9

     total cpu time spent up to now is      181.3 secs

     total energy              =   -3100.54813485 Ry
     estimated scf accuracy    <       0.00000014 Ry

     iteration # 13     ecut=    60.00 Ry     beta= 0.70
     Davidson diagonalization with overlap
     ethr =  3.10E-10,  avg # of iterations =  7.1

     total cpu time spent up to now is      200.9 secs

     total energy              =   -3100.54813492 Ry
     estimated scf accuracy    <       0.00000037 Ry

     iteration # 14     ecut=    60.00 Ry     beta= 0.70
     Davidson diagonalization with overlap
     ethr =  3.10E-10,  avg # of iterations =  3.1

     total cpu time spent up to now is      212.2 secs

     End of self-consistent calculation

     Number of k-points >= 100: set verbosity='high' to print the bands.

     the Fermi energy is    16.0769 ev

!    total energy              =   -3100.54813501 Ry

     total all-electron energy =   -152095.932499 Ry
     estimated scf accuracy    <          2.2E-10 Ry
     smearing contrib. (-TS)   =      -0.00287118 Ry
     internal energy E=F+TS    =   -3100.54526383 Ry

     The total energy is F=E-TS. E is the sum of the following terms:
     one-electron contribution =      55.86434582 Ry
     hartree contribution      =      30.37402620 Ry
     xc contribution           =    -128.49293075 Ry
     ewald contribution        =    -288.19133039 Ry
     one-center paw contrib.   =   -2770.09937471 Ry

     convergence has been achieved in  14 iterations

     Forces acting on atoms (cartesian axes, Ry/au):

     atom    1 type  1   force =     0.00000020    0.00000024    0.00000017
     atom    2 type  1   force =    -0.00000001   -0.00000012   -0.00000030
     atom    3 type  1   force =    -0.00000041    0.00000022    0.00000019
     atom    4 type  1   force =     0.00000022   -0.00000034   -0.00000006

     Total force =     0.000001     Total SCF correction =     0.000005
     SCF correction compared to forces is large: reduce conv_thr to get better values


     Computing stress (Cartesian axis) and pressure

          total   stress  (Ry/bohr**3)                   (kbar)     P=      109.58
   0.00074490   0.00000000  -0.00000000          109.58        0.00       -0.00
   0.00000000   0.00074491  -0.00000000            0.00      109.58       -0.00
  -0.00000000  -0.00000000   0.00074491           -0.00       -0.00      109.58


     Writing all to output data dir ./gold.save/
 
     init_run     :      3.94s CPU      4.06s WALL (       1 calls)
     electrons    :    205.50s CPU    207.74s WALL (       1 calls)
     forces       :      0.70s CPU      0.71s WALL (       1 calls)
     stress       :      2.43s CPU      2.44s WALL (       1 calls)

     Called by init_run:
     wfcinit      :      3.60s CPU      3.68s WALL (       1 calls)
     potinit      :      0.07s CPU      0.09s WALL (       1 calls)
     hinit0       :      0.08s CPU      0.09s WALL (       1 calls)

     Called by electrons:
     c_bands      :    186.49s CPU    188.44s WALL (      15 calls)
     sum_band     :     18.22s CPU     18.43s WALL (      15 calls)
     v_of_rho     :      0.09s CPU      0.17s WALL (      15 calls)
     newd         :      0.05s CPU      0.07s WALL (      15 calls)
     PAW_pot      :      0.68s CPU      0.68s WALL (      15 calls)
     mix_rho      :      0.02s CPU      0.02s WALL (      15 calls)

     Called by c_bands:
     init_us_2    :      1.87s CPU      1.88s WALL (    7161 calls)
     init_us_2:cp :      1.86s CPU      1.88s WALL (    7161 calls)
     cegterg      :    159.02s CPU    160.75s WALL (    3255 calls)

     Called by *egterg:
     cdiaghg      :     11.25s CPU     11.32s WALL (   17816 calls)
     h_psi        :    117.47s CPU    119.02s WALL (   18250 calls)
     s_psi        :      6.96s CPU      7.02s WALL (   18250 calls)
     g_psi        :      0.85s CPU      0.86s WALL (   14778 calls)

     Called by h_psi:
     h_psi:calbec :      7.49s CPU      7.58s WALL (   18250 calls)
     vloc_psi     :    102.30s CPU    103.69s WALL (   18250 calls)
     add_vuspsi   :      7.18s CPU      7.25s WALL (   18250 calls)

     General routines
     calbec       :      9.77s CPU      9.88s WALL (   22590 calls)
     fft          :      0.07s CPU      0.18s WALL (     191 calls)
     ffts         :      0.00s CPU      0.01s WALL (      15 calls)
     fftw         :    107.17s CPU    108.58s WALL (  738082 calls)
 
     Parallel routines
 
     PWSCF        :   3m33.63s CPU   3m36.65s WALL

 
   This run was terminated on:  19:52:25  15Nov2023            

=------------------------------------------------------------------------------=
   JOB DONE.
=------------------------------------------------------------------------------=
