MPI startup(): Warning: I_MPI_PMI_LIBRARY will be ignored since the hydra process manager was found
MPI startup(): Warning: I_MPI_PMI_LIBRARY will be ignored since the hydra process manager was found
MPI startup(): Warning: I_MPI_PMI_LIBRARY will be ignored since the hydra process manager was found
MPI startup(): Warning: I_MPI_PMI_LIBRARY will be ignored since the hydra process manager was found
MPI startup(): Warning: I_MPI_PMI_LIBRARY will be ignored since the hydra process manager was found
MPI startup(): Warning: I_MPI_PMI_LIBRARY will be ignored since the hydra process manager was found
MPI startup(): Warning: I_MPI_PMI_LIBRARY will be ignored since the hydra process manager was found
MPI startup(): Warning: I_MPI_PMI_LIBRARY will be ignored since the hydra process manager was found
MPI startup(): Warning: I_MPI_PMI_LIBRARY will be ignored since the hydra process manager was found
MPI startup(): Warning: I_MPI_PMI_LIBRARY will be ignored since the hydra process manager was found
MPI startup(): Warning: I_MPI_PMI_LIBRARY will be ignored since the hydra process manager was found
MPI startup(): Warning: I_MPI_PMI_LIBRARY will be ignored since the hydra process manager was found

     Program PWSCF v.7.0 starts on 15Nov2023 at 19:19:58 

     This program is part of the open-source Quantum ESPRESSO suite
     for quantum simulation of materials; please cite
         "P. Giannozzi et al., J. Phys.:Condens. Matter 21 395502 (2009);
         "P. Giannozzi et al., J. Phys.:Condens. Matter 29 465901 (2017);
         "P. Giannozzi et al., J. Chem. Phys. 152 154105 (2020);
          URL http://www.quantum-espresso.org", 
     in publications or presentations arising from this work. More details at
     http://www.quantum-espresso.org/quote

     Parallel version (MPI), running on    12 processors

     MPI processes distributed on     1 nodes
     K-points division:     npool     =       4
     R & G space division:  proc/nbgrp/npool/nimage =       3
     110160 MiB available memory on the printing compute node when the environment starts
 
     Waiting for input...
     Reading input from standard input

     Current dimensions of program PWSCF are:
     Max number of different atomic species (ntypx) = 10
     Max number of k-points (npk) =  40000
     Max angular momentum in pseudopotentials (lmaxx) =  4
     file Au.UPF: wavefunction(s)  6S 5D renormalized
     Found identity + ( -0.5000 -0.5000  0.0000) symmetry
     This is a supercell, fractional translations are disabled

     Subspace diagonalization in iterative solution of the eigenvalue problem:
     a serial algorithm will be used

 
     Parallelization info
     --------------------
     sticks:   dense  smooth     PW     G-vecs:    dense   smooth      PW
     Min         286     286     87                 6284     6284    1063
     Max         288     288     87                 6285     6285    1065
     Sum         861     861    261                18853    18853    3191
 
     Using Slab Decomposition
 


     bravais-lattice index     =            0
     lattice parameter (alat)  =       6.7000  a.u.
     unit-cell volume          =     300.7630 (a.u.)^3
     number of atoms/cell      =            4
     number of atomic types    =            1
     number of electrons       =        44.00
     number of Kohn-Sham states=           26
     kinetic-energy cutoff     =      60.0000  Ry
     charge density cutoff     =     240.0000  Ry
     scf convergence threshold =      1.0E-09
     mixing beta               =       0.7000
     number of iterations used =            8  plain     mixing
     Exchange-correlation= SLA  PW   PBX  PBC
                           (   1   4   3   4   0   0   0)

     celldm(1)=   6.700000  celldm(2)=   0.000000  celldm(3)=   0.000000
     celldm(4)=   0.000000  celldm(5)=   0.000000  celldm(6)=   0.000000

     crystal axes: (cart. coord. in units of alat)
               a(1) = (   1.000000   0.000000   0.000000 )  
               a(2) = (   0.000000   1.000000   0.000000 )  
               a(3) = (   0.000000   0.000000   1.000000 )  

     reciprocal axes: (cart. coord. in units 2 pi/alat)
               b(1) = (  1.000000  0.000000  0.000000 )  
               b(2) = (  0.000000  1.000000  0.000000 )  
               b(3) = (  0.000000  0.000000  1.000000 )  


     PseudoPot. # 1 for Au read from file:
     ./Au.UPF
     MD5 check sum: 4db85c736373c707a97ce4c36c2a9d23
     Pseudo is Projector augmented-wave + core cor, Zval = 11.0
     Generated using &quot;atomic&quot; code by A. Dal Corso  v.6.3
     Shape of augmentation charge: PSQ
     Using radial grid of 1279 points,  6 beta functions with: 
                l(1) =   0
                l(2) =   0
                l(3) =   1
                l(4) =   1
                l(5) =   2
                l(6) =   2
     Q(r) pseudized with 0 coefficients 


     atomic species   valence    mass     pseudopotential
        Au            11.00   196.96657     Au( 1.00)

     No symmetry found



   Cartesian axes

     site n.     atom                  positions (alat units)
         1           Au  tau(   1) = (   0.0000000   0.0000000   0.0000000  )
         2           Au  tau(   2) = (   0.5000000   0.5000000   0.0000000  )
         3           Au  tau(   3) = (   0.5000000   0.0000000   0.5000000  )
         4           Au  tau(   4) = (   0.0000000   0.5000000   0.5000000  )

     number of k points=   868  Gaussian smearing, width (Ry)=  0.0200

     Number of k-points >= 100: set verbosity='high' to print them.

     Dense  grid:    18853 G-vectors     FFT dimensions: (  36,  36,  36)

     Estimated max dynamical RAM per process >      78.62 MB

     Estimated total dynamical RAM >     929.65 MB

     Initial potential from superposition of free atoms

     starting charge      43.9996, renormalised to      44.0000
     Starting wfcs are   36 randomized atomic wfcs
     Checking if some PAW data can be deallocated... 

     total cpu time spent up to now is        3.8 secs

     Self-consistent Calculation

     iteration #  1     ecut=    60.00 Ry     beta= 0.70
     Davidson diagonalization with overlap
     ethr =  1.00E-02,  avg # of iterations =  4.2

     Threshold (ethr) on eigenvalues was too large:
     Diagonalizing with lowered threshold

     Davidson diagonalization with overlap
     ethr =  1.09E-04,  avg # of iterations =  7.8

     total cpu time spent up to now is       27.9 secs

     total energy              =   -3099.53076034 Ry
     estimated scf accuracy    <       0.08523636 Ry

     iteration #  2     ecut=    60.00 Ry     beta= 0.70
     Davidson diagonalization with overlap
     ethr =  1.94E-04,  avg # of iterations =  2.0

     total cpu time spent up to now is       34.4 secs

     total energy              =   -3099.54444288 Ry
     estimated scf accuracy    <       0.00338288 Ry

     iteration #  3     ecut=    60.00 Ry     beta= 0.70
     Davidson diagonalization with overlap
     ethr =  7.69E-06,  avg # of iterations =  5.8

     total cpu time spent up to now is       46.2 secs

     total energy              =   -3099.54648100 Ry
     estimated scf accuracy    <       0.00093690 Ry

     iteration #  4     ecut=    60.00 Ry     beta= 0.70
     Davidson diagonalization with overlap
     c_bands:  1 eigenvalues not converged
     c_bands:  1 eigenvalues not converged
     c_bands:  1 eigenvalues not converged
     c_bands:  1 eigenvalues not converged
     ethr =  2.13E-06,  avg # of iterations =  4.2

     total cpu time spent up to now is       55.4 secs

     total energy              =   -3099.54665510 Ry
     estimated scf accuracy    <       0.00070900 Ry

     iteration #  5     ecut=    60.00 Ry     beta= 0.70
     Davidson diagonalization with overlap
     c_bands:  1 eigenvalues not converged
     ethr =  1.61E-06,  avg # of iterations =  2.0

     total cpu time spent up to now is       61.5 secs

     total energy              =   -3099.54674855 Ry
     estimated scf accuracy    <       0.00005845 Ry

     iteration #  6     ecut=    60.00 Ry     beta= 0.70
     Davidson diagonalization with overlap
     ethr =  1.33E-07,  avg # of iterations =  5.8

     total cpu time spent up to now is       73.8 secs

     total energy              =   -3099.54680837 Ry
     estimated scf accuracy    <       0.00001060 Ry

     iteration #  7     ecut=    60.00 Ry     beta= 0.70
     Davidson diagonalization with overlap
     ethr =  2.41E-08,  avg # of iterations =  3.0

     total cpu time spent up to now is       81.6 secs

     total energy              =   -3099.54680921 Ry
     estimated scf accuracy    <       0.00000278 Ry

     iteration #  8     ecut=    60.00 Ry     beta= 0.70
     Davidson diagonalization with overlap
     ethr =  6.32E-09,  avg # of iterations =  3.3

     total cpu time spent up to now is       89.4 secs

     total energy              =   -3099.54680952 Ry
     estimated scf accuracy    <       0.00000062 Ry

     iteration #  9     ecut=    60.00 Ry     beta= 0.70
     Davidson diagonalization with overlap
     ethr =  1.41E-09,  avg # of iterations =  4.6

     total cpu time spent up to now is       98.9 secs

     total energy              =   -3099.54680973 Ry
     estimated scf accuracy    <       0.00000008 Ry

     iteration # 10     ecut=    60.00 Ry     beta= 0.70
     Davidson diagonalization with overlap
     ethr =  1.73E-10,  avg # of iterations =  6.8

     total cpu time spent up to now is      113.8 secs

     total energy              =   -3099.54680983 Ry
     estimated scf accuracy    <       0.00000003 Ry

     iteration # 11     ecut=    60.00 Ry     beta= 0.70
     Davidson diagonalization with overlap
     ethr =  7.51E-11,  avg # of iterations =  1.9

     total cpu time spent up to now is      120.0 secs

     total energy              =   -3099.54680983 Ry
     estimated scf accuracy    <          4.2E-09 Ry

     iteration # 12     ecut=    60.00 Ry     beta= 0.70
     Davidson diagonalization with overlap
     ethr =  9.45E-12,  avg # of iterations =  5.3

     total cpu time spent up to now is      130.8 secs

     End of self-consistent calculation

     Number of k-points >= 100: set verbosity='high' to print the bands.

     the Fermi energy is    28.6425 ev

!    total energy              =   -3099.54680984 Ry

     total all-electron energy =   -152094.931174 Ry
     estimated scf accuracy    <          6.4E-10 Ry
     smearing contrib. (-TS)   =      -0.00229931 Ry
     internal energy E=F+TS    =   -3099.54451053 Ry

     The total energy is F=E-TS. E is the sum of the following terms:
     one-electron contribution =     115.38246038 Ry
     hartree contribution      =      17.87378318 Ry
     xc contribution           =    -130.87020018 Ry
     ewald contribution        =    -331.20496180 Ry
     one-center paw contrib.   =   -2770.72559212 Ry

     convergence has been achieved in  12 iterations

     Forces acting on atoms (cartesian axes, Ry/au):

     atom    1 type  1   force =    -0.00000080   -0.00000164   -0.00000042
     atom    2 type  1   force =     0.00000078    0.00000154   -0.00000055
     atom    3 type  1   force =     0.00000074   -0.00000138    0.00000047
     atom    4 type  1   force =    -0.00000072    0.00000148    0.00000050

     Total force =     0.000004     Total SCF correction =     0.000005
     SCF correction compared to forces is large: reduce conv_thr to get better values


     Computing stress (Cartesian axis) and pressure

          total   stress  (Ry/bohr**3)                   (kbar)     P=     2688.56
   0.01827645  -0.00000000  -0.00000000         2688.56       -0.00       -0.00
  -0.00000000   0.01827645  -0.00000000           -0.00     2688.56       -0.00
  -0.00000000  -0.00000000   0.01827645           -0.00       -0.00     2688.56


     Writing all to output data dir ./gold.save/
 
     init_run     :      3.27s CPU      3.39s WALL (       1 calls)
     electrons    :    125.38s CPU    127.06s WALL (       1 calls)
     forces       :      0.49s CPU      0.50s WALL (       1 calls)
     stress       :      1.63s CPU      1.64s WALL (       1 calls)

     Called by init_run:
     wfcinit      :      2.59s CPU      2.66s WALL (       1 calls)
     potinit      :      0.06s CPU      0.08s WALL (       1 calls)
     hinit0       :      0.08s CPU      0.09s WALL (       1 calls)

     Called by electrons:
     c_bands      :    113.26s CPU    114.60s WALL (      13 calls)
     sum_band     :     11.43s CPU     11.61s WALL (      13 calls)
     v_of_rho     :      0.07s CPU      0.16s WALL (      13 calls)
     newd         :      0.03s CPU      0.06s WALL (      13 calls)
     PAW_pot      :      0.62s CPU      0.69s WALL (      13 calls)
     mix_rho      :      0.01s CPU      0.01s WALL (      13 calls)

     Called by c_bands:
     init_us_2    :      1.08s CPU      1.09s WALL (    6293 calls)
     init_us_2:cp :      1.07s CPU      1.09s WALL (    6293 calls)
     cegterg      :     93.98s CPU     95.14s WALL (    2821 calls)

     Called by *egterg:
     cdiaghg      :      9.13s CPU      9.20s WALL (   15257 calls)
     h_psi        :     68.74s CPU     69.76s WALL (   15691 calls)
     s_psi        :      3.94s CPU      3.98s WALL (   15691 calls)
     g_psi        :      0.44s CPU      0.44s WALL (   12653 calls)

     Called by h_psi:
     h_psi:calbec :      4.26s CPU      4.32s WALL (   15691 calls)
     vloc_psi     :     60.21s CPU     61.13s WALL (   15691 calls)
     add_vuspsi   :      3.99s CPU      4.04s WALL (   15691 calls)

     General routines
     calbec       :      5.70s CPU      5.78s WALL (   19597 calls)
     fft          :      0.04s CPU      0.17s WALL (     169 calls)
     ffts         :      0.00s CPU      0.01s WALL (      13 calls)
     fftw         :     64.01s CPU     64.98s WALL (  597882 calls)
 
     Parallel routines
 
     PWSCF        :   2m11.77s CPU   2m14.27s WALL

 
   This run was terminated on:  19:22:12  15Nov2023            

=------------------------------------------------------------------------------=
   JOB DONE.
=------------------------------------------------------------------------------=
