MPI startup(): Warning: I_MPI_PMI_LIBRARY will be ignored since the hydra process manager was found
MPI startup(): Warning: I_MPI_PMI_LIBRARY will be ignored since the hydra process manager was found
MPI startup(): Warning: I_MPI_PMI_LIBRARY will be ignored since the hydra process manager was found
MPI startup(): Warning: I_MPI_PMI_LIBRARY will be ignored since the hydra process manager was found
MPI startup(): Warning: I_MPI_PMI_LIBRARY will be ignored since the hydra process manager was found
MPI startup(): Warning: I_MPI_PMI_LIBRARY will be ignored since the hydra process manager was found
MPI startup(): Warning: I_MPI_PMI_LIBRARY will be ignored since the hydra process manager was found
MPI startup(): Warning: I_MPI_PMI_LIBRARY will be ignored since the hydra process manager was found
MPI startup(): Warning: I_MPI_PMI_LIBRARY will be ignored since the hydra process manager was found
MPI startup(): Warning: I_MPI_PMI_LIBRARY will be ignored since the hydra process manager was found
MPI startup(): Warning: I_MPI_PMI_LIBRARY will be ignored since the hydra process manager was found
MPI startup(): Warning: I_MPI_PMI_LIBRARY will be ignored since the hydra process manager was found

     Program PWSCF v.7.0 starts on 15Nov2023 at 19: 7:50 

     This program is part of the open-source Quantum ESPRESSO suite
     for quantum simulation of materials; please cite
         "P. Giannozzi et al., J. Phys.:Condens. Matter 21 395502 (2009);
         "P. Giannozzi et al., J. Phys.:Condens. Matter 29 465901 (2017);
         "P. Giannozzi et al., J. Chem. Phys. 152 154105 (2020);
          URL http://www.quantum-espresso.org", 
     in publications or presentations arising from this work. More details at
     http://www.quantum-espresso.org/quote

     Parallel version (MPI), running on    12 processors

     MPI processes distributed on     1 nodes
     K-points division:     npool     =       4
     R & G space division:  proc/nbgrp/npool/nimage =       3
     108703 MiB available memory on the printing compute node when the environment starts
 
     Waiting for input...
     Reading input from standard input

     Current dimensions of program PWSCF are:
     Max number of different atomic species (ntypx) = 10
     Max number of k-points (npk) =  40000
     Max angular momentum in pseudopotentials (lmaxx) =  4
     file Au.UPF: wavefunction(s)  6S 5D renormalized
     Found identity + ( -0.5000 -0.5000  0.0000) symmetry
     This is a supercell, fractional translations are disabled

     Subspace diagonalization in iterative solution of the eigenvalue problem:
     a serial algorithm will be used

 
     Parallelization info
     --------------------
     sticks:   dense  smooth     PW     G-vecs:    dense   smooth      PW
     Min         238     238     73                 4747     4747     837
     Max         240     240     74                 4748     4748     840
     Sum         717     717    221                14243    14243    2517
 
     Using Slab Decomposition
 


     bravais-lattice index     =            0
     lattice parameter (alat)  =       6.1000  a.u.
     unit-cell volume          =     226.9810 (a.u.)^3
     number of atoms/cell      =            4
     number of atomic types    =            1
     number of electrons       =        44.00
     number of Kohn-Sham states=           26
     kinetic-energy cutoff     =      60.0000  Ry
     charge density cutoff     =     240.0000  Ry
     scf convergence threshold =      1.0E-09
     mixing beta               =       0.7000
     number of iterations used =            8  plain     mixing
     Exchange-correlation= SLA  PW   PBX  PBC
                           (   1   4   3   4   0   0   0)

     celldm(1)=   6.100000  celldm(2)=   0.000000  celldm(3)=   0.000000
     celldm(4)=   0.000000  celldm(5)=   0.000000  celldm(6)=   0.000000

     crystal axes: (cart. coord. in units of alat)
               a(1) = (   1.000000   0.000000   0.000000 )  
               a(2) = (   0.000000   1.000000   0.000000 )  
               a(3) = (   0.000000   0.000000   1.000000 )  

     reciprocal axes: (cart. coord. in units 2 pi/alat)
               b(1) = (  1.000000  0.000000  0.000000 )  
               b(2) = (  0.000000  1.000000  0.000000 )  
               b(3) = (  0.000000  0.000000  1.000000 )  


     PseudoPot. # 1 for Au read from file:
     ./Au.UPF
     MD5 check sum: 4db85c736373c707a97ce4c36c2a9d23
     Pseudo is Projector augmented-wave + core cor, Zval = 11.0
     Generated using &quot;atomic&quot; code by A. Dal Corso  v.6.3
     Shape of augmentation charge: PSQ
     Using radial grid of 1279 points,  6 beta functions with: 
                l(1) =   0
                l(2) =   0
                l(3) =   1
                l(4) =   1
                l(5) =   2
                l(6) =   2
     Q(r) pseudized with 0 coefficients 


     atomic species   valence    mass     pseudopotential
        Au            11.00   196.96657     Au( 1.00)

     No symmetry found



   Cartesian axes

     site n.     atom                  positions (alat units)
         1           Au  tau(   1) = (   0.0000000   0.0000000   0.0000000  )
         2           Au  tau(   2) = (   0.5000000   0.5000000   0.0000000  )
         3           Au  tau(   3) = (   0.5000000   0.0000000   0.5000000  )
         4           Au  tau(   4) = (   0.0000000   0.5000000   0.5000000  )

     number of k points=   868  Gaussian smearing, width (Ry)=  0.0200

     Number of k-points >= 100: set verbosity='high' to print them.

     Dense  grid:    14243 G-vectors     FFT dimensions: (  32,  32,  32)

     Estimated max dynamical RAM per process >      59.60 MB

     Estimated total dynamical RAM >     704.74 MB

     Initial potential from superposition of free atoms

     starting charge      43.9996, renormalised to      44.0000
     Starting wfcs are   36 randomized atomic wfcs
     Checking if some PAW data can be deallocated... 

     total cpu time spent up to now is        3.2 secs

     Self-consistent Calculation

     iteration #  1     ecut=    60.00 Ry     beta= 0.70
     Davidson diagonalization with overlap
     ethr =  1.00E-02,  avg # of iterations =  5.1

     Threshold (ethr) on eigenvalues was too large:
     Diagonalizing with lowered threshold

     Davidson diagonalization with overlap
     ethr =  3.01E-04,  avg # of iterations =  6.5

     total cpu time spent up to now is       20.9 secs

     total energy              =   -3096.91975806 Ry
     estimated scf accuracy    <       0.09117836 Ry

     iteration #  2     ecut=    60.00 Ry     beta= 0.70
     Davidson diagonalization with overlap
     ethr =  2.07E-04,  avg # of iterations =  2.3

     total cpu time spent up to now is       26.2 secs

     total energy              =   -3096.93497037 Ry
     estimated scf accuracy    <       0.00948156 Ry

     iteration #  3     ecut=    60.00 Ry     beta= 0.70
     Davidson diagonalization with overlap
     ethr =  2.15E-05,  avg # of iterations =  5.8

     total cpu time spent up to now is       34.4 secs

     total energy              =   -3096.93837184 Ry
     estimated scf accuracy    <       0.00016539 Ry

     iteration #  4     ecut=    60.00 Ry     beta= 0.70
     Davidson diagonalization with overlap
     c_bands:  1 eigenvalues not converged
     c_bands:  1 eigenvalues not converged
     c_bands:  1 eigenvalues not converged
     c_bands:  1 eigenvalues not converged
     c_bands:  1 eigenvalues not converged
     c_bands:  1 eigenvalues not converged
     c_bands:  1 eigenvalues not converged
     c_bands:  1 eigenvalues not converged
     c_bands:  1 eigenvalues not converged
     c_bands:  1 eigenvalues not converged
     c_bands:  2 eigenvalues not converged
     ethr =  3.76E-07,  avg # of iterations =  9.2

     total cpu time spent up to now is       49.5 secs

     total energy              =   -3096.93888228 Ry
     estimated scf accuracy    <       0.00012516 Ry

     iteration #  5     ecut=    60.00 Ry     beta= 0.70
     Davidson diagonalization with overlap
     c_bands:  1 eigenvalues not converged
     ethr =  2.84E-07,  avg # of iterations =  2.5

     total cpu time spent up to now is       55.4 secs

     total energy              =   -3096.93891858 Ry
     estimated scf accuracy    <       0.00000179 Ry

     iteration #  6     ecut=    60.00 Ry     beta= 0.70
     Davidson diagonalization with overlap
     ethr =  4.08E-09,  avg # of iterations =  7.7

     total cpu time spent up to now is       67.5 secs

     total energy              =   -3096.93892219 Ry
     estimated scf accuracy    <       0.00000165 Ry

     iteration #  7     ecut=    60.00 Ry     beta= 0.70
     Davidson diagonalization with overlap
     ethr =  3.74E-09,  avg # of iterations =  2.1

     total cpu time spent up to now is       72.7 secs

     total energy              =   -3096.93892237 Ry
     estimated scf accuracy    <       0.00000036 Ry

     iteration #  8     ecut=    60.00 Ry     beta= 0.70
     Davidson diagonalization with overlap
     ethr =  8.23E-10,  avg # of iterations =  2.3

     total cpu time spent up to now is       78.5 secs

     total energy              =   -3096.93892232 Ry
     estimated scf accuracy    <       0.00000009 Ry

     iteration #  9     ecut=    60.00 Ry     beta= 0.70
     Davidson diagonalization with overlap
     ethr =  2.04E-10,  avg # of iterations =  5.9

     total cpu time spent up to now is       87.5 secs

     total energy              =   -3096.93892240 Ry
     estimated scf accuracy    <       0.00000003 Ry

     iteration # 10     ecut=    60.00 Ry     beta= 0.70
     Davidson diagonalization with overlap
     c_bands:  1 eigenvalues not converged
     ethr =  5.70E-11,  avg # of iterations =  3.7

     total cpu time spent up to now is       94.2 secs

     total energy              =   -3096.93892241 Ry
     estimated scf accuracy    <       0.00000001 Ry

     iteration # 11     ecut=    60.00 Ry     beta= 0.70
     Davidson diagonalization with overlap
     ethr =  2.87E-11,  avg # of iterations =  2.0

     total cpu time spent up to now is       99.2 secs

     total energy              =   -3096.93892241 Ry
     estimated scf accuracy    <          1.0E-09 Ry

     iteration # 12     ecut=    60.00 Ry     beta= 0.70
     Davidson diagonalization with overlap
     ethr =  2.36E-12,  avg # of iterations =  6.3

     total cpu time spent up to now is      108.9 secs

     End of self-consistent calculation

     Number of k-points >= 100: set verbosity='high' to print the bands.

     the Fermi energy is    41.0491 ev

!    total energy              =   -3096.93892241 Ry

     total all-electron energy =   -152092.323287 Ry
     estimated scf accuracy    <          1.5E-10 Ry
     smearing contrib. (-TS)   =      -0.00160605 Ry
     internal energy E=F+TS    =   -3096.93731635 Ry

     The total energy is F=E-TS. E is the sum of the following terms:
     one-electron contribution =     160.30082891 Ry
     hartree contribution      =      12.09635217 Ry
     xc contribution           =    -133.80148284 Ry
     ewald contribution        =    -363.78249902 Ry
     one-center paw contrib.   =   -2771.75051556 Ry

     convergence has been achieved in  12 iterations

     Forces acting on atoms (cartesian axes, Ry/au):

     atom    1 type  1   force =     0.00000011    0.00000054    0.00000005
     atom    2 type  1   force =    -0.00000016   -0.00000058    0.00000005
     atom    3 type  1   force =    -0.00000018    0.00000052   -0.00000014
     atom    4 type  1   force =     0.00000022   -0.00000048    0.00000003

     Total force =     0.000001     Total SCF correction =     0.000002
     SCF correction compared to forces is large: reduce conv_thr to get better values


     Computing stress (Cartesian axis) and pressure

          total   stress  (Ry/bohr**3)                   (kbar)     P=     9045.48
   0.06148992   0.00000000  -0.00000000         9045.48        0.00       -0.00
   0.00000000   0.06148993  -0.00000000            0.00     9045.48       -0.00
  -0.00000000  -0.00000000   0.06148992           -0.00       -0.00     9045.48


     Writing all to output data dir ./gold.save/
 
     init_run     :      2.28s CPU      2.82s WALL (       1 calls)
     electrons    :    104.16s CPU    105.72s WALL (       1 calls)
     forces       :      0.40s CPU      0.42s WALL (       1 calls)
     stress       :      1.25s CPU      1.25s WALL (       1 calls)

     Called by init_run:
     wfcinit      :      2.07s CPU      2.53s WALL (       1 calls)
     potinit      :      0.06s CPU      0.08s WALL (       1 calls)
     hinit0       :      0.08s CPU      0.12s WALL (       1 calls)

     Called by electrons:
     c_bands      :     94.61s CPU     95.91s WALL (      13 calls)
     sum_band     :      8.84s CPU      8.99s WALL (      13 calls)
     v_of_rho     :      0.08s CPU      0.12s WALL (      13 calls)
     newd         :      0.02s CPU      0.05s WALL (      13 calls)
     PAW_pot      :      0.64s CPU      0.70s WALL (      13 calls)
     mix_rho      :      0.01s CPU      0.01s WALL (      13 calls)

     Called by c_bands:
     init_us_2    :      0.82s CPU      0.83s WALL (    6293 calls)
     init_us_2:cp :      0.81s CPU      0.82s WALL (    6293 calls)
     cegterg      :     79.40s CPU     80.56s WALL (    2821 calls)

     Called by *egterg:
     cdiaghg      :      9.81s CPU      9.90s WALL (   16256 calls)
     h_psi        :     56.06s CPU     57.44s WALL (   16690 calls)
     s_psi        :      3.29s CPU      3.34s WALL (   16690 calls)
     g_psi        :      0.36s CPU      0.36s WALL (   13652 calls)

     Called by h_psi:
     h_psi:calbec :      3.58s CPU      3.64s WALL (   16690 calls)
     vloc_psi     :     48.99s CPU     50.26s WALL (   16690 calls)
     add_vuspsi   :      3.27s CPU      3.32s WALL (   16690 calls)

     General routines
     calbec       :      4.71s CPU      4.79s WALL (   20596 calls)
     fft          :      0.06s CPU      0.19s WALL (     169 calls)
     ffts         :      0.00s CPU      0.01s WALL (      13 calls)
     fftw         :     51.81s CPU     53.14s WALL (  628090 calls)
 
     Parallel routines
 
     PWSCF        :   1m48.98s CPU   1m51.80s WALL

 
   This run was terminated on:  19: 9:42  15Nov2023            

=------------------------------------------------------------------------------=
   JOB DONE.
=------------------------------------------------------------------------------=
