MPI startup(): Warning: I_MPI_PMI_LIBRARY will be ignored since the hydra process manager was found
MPI startup(): Warning: I_MPI_PMI_LIBRARY will be ignored since the hydra process manager was found
MPI startup(): Warning: I_MPI_PMI_LIBRARY will be ignored since the hydra process manager was found
MPI startup(): Warning: I_MPI_PMI_LIBRARY will be ignored since the hydra process manager was found
MPI startup(): Warning: I_MPI_PMI_LIBRARY will be ignored since the hydra process manager was found
MPI startup(): Warning: I_MPI_PMI_LIBRARY will be ignored since the hydra process manager was found
MPI startup(): Warning: I_MPI_PMI_LIBRARY will be ignored since the hydra process manager was found
MPI startup(): Warning: I_MPI_PMI_LIBRARY will be ignored since the hydra process manager was found
MPI startup(): Warning: I_MPI_PMI_LIBRARY will be ignored since the hydra process manager was found
MPI startup(): Warning: I_MPI_PMI_LIBRARY will be ignored since the hydra process manager was found
MPI startup(): Warning: I_MPI_PMI_LIBRARY will be ignored since the hydra process manager was found
MPI startup(): Warning: I_MPI_PMI_LIBRARY will be ignored since the hydra process manager was found

     Program PWSCF v.7.0 starts on 15Nov2023 at 19:31:59 

     This program is part of the open-source Quantum ESPRESSO suite
     for quantum simulation of materials; please cite
         "P. Giannozzi et al., J. Phys.:Condens. Matter 21 395502 (2009);
         "P. Giannozzi et al., J. Phys.:Condens. Matter 29 465901 (2017);
         "P. Giannozzi et al., J. Chem. Phys. 152 154105 (2020);
          URL http://www.quantum-espresso.org", 
     in publications or presentations arising from this work. More details at
     http://www.quantum-espresso.org/quote

     Parallel version (MPI), running on    12 processors

     MPI processes distributed on     1 nodes
     K-points division:     npool     =       4
     R & G space division:  proc/nbgrp/npool/nimage =       3
     111213 MiB available memory on the printing compute node when the environment starts
 
     Waiting for input...
     Reading input from standard input

     Current dimensions of program PWSCF are:
     Max number of different atomic species (ntypx) = 10
     Max number of k-points (npk) =  40000
     Max angular momentum in pseudopotentials (lmaxx) =  4
     file Au.UPF: wavefunction(s)  6S 5D renormalized
     Found identity + ( -0.5000 -0.5000  0.0000) symmetry
     This is a supercell, fractional translations are disabled

     Subspace diagonalization in iterative solution of the eigenvalue problem:
     a serial algorithm will be used

 
     Parallelization info
     --------------------
     sticks:   dense  smooth     PW     G-vecs:    dense   smooth      PW
     Min         329     329     97                 7860     7860    1293
     Max         330     330     98                 7862     7862    1298
     Sum         989     989    293                23583    23583    3887
 
     Using Slab Decomposition
 


     bravais-lattice index     =            0
     lattice parameter (alat)  =       7.2000  a.u.
     unit-cell volume          =     373.2480 (a.u.)^3
     number of atoms/cell      =            4
     number of atomic types    =            1
     number of electrons       =        44.00
     number of Kohn-Sham states=           26
     kinetic-energy cutoff     =      60.0000  Ry
     charge density cutoff     =     240.0000  Ry
     scf convergence threshold =      1.0E-09
     mixing beta               =       0.7000
     number of iterations used =            8  plain     mixing
     Exchange-correlation= SLA  PW   PBX  PBC
                           (   1   4   3   4   0   0   0)

     celldm(1)=   7.200000  celldm(2)=   0.000000  celldm(3)=   0.000000
     celldm(4)=   0.000000  celldm(5)=   0.000000  celldm(6)=   0.000000

     crystal axes: (cart. coord. in units of alat)
               a(1) = (   1.000000   0.000000   0.000000 )  
               a(2) = (   0.000000   1.000000   0.000000 )  
               a(3) = (   0.000000   0.000000   1.000000 )  

     reciprocal axes: (cart. coord. in units 2 pi/alat)
               b(1) = (  1.000000  0.000000  0.000000 )  
               b(2) = (  0.000000  1.000000  0.000000 )  
               b(3) = (  0.000000  0.000000  1.000000 )  


     PseudoPot. # 1 for Au read from file:
     ./Au.UPF
     MD5 check sum: 4db85c736373c707a97ce4c36c2a9d23
     Pseudo is Projector augmented-wave + core cor, Zval = 11.0
     Generated using &quot;atomic&quot; code by A. Dal Corso  v.6.3
     Shape of augmentation charge: PSQ
     Using radial grid of 1279 points,  6 beta functions with: 
                l(1) =   0
                l(2) =   0
                l(3) =   1
                l(4) =   1
                l(5) =   2
                l(6) =   2
     Q(r) pseudized with 0 coefficients 


     atomic species   valence    mass     pseudopotential
        Au            11.00   196.96657     Au( 1.00)

     No symmetry found



   Cartesian axes

     site n.     atom                  positions (alat units)
         1           Au  tau(   1) = (   0.0000000   0.0000000   0.0000000  )
         2           Au  tau(   2) = (   0.5000000   0.5000000   0.0000000  )
         3           Au  tau(   3) = (   0.5000000   0.0000000   0.5000000  )
         4           Au  tau(   4) = (   0.0000000   0.5000000   0.5000000  )

     number of k points=   868  Gaussian smearing, width (Ry)=  0.0200

     Number of k-points >= 100: set verbosity='high' to print them.

     Dense  grid:    23583 G-vectors     FFT dimensions: (  36,  36,  36)

     Estimated max dynamical RAM per process >      97.14 MB

     Estimated total dynamical RAM >       1.12 GB

     Initial potential from superposition of free atoms

     starting charge      43.9996, renormalised to      44.0000
     Starting wfcs are   36 randomized atomic wfcs
     Checking if some PAW data can be deallocated... 

     total cpu time spent up to now is        3.6 secs

     Self-consistent Calculation

     iteration #  1     ecut=    60.00 Ry     beta= 0.70
     Davidson diagonalization with overlap
     ethr =  1.00E-02,  avg # of iterations =  3.2

     Threshold (ethr) on eigenvalues was too large:
     Diagonalizing with lowered threshold

     Davidson diagonalization with overlap
     ethr =  1.75E-04,  avg # of iterations =  6.6

     total cpu time spent up to now is       25.7 secs

     total energy              =   -3100.28251338 Ry
     estimated scf accuracy    <       0.14749494 Ry

     iteration #  2     ecut=    60.00 Ry     beta= 0.70
     Davidson diagonalization with overlap
     ethr =  3.35E-04,  avg # of iterations =  2.1

     total cpu time spent up to now is       33.5 secs

     total energy              =   -3100.32222541 Ry
     estimated scf accuracy    <       0.00682949 Ry

     iteration #  3     ecut=    60.00 Ry     beta= 0.70
     Davidson diagonalization with overlap
     c_bands:  1 eigenvalues not converged
     ethr =  1.55E-05,  avg # of iterations =  5.3

     total cpu time spent up to now is       44.9 secs

     total energy              =   -3100.32507554 Ry
     estimated scf accuracy    <       0.00153602 Ry

     iteration #  4     ecut=    60.00 Ry     beta= 0.70
     Davidson diagonalization with overlap
     c_bands:  1 eigenvalues not converged
     c_bands:  1 eigenvalues not converged
     ethr =  3.49E-06,  avg # of iterations =  4.0

     total cpu time spent up to now is       54.6 secs

     total energy              =   -3100.32560828 Ry
     estimated scf accuracy    <       0.00126360 Ry

     iteration #  5     ecut=    60.00 Ry     beta= 0.70
     Davidson diagonalization with overlap
     ethr =  2.87E-06,  avg # of iterations =  2.1

     total cpu time spent up to now is       61.3 secs

     total energy              =   -3100.32556035 Ry
     estimated scf accuracy    <       0.00038338 Ry

     iteration #  6     ecut=    60.00 Ry     beta= 0.70
     Davidson diagonalization with overlap
     ethr =  8.71E-07,  avg # of iterations =  4.1

     total cpu time spent up to now is       70.7 secs

     total energy              =   -3100.32571612 Ry
     estimated scf accuracy    <       0.00000557 Ry

     iteration #  7     ecut=    60.00 Ry     beta= 0.70
     Davidson diagonalization with overlap
     ethr =  1.27E-08,  avg # of iterations =  9.2

     total cpu time spent up to now is       92.6 secs

     total energy              =   -3100.32573709 Ry
     estimated scf accuracy    <       0.00001377 Ry

     iteration #  8     ecut=    60.00 Ry     beta= 0.70
     Davidson diagonalization with overlap
     ethr =  1.27E-08,  avg # of iterations =  1.1

     total cpu time spent up to now is       98.5 secs

     total energy              =   -3100.32573325 Ry
     estimated scf accuracy    <       0.00000737 Ry

     iteration #  9     ecut=    60.00 Ry     beta= 0.70
     Davidson diagonalization with overlap
     ethr =  1.27E-08,  avg # of iterations =  2.0

     total cpu time spent up to now is      106.2 secs

     total energy              =   -3100.32573409 Ry
     estimated scf accuracy    <       0.00000049 Ry

     iteration # 10     ecut=    60.00 Ry     beta= 0.70
     Davidson diagonalization with overlap
     ethr =  1.12E-09,  avg # of iterations =  7.0

     total cpu time spent up to now is      121.4 secs

     total energy              =   -3100.32573468 Ry
     estimated scf accuracy    <       0.00000056 Ry

     iteration # 11     ecut=    60.00 Ry     beta= 0.70
     Davidson diagonalization with overlap
     ethr =  1.12E-09,  avg # of iterations =  1.9

     total cpu time spent up to now is      127.9 secs

     total energy              =   -3100.32573465 Ry
     estimated scf accuracy    <       0.00000009 Ry

     iteration # 12     ecut=    60.00 Ry     beta= 0.70
     Davidson diagonalization with overlap
     ethr =  1.97E-10,  avg # of iterations =  5.0

     total cpu time spent up to now is      138.2 secs

     total energy              =   -3100.32573471 Ry
     estimated scf accuracy    <       0.00000001 Ry

     iteration # 13     ecut=    60.00 Ry     beta= 0.70
     Davidson diagonalization with overlap
     ethr =  2.99E-11,  avg # of iterations =  4.4

     total cpu time spent up to now is      148.4 secs

     total energy              =   -3100.32573471 Ry
     estimated scf accuracy    <       0.00000003 Ry

     iteration # 14     ecut=    60.00 Ry     beta= 0.70
     Davidson diagonalization with overlap
     ethr =  2.99E-11,  avg # of iterations =  2.0

     total cpu time spent up to now is      155.6 secs

     total energy              =   -3100.32573471 Ry
     estimated scf accuracy    <          2.9E-09 Ry

     iteration # 15     ecut=    60.00 Ry     beta= 0.70
     Davidson diagonalization with overlap
     ethr =  6.69E-12,  avg # of iterations =  5.0

     total cpu time spent up to now is      166.5 secs

     End of self-consistent calculation

     Number of k-points >= 100: set verbosity='high' to print the bands.

     the Fermi energy is    21.4029 ev

!    total energy              =   -3100.32573471 Ry

     total all-electron energy =   -152095.710099 Ry
     estimated scf accuracy    <          1.5E-10 Ry
     smearing contrib. (-TS)   =      -0.00258420 Ry
     internal energy E=F+TS    =   -3100.32315051 Ry

     The total energy is F=E-TS. E is the sum of the following terms:
     one-electron contribution =      83.81738884 Ry
     hartree contribution      =      23.76613393 Ry
     xc contribution           =    -129.39302598 Ry
     ewald contribution        =    -308.20461722 Ry
     one-center paw contrib.   =   -2770.30903007 Ry

     convergence has been achieved in  15 iterations

     Forces acting on atoms (cartesian axes, Ry/au):

     atom    1 type  1   force =    -0.00000008   -0.00000039    0.00000030
     atom    2 type  1   force =     0.00000013    0.00000038    0.00000018
     atom    3 type  1   force =    -0.00000010   -0.00000042   -0.00000015
     atom    4 type  1   force =     0.00000005    0.00000043   -0.00000033

     Total force =     0.000001     Total SCF correction =     0.000002
     SCF correction compared to forces is large: reduce conv_thr to get better values


     Computing stress (Cartesian axis) and pressure

          total   stress  (Ry/bohr**3)                   (kbar)     P=      810.47
   0.00550947  -0.00000000  -0.00000000          810.47       -0.00       -0.00
  -0.00000000   0.00550947   0.00000000           -0.00      810.47        0.00
  -0.00000000   0.00000000   0.00550947           -0.00        0.00      810.47


     Writing all to output data dir ./gold.save/
 
     init_run     :      3.14s CPU      3.25s WALL (       1 calls)
     electrons    :    160.77s CPU    162.90s WALL (       1 calls)
     forces       :      0.59s CPU      0.60s WALL (       1 calls)
     stress       :      2.00s CPU      2.01s WALL (       1 calls)

     Called by init_run:
     wfcinit      :      2.81s CPU      2.89s WALL (       1 calls)
     potinit      :      0.06s CPU      0.08s WALL (       1 calls)
     hinit0       :      0.08s CPU      0.09s WALL (       1 calls)

     Called by electrons:
     c_bands      :    145.23s CPU    147.10s WALL (      16 calls)
     sum_band     :     14.72s CPU     14.94s WALL (      16 calls)
     v_of_rho     :      0.07s CPU      0.10s WALL (      16 calls)
     newd         :      0.05s CPU      0.06s WALL (      16 calls)
     PAW_pot      :      0.72s CPU      0.73s WALL (      16 calls)
     mix_rho      :      0.02s CPU      0.02s WALL (      16 calls)

     Called by c_bands:
     init_us_2    :      1.62s CPU      1.64s WALL (    7595 calls)
     init_us_2:cp :      1.61s CPU      1.63s WALL (    7595 calls)
     cegterg      :    121.05s CPU    122.71s WALL (    3472 calls)

     Called by *egterg:
     cdiaghg      :     10.63s CPU     10.71s WALL (   17541 calls)
     h_psi        :     86.61s CPU     88.09s WALL (   17975 calls)
     s_psi        :      5.68s CPU      5.74s WALL (   17975 calls)
     g_psi        :      0.66s CPU      0.67s WALL (   14286 calls)

     Called by h_psi:
     h_psi:calbec :      6.02s CPU      6.12s WALL (   17975 calls)
     vloc_psi     :     74.47s CPU     75.77s WALL (   17975 calls)
     add_vuspsi   :      5.76s CPU      5.84s WALL (   17975 calls)

     General routines
     calbec       :      8.02s CPU      8.15s WALL (   22532 calls)
     fft          :      0.07s CPU      0.12s WALL (     202 calls)
     ffts         :      0.00s CPU      0.01s WALL (      16 calls)
     fftw         :     79.18s CPU     80.49s WALL (  728392 calls)
 
     Parallel routines
 
     PWSCF        :   2m47.72s CPU   2m50.64s WALL

 
   This run was terminated on:  19:34:49  15Nov2023            

=------------------------------------------------------------------------------=
   JOB DONE.
=------------------------------------------------------------------------------=
