MPI startup(): Warning: I_MPI_PMI_LIBRARY will be ignored since the hydra process manager was found
MPI startup(): Warning: I_MPI_PMI_LIBRARY will be ignored since the hydra process manager was found
MPI startup(): Warning: I_MPI_PMI_LIBRARY will be ignored since the hydra process manager was found
MPI startup(): Warning: I_MPI_PMI_LIBRARY will be ignored since the hydra process manager was found
MPI startup(): Warning: I_MPI_PMI_LIBRARY will be ignored since the hydra process manager was found
MPI startup(): Warning: I_MPI_PMI_LIBRARY will be ignored since the hydra process manager was found
MPI startup(): Warning: I_MPI_PMI_LIBRARY will be ignored since the hydra process manager was found
MPI startup(): Warning: I_MPI_PMI_LIBRARY will be ignored since the hydra process manager was found
MPI startup(): Warning: I_MPI_PMI_LIBRARY will be ignored since the hydra process manager was found
MPI startup(): Warning: I_MPI_PMI_LIBRARY will be ignored since the hydra process manager was found
MPI startup(): Warning: I_MPI_PMI_LIBRARY will be ignored since the hydra process manager was found
MPI startup(): Warning: I_MPI_PMI_LIBRARY will be ignored since the hydra process manager was found

     Program PWSCF v.7.0 starts on 15Nov2023 at 19:44:52 

     This program is part of the open-source Quantum ESPRESSO suite
     for quantum simulation of materials; please cite
         "P. Giannozzi et al., J. Phys.:Condens. Matter 21 395502 (2009);
         "P. Giannozzi et al., J. Phys.:Condens. Matter 29 465901 (2017);
         "P. Giannozzi et al., J. Chem. Phys. 152 154105 (2020);
          URL http://www.quantum-espresso.org", 
     in publications or presentations arising from this work. More details at
     http://www.quantum-espresso.org/quote

     Parallel version (MPI), running on    12 processors

     MPI processes distributed on     1 nodes
     K-points division:     npool     =       4
     R & G space division:  proc/nbgrp/npool/nimage =       3
     111175 MiB available memory on the printing compute node when the environment starts
 
     Waiting for input...
     Reading input from standard input

     Current dimensions of program PWSCF are:
     Max number of different atomic species (ntypx) = 10
     Max number of k-points (npk) =  40000
     Max angular momentum in pseudopotentials (lmaxx) =  4
     file Au.UPF: wavefunction(s)  6S 5D renormalized
     Found identity + ( -0.5000 -0.5000  0.0000) symmetry
     This is a supercell, fractional translations are disabled

     Subspace diagonalization in iterative solution of the eigenvalue problem:
     a serial algorithm will be used

 
     Parallelization info
     --------------------
     sticks:   dense  smooth     PW     G-vecs:    dense   smooth      PW
     Min         367     367    110                 9203     9203    1485
     Max         367     367    112                 9203     9203    1486
     Sum        1101    1101    333                27609    27609    4457
 
     Using Slab Decomposition
 


     bravais-lattice index     =            0
     lattice parameter (alat)  =       7.6000  a.u.
     unit-cell volume          =     438.9760 (a.u.)^3
     number of atoms/cell      =            4
     number of atomic types    =            1
     number of electrons       =        44.00
     number of Kohn-Sham states=           26
     kinetic-energy cutoff     =      60.0000  Ry
     charge density cutoff     =     240.0000  Ry
     scf convergence threshold =      1.0E-09
     mixing beta               =       0.7000
     number of iterations used =            8  plain     mixing
     Exchange-correlation= SLA  PW   PBX  PBC
                           (   1   4   3   4   0   0   0)

     celldm(1)=   7.600000  celldm(2)=   0.000000  celldm(3)=   0.000000
     celldm(4)=   0.000000  celldm(5)=   0.000000  celldm(6)=   0.000000

     crystal axes: (cart. coord. in units of alat)
               a(1) = (   1.000000   0.000000   0.000000 )  
               a(2) = (   0.000000   1.000000   0.000000 )  
               a(3) = (   0.000000   0.000000   1.000000 )  

     reciprocal axes: (cart. coord. in units 2 pi/alat)
               b(1) = (  1.000000  0.000000  0.000000 )  
               b(2) = (  0.000000  1.000000  0.000000 )  
               b(3) = (  0.000000  0.000000  1.000000 )  


     PseudoPot. # 1 for Au read from file:
     ./Au.UPF
     MD5 check sum: 4db85c736373c707a97ce4c36c2a9d23
     Pseudo is Projector augmented-wave + core cor, Zval = 11.0
     Generated using &quot;atomic&quot; code by A. Dal Corso  v.6.3
     Shape of augmentation charge: PSQ
     Using radial grid of 1279 points,  6 beta functions with: 
                l(1) =   0
                l(2) =   0
                l(3) =   1
                l(4) =   1
                l(5) =   2
                l(6) =   2
     Q(r) pseudized with 0 coefficients 


     atomic species   valence    mass     pseudopotential
        Au            11.00   196.96657     Au( 1.00)

     No symmetry found



   Cartesian axes

     site n.     atom                  positions (alat units)
         1           Au  tau(   1) = (   0.0000000   0.0000000   0.0000000  )
         2           Au  tau(   2) = (   0.5000000   0.5000000   0.0000000  )
         3           Au  tau(   3) = (   0.5000000   0.0000000   0.5000000  )
         4           Au  tau(   4) = (   0.0000000   0.5000000   0.5000000  )

     number of k points=   868  Gaussian smearing, width (Ry)=  0.0200

     Number of k-points >= 100: set verbosity='high' to print them.

     Dense  grid:    27609 G-vectors     FFT dimensions: (  40,  40,  40)

     Estimated max dynamical RAM per process >     114.26 MB

     Estimated total dynamical RAM >       1.32 GB

     Initial potential from superposition of free atoms

     starting charge      43.9996, renormalised to      44.0000
     Starting wfcs are   36 randomized atomic wfcs
     Checking if some PAW data can be deallocated... 

     total cpu time spent up to now is        4.4 secs

     Self-consistent Calculation

     iteration #  1     ecut=    60.00 Ry     beta= 0.70
     Davidson diagonalization with overlap
     ethr =  1.00E-02,  avg # of iterations =  2.6

     Threshold (ethr) on eigenvalues was too large:
     Diagonalizing with lowered threshold

     Davidson diagonalization with overlap
     ethr =  2.49E-04,  avg # of iterations =  5.1

     total cpu time spent up to now is       27.4 secs

     total energy              =   -3100.46872945 Ry
     estimated scf accuracy    <       0.18146665 Ry

     iteration #  2     ecut=    60.00 Ry     beta= 0.70
     Davidson diagonalization with overlap
     ethr =  4.12E-04,  avg # of iterations =  2.5

     total cpu time spent up to now is       37.7 secs

     total energy              =   -3100.52506777 Ry
     estimated scf accuracy    <       0.01501415 Ry

     iteration #  3     ecut=    60.00 Ry     beta= 0.70
     Davidson diagonalization with overlap
     ethr =  3.41E-05,  avg # of iterations =  4.4

     total cpu time spent up to now is       49.4 secs

     total energy              =   -3100.52894427 Ry
     estimated scf accuracy    <       0.00163023 Ry

     iteration #  4     ecut=    60.00 Ry     beta= 0.70
     Davidson diagonalization with overlap
     c_bands:  1 eigenvalues not converged
     c_bands:  1 eigenvalues not converged
     ethr =  3.71E-06,  avg # of iterations =  5.6

     total cpu time spent up to now is       63.7 secs

     total energy              =   -3100.52996765 Ry
     estimated scf accuracy    <       0.00137927 Ry

     iteration #  5     ecut=    60.00 Ry     beta= 0.70
     Davidson diagonalization with overlap
     ethr =  3.13E-06,  avg # of iterations =  2.0

     total cpu time spent up to now is       72.1 secs

     total energy              =   -3100.52976154 Ry
     estimated scf accuracy    <       0.00066080 Ry

     iteration #  6     ecut=    60.00 Ry     beta= 0.70
     Davidson diagonalization with overlap
     ethr =  1.50E-06,  avg # of iterations =  3.7

     total cpu time spent up to now is       83.3 secs

     total energy              =   -3100.53001375 Ry
     estimated scf accuracy    <       0.00001896 Ry

     iteration #  7     ecut=    60.00 Ry     beta= 0.70
     Davidson diagonalization with overlap
     ethr =  4.31E-08,  avg # of iterations =  7.0

     total cpu time spent up to now is      103.5 secs

     total energy              =   -3100.53003591 Ry
     estimated scf accuracy    <       0.00003820 Ry

     iteration #  8     ecut=    60.00 Ry     beta= 0.70
     Davidson diagonalization with overlap
     ethr =  4.31E-08,  avg # of iterations =  1.1

     total cpu time spent up to now is      111.0 secs

     total energy              =   -3100.53002586 Ry
     estimated scf accuracy    <       0.00001976 Ry

     iteration #  9     ecut=    60.00 Ry     beta= 0.70
     Davidson diagonalization with overlap
     ethr =  4.31E-08,  avg # of iterations =  2.0

     total cpu time spent up to now is      120.0 secs

     total energy              =   -3100.53002818 Ry
     estimated scf accuracy    <       0.00000118 Ry

     iteration # 10     ecut=    60.00 Ry     beta= 0.70
     Davidson diagonalization with overlap
     ethr =  2.68E-09,  avg # of iterations =  7.7

     total cpu time spent up to now is      140.5 secs

     total energy              =   -3100.53003014 Ry
     estimated scf accuracy    <       0.00000349 Ry

     iteration # 11     ecut=    60.00 Ry     beta= 0.70
     Davidson diagonalization with overlap
     ethr =  2.68E-09,  avg # of iterations =  2.0

     total cpu time spent up to now is      148.9 secs

     total energy              =   -3100.53002941 Ry
     estimated scf accuracy    <       0.00000118 Ry

     iteration # 12     ecut=    60.00 Ry     beta= 0.70
     Davidson diagonalization with overlap
     ethr =  2.67E-09,  avg # of iterations =  3.6

     total cpu time spent up to now is      159.9 secs

     total energy              =   -3100.53002990 Ry
     estimated scf accuracy    <       0.00000002 Ry

     iteration # 13     ecut=    60.00 Ry     beta= 0.70
     Davidson diagonalization with overlap
     ethr =  5.57E-11,  avg # of iterations =  9.7

     total cpu time spent up to now is      186.0 secs

     total energy              =   -3100.53002982 Ry
     estimated scf accuracy    <       0.00000041 Ry

     iteration # 14     ecut=    60.00 Ry     beta= 0.70
     Davidson diagonalization with overlap
     ethr =  5.57E-11,  avg # of iterations =  6.1

     total cpu time spent up to now is      202.7 secs

     total energy              =   -3100.53002989 Ry
     estimated scf accuracy    <          4.6E-09 Ry

     iteration # 15     ecut=    60.00 Ry     beta= 0.70
     Davidson diagonalization with overlap
     ethr =  1.05E-11,  avg # of iterations =  6.2

     total cpu time spent up to now is      221.5 secs

     total energy              =   -3100.53002989 Ry
     estimated scf accuracy    <          1.8E-09 Ry

     iteration # 16     ecut=    60.00 Ry     beta= 0.70
     Davidson diagonalization with overlap
     ethr =  4.05E-12,  avg # of iterations =  2.0

     total cpu time spent up to now is      230.3 secs

     End of self-consistent calculation

     Number of k-points >= 100: set verbosity='high' to print the bands.

     the Fermi energy is    17.0162 ev

!    total energy              =   -3100.53002989 Ry

     total all-electron energy =   -152095.914394 Ry
     estimated scf accuracy    <          1.2E-10 Ry
     smearing contrib. (-TS)   =      -0.00275703 Ry
     internal energy E=F+TS    =   -3100.52727286 Ry

     The total energy is F=E-TS. E is the sum of the following terms:
     one-electron contribution =      61.21608963 Ry
     hartree contribution      =      29.00718030 Ry
     xc contribution           =    -128.63707931 Ry
     ewald contribution        =    -291.98332159 Ry
     one-center paw contrib.   =   -2770.13014189 Ry

     convergence has been achieved in  16 iterations

     Forces acting on atoms (cartesian axes, Ry/au):

     atom    1 type  1   force =     0.00000002    0.00000008   -0.00000006
     atom    2 type  1   force =    -0.00000004   -0.00000008   -0.00000004
     atom    3 type  1   force =    -0.00000006   -0.00000009    0.00000002
     atom    4 type  1   force =     0.00000008    0.00000008    0.00000008

     Total force =     0.000000     Total SCF correction =     0.000001
     SCF correction compared to forces is large: reduce conv_thr to get better values


     Computing stress (Cartesian axis) and pressure

          total   stress  (Ry/bohr**3)                   (kbar)     P=      197.42
   0.00134202   0.00000000  -0.00000000          197.42        0.00       -0.00
   0.00000000   0.00134202  -0.00000000            0.00      197.42       -0.00
  -0.00000000  -0.00000000   0.00134202           -0.00       -0.00      197.42


     Writing all to output data dir ./gold.save/
 
     init_run     :      3.86s CPU      3.99s WALL (       1 calls)
     electrons    :    223.41s CPU    225.96s WALL (       1 calls)
     forces       :      0.67s CPU      0.69s WALL (       1 calls)
     stress       :      2.33s CPU      2.34s WALL (       1 calls)

     Called by init_run:
     wfcinit      :      3.52s CPU      3.61s WALL (       1 calls)
     potinit      :      0.07s CPU      0.09s WALL (       1 calls)
     hinit0       :      0.08s CPU      0.09s WALL (       1 calls)

     Called by electrons:
     c_bands      :    202.29s CPU    204.54s WALL (      17 calls)
     sum_band     :     20.23s CPU     20.47s WALL (      17 calls)
     v_of_rho     :      0.12s CPU      0.18s WALL (      17 calls)
     newd         :      0.05s CPU      0.07s WALL (      17 calls)
     PAW_pot      :      0.75s CPU      0.75s WALL (      17 calls)
     mix_rho      :      0.02s CPU      0.02s WALL (      17 calls)

     Called by c_bands:
     init_us_2    :      1.99s CPU      2.01s WALL (    8029 calls)
     init_us_2:cp :      1.98s CPU      2.00s WALL (    8029 calls)
     cegterg      :    171.79s CPU    173.78s WALL (    3689 calls)

     Called by *egterg:
     cdiaghg      :     12.15s CPU     12.23s WALL (   19514 calls)
     h_psi        :    127.50s CPU    129.27s WALL (   19948 calls)
     s_psi        :      7.10s CPU      7.16s WALL (   19948 calls)
     g_psi        :      0.89s CPU      0.90s WALL (   16042 calls)

     Called by h_psi:
     h_psi:calbec :      7.91s CPU      8.01s WALL (   19948 calls)
     vloc_psi     :    111.56s CPU    113.16s WALL (   19948 calls)
     add_vuspsi   :      7.52s CPU      7.60s WALL (   19948 calls)

     General routines
     calbec       :     10.26s CPU     10.39s WALL (   24722 calls)
     fft          :      0.09s CPU      0.19s WALL (     213 calls)
     ffts         :      0.01s CPU      0.01s WALL (      17 calls)
     fftw         :    117.14s CPU    118.78s WALL (  814774 calls)
 
     Parallel routines
 
     PWSCF        :   3m51.24s CPU   3m54.61s WALL

 
   This run was terminated on:  19:48:47  15Nov2023            

=------------------------------------------------------------------------------=
   JOB DONE.
=------------------------------------------------------------------------------=
