MPI startup(): Warning: I_MPI_PMI_LIBRARY will be ignored since the hydra process manager was found
MPI startup(): Warning: I_MPI_PMI_LIBRARY will be ignored since the hydra process manager was found
MPI startup(): Warning: I_MPI_PMI_LIBRARY will be ignored since the hydra process manager was found
MPI startup(): Warning: I_MPI_PMI_LIBRARY will be ignored since the hydra process manager was found
MPI startup(): Warning: I_MPI_PMI_LIBRARY will be ignored since the hydra process manager was found
MPI startup(): Warning: I_MPI_PMI_LIBRARY will be ignored since the hydra process manager was found
MPI startup(): Warning: I_MPI_PMI_LIBRARY will be ignored since the hydra process manager was found
MPI startup(): Warning: I_MPI_PMI_LIBRARY will be ignored since the hydra process manager was found
MPI startup(): Warning: I_MPI_PMI_LIBRARY will be ignored since the hydra process manager was found
MPI startup(): Warning: I_MPI_PMI_LIBRARY will be ignored since the hydra process manager was found
MPI startup(): Warning: I_MPI_PMI_LIBRARY will be ignored since the hydra process manager was found
MPI startup(): Warning: I_MPI_PMI_LIBRARY will be ignored since the hydra process manager was found

     Program PWSCF v.7.0 starts on 15Nov2023 at 20: 0:54 

     This program is part of the open-source Quantum ESPRESSO suite
     for quantum simulation of materials; please cite
         "P. Giannozzi et al., J. Phys.:Condens. Matter 21 395502 (2009);
         "P. Giannozzi et al., J. Phys.:Condens. Matter 29 465901 (2017);
         "P. Giannozzi et al., J. Chem. Phys. 152 154105 (2020);
          URL http://www.quantum-espresso.org", 
     in publications or presentations arising from this work. More details at
     http://www.quantum-espresso.org/quote

     Parallel version (MPI), running on    12 processors

     MPI processes distributed on     1 nodes
     K-points division:     npool     =       4
     R & G space division:  proc/nbgrp/npool/nimage =       3
     110754 MiB available memory on the printing compute node when the environment starts
 
     Waiting for input...
     Reading input from standard input

     Current dimensions of program PWSCF are:
     Max number of different atomic species (ntypx) = 10
     Max number of k-points (npk) =  40000
     Max angular momentum in pseudopotentials (lmaxx) =  4
     file Au.UPF: wavefunction(s)  6S 5D renormalized
     Found identity + ( -0.5000 -0.5000  0.0000) symmetry
     This is a supercell, fractional translations are disabled

     Subspace diagonalization in iterative solution of the eigenvalue problem:
     a serial algorithm will be used

 
     Parallelization info
     --------------------
     sticks:   dense  smooth     PW     G-vecs:    dense   smooth      PW
     Min         408     408    119                10743    10743    1727
     Max         409     409    119                10744    10744    1729
     Sum        1225    1225    357                32231    32231    5185
 
     Using Slab Decomposition
 


     bravais-lattice index     =            0
     lattice parameter (alat)  =       8.0000  a.u.
     unit-cell volume          =     512.0000 (a.u.)^3
     number of atoms/cell      =            4
     number of atomic types    =            1
     number of electrons       =        44.00
     number of Kohn-Sham states=           26
     kinetic-energy cutoff     =      60.0000  Ry
     charge density cutoff     =     240.0000  Ry
     scf convergence threshold =      1.0E-09
     mixing beta               =       0.7000
     number of iterations used =            8  plain     mixing
     Exchange-correlation= SLA  PW   PBX  PBC
                           (   1   4   3   4   0   0   0)

     celldm(1)=   8.000000  celldm(2)=   0.000000  celldm(3)=   0.000000
     celldm(4)=   0.000000  celldm(5)=   0.000000  celldm(6)=   0.000000

     crystal axes: (cart. coord. in units of alat)
               a(1) = (   1.000000   0.000000   0.000000 )  
               a(2) = (   0.000000   1.000000   0.000000 )  
               a(3) = (   0.000000   0.000000   1.000000 )  

     reciprocal axes: (cart. coord. in units 2 pi/alat)
               b(1) = (  1.000000  0.000000  0.000000 )  
               b(2) = (  0.000000  1.000000  0.000000 )  
               b(3) = (  0.000000  0.000000  1.000000 )  


     PseudoPot. # 1 for Au read from file:
     ./Au.UPF
     MD5 check sum: 4db85c736373c707a97ce4c36c2a9d23
     Pseudo is Projector augmented-wave + core cor, Zval = 11.0
     Generated using &quot;atomic&quot; code by A. Dal Corso  v.6.3
     Shape of augmentation charge: PSQ
     Using radial grid of 1279 points,  6 beta functions with: 
                l(1) =   0
                l(2) =   0
                l(3) =   1
                l(4) =   1
                l(5) =   2
                l(6) =   2
     Q(r) pseudized with 0 coefficients 


     atomic species   valence    mass     pseudopotential
        Au            11.00   196.96657     Au( 1.00)

     No symmetry found



   Cartesian axes

     site n.     atom                  positions (alat units)
         1           Au  tau(   1) = (   0.0000000   0.0000000   0.0000000  )
         2           Au  tau(   2) = (   0.5000000   0.5000000   0.0000000  )
         3           Au  tau(   3) = (   0.5000000   0.0000000   0.5000000  )
         4           Au  tau(   4) = (   0.0000000   0.5000000   0.5000000  )

     number of k points=   868  Gaussian smearing, width (Ry)=  0.0200

     Number of k-points >= 100: set verbosity='high' to print them.

     Dense  grid:    32231 G-vectors     FFT dimensions: (  40,  40,  40)

     Estimated max dynamical RAM per process >     132.83 MB

     Estimated total dynamical RAM >       1.53 GB

     Initial potential from superposition of free atoms

     starting charge      43.9996, renormalised to      44.0000
     Starting wfcs are   36 randomized atomic wfcs
     Checking if some PAW data can be deallocated... 

     total cpu time spent up to now is        4.6 secs

     Self-consistent Calculation

     iteration #  1     ecut=    60.00 Ry     beta= 0.70
     Davidson diagonalization with overlap
     ethr =  1.00E-02,  avg # of iterations =  3.0

     Threshold (ethr) on eigenvalues was too large:
     Diagonalizing with lowered threshold

     Davidson diagonalization with overlap
     ethr =  2.96E-04,  avg # of iterations =  4.3

     total cpu time spent up to now is       26.9 secs

     total energy              =   -3100.48634278 Ry
     estimated scf accuracy    <       0.18473141 Ry

     iteration #  2     ecut=    60.00 Ry     beta= 0.70
     Davidson diagonalization with overlap
     ethr =  4.20E-04,  avg # of iterations =  3.1

     total cpu time spent up to now is       38.4 secs

     total energy              =   -3100.54765472 Ry
     estimated scf accuracy    <       0.02233913 Ry

     iteration #  3     ecut=    60.00 Ry     beta= 0.70
     Davidson diagonalization with overlap
     ethr =  5.08E-05,  avg # of iterations =  4.2

     total cpu time spent up to now is       50.1 secs

     total energy              =   -3100.55195944 Ry
     estimated scf accuracy    <       0.00169281 Ry

     iteration #  4     ecut=    60.00 Ry     beta= 0.70
     Davidson diagonalization with overlap
     c_bands:  1 eigenvalues not converged
     c_bands:  1 eigenvalues not converged
     ethr =  3.85E-06,  avg # of iterations =  5.8

     total cpu time spent up to now is       66.5 secs

     total energy              =   -3100.55344628 Ry
     estimated scf accuracy    <       0.00174295 Ry

     iteration #  5     ecut=    60.00 Ry     beta= 0.70
     Davidson diagonalization with overlap
     ethr =  3.85E-06,  avg # of iterations =  1.9

     total cpu time spent up to now is       75.2 secs

     total energy              =   -3100.55297942 Ry
     estimated scf accuracy    <       0.00103617 Ry

     iteration #  6     ecut=    60.00 Ry     beta= 0.70
     Davidson diagonalization with overlap
     ethr =  2.35E-06,  avg # of iterations =  3.0

     total cpu time spent up to now is       86.7 secs

     total energy              =   -3100.55333673 Ry
     estimated scf accuracy    <       0.00002108 Ry

     iteration #  7     ecut=    60.00 Ry     beta= 0.70
     Davidson diagonalization with overlap
     ethr =  4.79E-08,  avg # of iterations =  7.6

     total cpu time spent up to now is      109.4 secs

     total energy              =   -3100.55337428 Ry
     estimated scf accuracy    <       0.00006206 Ry

     iteration #  8     ecut=    60.00 Ry     beta= 0.70
     Davidson diagonalization with overlap
     ethr =  4.79E-08,  avg # of iterations =  1.0

     total cpu time spent up to now is      117.3 secs

     total energy              =   -3100.55335624 Ry
     estimated scf accuracy    <       0.00004309 Ry

     iteration #  9     ecut=    60.00 Ry     beta= 0.70
     Davidson diagonalization with overlap
     ethr =  4.79E-08,  avg # of iterations =  2.0

     total cpu time spent up to now is      127.1 secs

     total energy              =   -3100.55335366 Ry
     estimated scf accuracy    <       0.00000772 Ry

     iteration # 10     ecut=    60.00 Ry     beta= 0.70
     Davidson diagonalization with overlap
     ethr =  1.75E-08,  avg # of iterations =  5.0

     total cpu time spent up to now is      142.6 secs

     total energy              =   -3100.55336223 Ry
     estimated scf accuracy    <       0.00000774 Ry

     iteration # 11     ecut=    60.00 Ry     beta= 0.70
     Davidson diagonalization with overlap
     ethr =  1.75E-08,  avg # of iterations =  1.1

     total cpu time spent up to now is      150.5 secs

     total energy              =   -3100.55336038 Ry
     estimated scf accuracy    <       0.00000668 Ry

     iteration # 12     ecut=    60.00 Ry     beta= 0.70
     Davidson diagonalization with overlap
     ethr =  1.52E-08,  avg # of iterations =  1.0

     total cpu time spent up to now is      158.3 secs

     total energy              =   -3100.55335834 Ry
     estimated scf accuracy    <       0.00000335 Ry

     iteration # 13     ecut=    60.00 Ry     beta= 0.70
     Davidson diagonalization with overlap
     ethr =  7.61E-09,  avg # of iterations =  2.1

     total cpu time spent up to now is      168.6 secs

     total energy              =   -3100.55335919 Ry
     estimated scf accuracy    <          5.6E-09 Ry

     iteration # 14     ecut=    60.00 Ry     beta= 0.70
     Davidson diagonalization with overlap
     ethr =  1.28E-11,  avg # of iterations = 13.5

     total cpu time spent up to now is      206.8 secs

     total energy              =   -3100.55335929 Ry
     estimated scf accuracy    <       0.00000003 Ry

     iteration # 15     ecut=    60.00 Ry     beta= 0.70
     Davidson diagonalization with overlap
     ethr =  1.28E-11,  avg # of iterations =  2.1

     total cpu time spent up to now is      217.4 secs

     total energy              =   -3100.55335929 Ry
     estimated scf accuracy    <          4.5E-09 Ry

     iteration # 16     ecut=    60.00 Ry     beta= 0.70
     Davidson diagonalization with overlap
     ethr =  1.03E-11,  avg # of iterations =  4.9

     total cpu time spent up to now is      231.8 secs

     total energy              =   -3100.55335929 Ry
     estimated scf accuracy    <          2.0E-09 Ry

     iteration # 17     ecut=    60.00 Ry     beta= 0.70
     Davidson diagonalization with overlap
     ethr =  4.64E-12,  avg # of iterations =  2.0

     total cpu time spent up to now is      240.7 secs

     total energy              =   -3100.55335929 Ry
     estimated scf accuracy    <          1.5E-09 Ry

     iteration # 18     ecut=    60.00 Ry     beta= 0.70
     Davidson diagonalization with overlap
     ethr =  3.52E-12,  avg # of iterations =  2.0

     total cpu time spent up to now is      249.5 secs

     End of self-consistent calculation

     Number of k-points >= 100: set verbosity='high' to print the bands.

     the Fermi energy is    13.5727 ev

!    total energy              =   -3100.55335929 Ry

     total all-electron energy =   -152095.937723 Ry
     estimated scf accuracy    <          1.3E-10 Ry
     smearing contrib. (-TS)   =      -0.00313717 Ry
     internal energy E=F+TS    =   -3100.55022212 Ry

     The total energy is F=E-TS. E is the sum of the following terms:
     one-electron contribution =      40.43269157 Ry
     hartree contribution      =      34.57648138 Ry
     xc contribution           =    -128.14514838 Ry
     ewald contribution        =    -277.38415551 Ry
     one-center paw contrib.   =   -2770.03009118 Ry

     convergence has been achieved in  18 iterations

     Forces acting on atoms (cartesian axes, Ry/au):

     atom    1 type  1   force =     0.00000004   -0.00000027    0.00000000
     atom    2 type  1   force =    -0.00000001    0.00000028   -0.00000004
     atom    3 type  1   force =    -0.00000013   -0.00000034    0.00000003
     atom    4 type  1   force =     0.00000010    0.00000032    0.00000001

     Total force =     0.000001     Total SCF correction =     0.000000
     SCF correction compared to forces is large: reduce conv_thr to get better values


     Computing stress (Cartesian axis) and pressure

          total   stress  (Ry/bohr**3)                   (kbar)     P=      -59.73
  -0.00040601   0.00000000   0.00000000          -59.73        0.00        0.00
   0.00000000  -0.00040601   0.00000000            0.00      -59.73        0.00
   0.00000000   0.00000000  -0.00040601            0.00        0.00      -59.73


     Writing all to output data dir ./gold.save/
 
     init_run     :      4.04s CPU      4.19s WALL (       1 calls)
     electrons    :    242.22s CPU    244.97s WALL (       1 calls)
     forces       :      0.75s CPU      0.77s WALL (       1 calls)
     stress       :      2.71s CPU      2.72s WALL (       1 calls)

     Called by init_run:
     wfcinit      :      3.71s CPU      3.82s WALL (       1 calls)
     potinit      :      0.07s CPU      0.09s WALL (       1 calls)
     hinit0       :      0.08s CPU      0.09s WALL (       1 calls)

     Called by electrons:
     c_bands      :    217.64s CPU    220.05s WALL (      19 calls)
     sum_band     :     23.56s CPU     23.85s WALL (      19 calls)
     v_of_rho     :      0.12s CPU      0.16s WALL (      19 calls)
     newd         :      0.07s CPU      0.09s WALL (      19 calls)
     PAW_pot      :      0.85s CPU      0.86s WALL (      19 calls)
     mix_rho      :      0.03s CPU      0.03s WALL (      19 calls)

     Called by c_bands:
     init_us_2    :      2.62s CPU      2.65s WALL (    8897 calls)
     init_us_2:cp :      2.61s CPU      2.64s WALL (    8897 calls)
     cegterg      :    184.81s CPU    186.92s WALL (    4123 calls)

     Called by *egterg:
     cdiaghg      :     11.99s CPU     12.06s WALL (   19233 calls)
     h_psi        :    135.24s CPU    137.15s WALL (   19667 calls)
     s_psi        :      9.22s CPU      9.30s WALL (   19667 calls)
     g_psi        :      1.02s CPU      1.02s WALL (   15327 calls)

     Called by h_psi:
     h_psi:calbec :      9.49s CPU      9.59s WALL (   19667 calls)
     vloc_psi     :    115.54s CPU    117.25s WALL (   19667 calls)
     add_vuspsi   :      9.53s CPU      9.61s WALL (   19667 calls)

     General routines
     calbec       :     12.46s CPU     12.61s WALL (   24875 calls)
     fft          :      0.06s CPU      0.14s WALL (     235 calls)
     ffts         :      0.01s CPU      0.01s WALL (      19 calls)
     fftw         :    122.37s CPU    124.13s WALL (  837544 calls)
 
     Parallel routines
 
     PWSCF        :   4m10.74s CPU   4m14.49s WALL

 
   This run was terminated on:  20: 5: 9  15Nov2023            

=------------------------------------------------------------------------------=
   JOB DONE.
=------------------------------------------------------------------------------=
