MPI startup(): Warning: I_MPI_PMI_LIBRARY will be ignored since the hydra process manager was found
MPI startup(): Warning: I_MPI_PMI_LIBRARY will be ignored since the hydra process manager was found
MPI startup(): Warning: I_MPI_PMI_LIBRARY will be ignored since the hydra process manager was found
MPI startup(): Warning: I_MPI_PMI_LIBRARY will be ignored since the hydra process manager was found
MPI startup(): Warning: I_MPI_PMI_LIBRARY will be ignored since the hydra process manager was found
MPI startup(): Warning: I_MPI_PMI_LIBRARY will be ignored since the hydra process manager was found
MPI startup(): Warning: I_MPI_PMI_LIBRARY will be ignored since the hydra process manager was found
MPI startup(): Warning: I_MPI_PMI_LIBRARY will be ignored since the hydra process manager was found
MPI startup(): Warning: I_MPI_PMI_LIBRARY will be ignored since the hydra process manager was found
MPI startup(): Warning: I_MPI_PMI_LIBRARY will be ignored since the hydra process manager was found
MPI startup(): Warning: I_MPI_PMI_LIBRARY will be ignored since the hydra process manager was found
MPI startup(): Warning: I_MPI_PMI_LIBRARY will be ignored since the hydra process manager was found

     Program PWSCF v.7.0 starts on 15Nov2023 at 19:29:40 

     This program is part of the open-source Quantum ESPRESSO suite
     for quantum simulation of materials; please cite
         "P. Giannozzi et al., J. Phys.:Condens. Matter 21 395502 (2009);
         "P. Giannozzi et al., J. Phys.:Condens. Matter 29 465901 (2017);
         "P. Giannozzi et al., J. Chem. Phys. 152 154105 (2020);
          URL http://www.quantum-espresso.org", 
     in publications or presentations arising from this work. More details at
     http://www.quantum-espresso.org/quote

     Parallel version (MPI), running on    12 processors

     MPI processes distributed on     1 nodes
     K-points division:     npool     =       4
     R & G space division:  proc/nbgrp/npool/nimage =       3
     111216 MiB available memory on the printing compute node when the environment starts
 
     Waiting for input...
     Reading input from standard input

     Current dimensions of program PWSCF are:
     Max number of different atomic species (ntypx) = 10
     Max number of k-points (npk) =  40000
     Max angular momentum in pseudopotentials (lmaxx) =  4
     file Au.UPF: wavefunction(s)  6S 5D renormalized
     Found identity + ( -0.5000 -0.5000  0.0000) symmetry
     This is a supercell, fractional translations are disabled

     Subspace diagonalization in iterative solution of the eigenvalue problem:
     a serial algorithm will be used

 
     Parallelization info
     --------------------
     sticks:   dense  smooth     PW     G-vecs:    dense   smooth      PW
     Min         323     323     97                 7525     7525    1247
     Max         325     325     98                 7525     7525    1248
     Sum         973     973    293                22575    22575    3743
 
     Using Slab Decomposition
 


     bravais-lattice index     =            0
     lattice parameter (alat)  =       7.1000  a.u.
     unit-cell volume          =     357.9110 (a.u.)^3
     number of atoms/cell      =            4
     number of atomic types    =            1
     number of electrons       =        44.00
     number of Kohn-Sham states=           26
     kinetic-energy cutoff     =      60.0000  Ry
     charge density cutoff     =     240.0000  Ry
     scf convergence threshold =      1.0E-09
     mixing beta               =       0.7000
     number of iterations used =            8  plain     mixing
     Exchange-correlation= SLA  PW   PBX  PBC
                           (   1   4   3   4   0   0   0)

     celldm(1)=   7.100000  celldm(2)=   0.000000  celldm(3)=   0.000000
     celldm(4)=   0.000000  celldm(5)=   0.000000  celldm(6)=   0.000000

     crystal axes: (cart. coord. in units of alat)
               a(1) = (   1.000000   0.000000   0.000000 )  
               a(2) = (   0.000000   1.000000   0.000000 )  
               a(3) = (   0.000000   0.000000   1.000000 )  

     reciprocal axes: (cart. coord. in units 2 pi/alat)
               b(1) = (  1.000000  0.000000  0.000000 )  
               b(2) = (  0.000000  1.000000  0.000000 )  
               b(3) = (  0.000000  0.000000  1.000000 )  


     PseudoPot. # 1 for Au read from file:
     ./Au.UPF
     MD5 check sum: 4db85c736373c707a97ce4c36c2a9d23
     Pseudo is Projector augmented-wave + core cor, Zval = 11.0
     Generated using &quot;atomic&quot; code by A. Dal Corso  v.6.3
     Shape of augmentation charge: PSQ
     Using radial grid of 1279 points,  6 beta functions with: 
                l(1) =   0
                l(2) =   0
                l(3) =   1
                l(4) =   1
                l(5) =   2
                l(6) =   2
     Q(r) pseudized with 0 coefficients 


     atomic species   valence    mass     pseudopotential
        Au            11.00   196.96657     Au( 1.00)

     No symmetry found



   Cartesian axes

     site n.     atom                  positions (alat units)
         1           Au  tau(   1) = (   0.0000000   0.0000000   0.0000000  )
         2           Au  tau(   2) = (   0.5000000   0.5000000   0.0000000  )
         3           Au  tau(   3) = (   0.5000000   0.0000000   0.5000000  )
         4           Au  tau(   4) = (   0.0000000   0.5000000   0.5000000  )

     number of k points=   868  Gaussian smearing, width (Ry)=  0.0200

     Number of k-points >= 100: set verbosity='high' to print them.

     Dense  grid:    22575 G-vectors     FFT dimensions: (  36,  36,  36)

     Estimated max dynamical RAM per process >      93.23 MB

     Estimated total dynamical RAM >       1.08 GB

     Initial potential from superposition of free atoms

     starting charge      43.9996, renormalised to      44.0000
     Starting wfcs are   36 randomized atomic wfcs
     Checking if some PAW data can be deallocated... 

     total cpu time spent up to now is        3.6 secs

     Self-consistent Calculation

     iteration #  1     ecut=    60.00 Ry     beta= 0.70
     Davidson diagonalization with overlap
     ethr =  1.00E-02,  avg # of iterations =  3.5

     Threshold (ethr) on eigenvalues was too large:
     Diagonalizing with lowered threshold

     Davidson diagonalization with overlap
     ethr =  1.56E-04,  avg # of iterations =  7.1

     total cpu time spent up to now is       26.1 secs

     total energy              =   -3100.19071752 Ry
     estimated scf accuracy    <       0.13596188 Ry

     iteration #  2     ecut=    60.00 Ry     beta= 0.70
     Davidson diagonalization with overlap
     ethr =  3.09E-04,  avg # of iterations =  2.0

     total cpu time spent up to now is       33.6 secs

     total energy              =   -3100.22570512 Ry
     estimated scf accuracy    <       0.00568674 Ry

     iteration #  3     ecut=    60.00 Ry     beta= 0.70
     Davidson diagonalization with overlap
     c_bands:  1 eigenvalues not converged
     ethr =  1.29E-05,  avg # of iterations =  5.4

     total cpu time spent up to now is       45.0 secs

     total energy              =   -3100.22828129 Ry
     estimated scf accuracy    <       0.00145962 Ry

     iteration #  4     ecut=    60.00 Ry     beta= 0.70
     Davidson diagonalization with overlap
     c_bands:  1 eigenvalues not converged
     ethr =  3.32E-06,  avg # of iterations =  3.7

     total cpu time spent up to now is       54.1 secs

     total energy              =   -3100.22869785 Ry
     estimated scf accuracy    <       0.00122945 Ry

     iteration #  5     ecut=    60.00 Ry     beta= 0.70
     Davidson diagonalization with overlap
     c_bands:  1 eigenvalues not converged
     ethr =  2.79E-06,  avg # of iterations =  1.9

     total cpu time spent up to now is       60.5 secs

     total energy              =   -3100.22869054 Ry
     estimated scf accuracy    <       0.00030339 Ry

     iteration #  6     ecut=    60.00 Ry     beta= 0.70
     Davidson diagonalization with overlap
     ethr =  6.90E-07,  avg # of iterations =  4.3

     total cpu time spent up to now is       70.1 secs

     total energy              =   -3100.22881818 Ry
     estimated scf accuracy    <       0.00000427 Ry

     iteration #  7     ecut=    60.00 Ry     beta= 0.70
     Davidson diagonalization with overlap
     ethr =  9.71E-09,  avg # of iterations =  9.0

     total cpu time spent up to now is       91.4 secs

     total energy              =   -3100.22883415 Ry
     estimated scf accuracy    <       0.00000954 Ry

     iteration #  8     ecut=    60.00 Ry     beta= 0.70
     Davidson diagonalization with overlap
     ethr =  9.71E-09,  avg # of iterations =  1.0

     total cpu time spent up to now is       97.3 secs

     total energy              =   -3100.22883152 Ry
     estimated scf accuracy    <       0.00000516 Ry

     iteration #  9     ecut=    60.00 Ry     beta= 0.70
     Davidson diagonalization with overlap
     ethr =  9.71E-09,  avg # of iterations =  2.0

     total cpu time spent up to now is      104.6 secs

     total energy              =   -3100.22883198 Ry
     estimated scf accuracy    <       0.00000043 Ry

     iteration # 10     ecut=    60.00 Ry     beta= 0.70
     Davidson diagonalization with overlap
     ethr =  9.86E-10,  avg # of iterations =  6.3

     total cpu time spent up to now is      118.1 secs

     total energy              =   -3100.22883244 Ry
     estimated scf accuracy    <       0.00000019 Ry

     iteration # 11     ecut=    60.00 Ry     beta= 0.70
     Davidson diagonalization with overlap
     ethr =  4.42E-10,  avg # of iterations =  1.8

     total cpu time spent up to now is      124.8 secs

     total energy              =   -3100.22883243 Ry
     estimated scf accuracy    <       0.00000004 Ry

     iteration # 12     ecut=    60.00 Ry     beta= 0.70
     Davidson diagonalization with overlap
     ethr =  8.14E-11,  avg # of iterations =  3.6

     total cpu time spent up to now is      133.8 secs

     End of self-consistent calculation

     Number of k-points >= 100: set verbosity='high' to print the bands.

     the Fermi energy is    22.6773 ev

!    total energy              =   -3100.22883244 Ry

     total all-electron energy =   -152095.613197 Ry
     estimated scf accuracy    <          2.4E-10 Ry
     smearing contrib. (-TS)   =      -0.00256815 Ry
     internal energy E=F+TS    =   -3100.22626429 Ry

     The total energy is F=E-TS. E is the sum of the following terms:
     one-electron contribution =      89.80344453 Ry
     hartree contribution      =      22.52207962 Ry
     xc contribution           =    -129.63469537 Ry
     ewald contribution        =    -312.54552733 Ry
     one-center paw contrib.   =   -2770.37156575 Ry

     convergence has been achieved in  12 iterations

     Forces acting on atoms (cartesian axes, Ry/au):

     atom    1 type  1   force =     0.00000038   -0.00000028   -0.00000145
     atom    2 type  1   force =     0.00000029    0.00000022   -0.00000129
     atom    3 type  1   force =     0.00000019   -0.00000027    0.00000163
     atom    4 type  1   force =    -0.00000086    0.00000032    0.00000110

     Total force =     0.000003     Total SCF correction =     0.000009
     SCF correction compared to forces is large: reduce conv_thr to get better values


     Computing stress (Cartesian axis) and pressure

          total   stress  (Ry/bohr**3)                   (kbar)     P=     1057.39
   0.00718802   0.00000000  -0.00000000         1057.39        0.00       -0.00
   0.00000000   0.00718802  -0.00000000            0.00     1057.39       -0.00
  -0.00000000  -0.00000000   0.00718802           -0.00       -0.00     1057.39


     Writing all to output data dir ./gold.save/
 
     init_run     :      3.06s CPU      3.18s WALL (       1 calls)
     electrons    :    128.63s CPU    130.22s WALL (       1 calls)
     forces       :      0.57s CPU      0.59s WALL (       1 calls)
     stress       :      1.90s CPU      1.91s WALL (       1 calls)

     Called by init_run:
     wfcinit      :      2.77s CPU      2.85s WALL (       1 calls)
     potinit      :      0.06s CPU      0.08s WALL (       1 calls)
     hinit0       :      0.08s CPU      0.09s WALL (       1 calls)

     Called by electrons:
     c_bands      :    115.94s CPU    117.32s WALL (      13 calls)
     sum_band     :     11.92s CPU     12.09s WALL (      13 calls)
     v_of_rho     :      0.07s CPU      0.10s WALL (      13 calls)
     newd         :      0.11s CPU      0.12s WALL (      13 calls)
     PAW_pot      :      0.63s CPU      0.64s WALL (      13 calls)
     mix_rho      :      0.01s CPU      0.01s WALL (      13 calls)

     Called by c_bands:
     init_us_2    :      1.28s CPU      1.30s WALL (    6293 calls)
     init_us_2:cp :      1.27s CPU      1.29s WALL (    6293 calls)
     cegterg      :     97.68s CPU     98.88s WALL (    2821 calls)

     Called by *egterg:
     cdiaghg      :      8.63s CPU      8.70s WALL (   14158 calls)
     h_psi        :     70.96s CPU     72.02s WALL (   14592 calls)
     s_psi        :      4.49s CPU      4.53s WALL (   14592 calls)
     g_psi        :      0.51s CPU      0.52s WALL (   11554 calls)

     Called by h_psi:
     h_psi:calbec :      4.78s CPU      4.84s WALL (   14592 calls)
     vloc_psi     :     61.32s CPU     62.26s WALL (   14592 calls)
     add_vuspsi   :      4.55s CPU      4.61s WALL (   14592 calls)

     General routines
     calbec       :      6.44s CPU      6.52s WALL (   18498 calls)
     fft          :      0.07s CPU      0.14s WALL (     169 calls)
     ffts         :      0.00s CPU      0.01s WALL (      13 calls)
     fftw         :     65.14s CPU     66.13s WALL (  596092 calls)
 
     Parallel routines
 
     PWSCF        :   2m15.14s CPU   2m17.53s WALL

 
   This run was terminated on:  19:31:57  15Nov2023            

=------------------------------------------------------------------------------=
   JOB DONE.
=------------------------------------------------------------------------------=
