MPI startup(): Warning: I_MPI_PMI_LIBRARY will be ignored since the hydra process manager was found
MPI startup(): Warning: I_MPI_PMI_LIBRARY will be ignored since the hydra process manager was found
MPI startup(): Warning: I_MPI_PMI_LIBRARY will be ignored since the hydra process manager was found
MPI startup(): Warning: I_MPI_PMI_LIBRARY will be ignored since the hydra process manager was found
MPI startup(): Warning: I_MPI_PMI_LIBRARY will be ignored since the hydra process manager was found
MPI startup(): Warning: I_MPI_PMI_LIBRARY will be ignored since the hydra process manager was found
MPI startup(): Warning: I_MPI_PMI_LIBRARY will be ignored since the hydra process manager was found
MPI startup(): Warning: I_MPI_PMI_LIBRARY will be ignored since the hydra process manager was found
MPI startup(): Warning: I_MPI_PMI_LIBRARY will be ignored since the hydra process manager was found
MPI startup(): Warning: I_MPI_PMI_LIBRARY will be ignored since the hydra process manager was found
MPI startup(): Warning: I_MPI_PMI_LIBRARY will be ignored since the hydra process manager was found
MPI startup(): Warning: I_MPI_PMI_LIBRARY will be ignored since the hydra process manager was found

     Program PWSCF v.7.0 starts on 16Nov2023 at 14:10:38 

     This program is part of the open-source Quantum ESPRESSO suite
     for quantum simulation of materials; please cite
         "P. Giannozzi et al., J. Phys.:Condens. Matter 21 395502 (2009);
         "P. Giannozzi et al., J. Phys.:Condens. Matter 29 465901 (2017);
         "P. Giannozzi et al., J. Chem. Phys. 152 154105 (2020);
          URL http://www.quantum-espresso.org", 
     in publications or presentations arising from this work. More details at
     http://www.quantum-espresso.org/quote

     Parallel version (MPI), running on    12 processors

     MPI processes distributed on     1 nodes
     K-points division:     npool     =       4
     R & G space division:  proc/nbgrp/npool/nimage =       3
     194440 MiB available memory on the printing compute node when the environment starts
 
     Waiting for input...
     Reading input from standard input

     Current dimensions of program PWSCF are:
     Max number of different atomic species (ntypx) = 10
     Max number of k-points (npk) =  40000
     Max angular momentum in pseudopotentials (lmaxx) =  4
     file Au.UPF: wavefunction(s)  6S 5D renormalized
     Found identity + ( -0.5000 -0.5000  0.0000) symmetry
     This is a supercell, fractional translations are disabled

     Subspace diagonalization in iterative solution of the eigenvalue problem:
     a serial algorithm will be used

 
     Parallelization info
     --------------------
     sticks:   dense  smooth     PW     G-vecs:    dense   smooth      PW
     Min         456     456    134                12832    12832    2014
     Max         457     457    136                12833    12833    2015
     Sum        1369    1369    405                38497    38497    6043
 
     Using Slab Decomposition
 


     bravais-lattice index     =            0
     lattice parameter (alat)  =       8.5000  a.u.
     unit-cell volume          =     614.1250 (a.u.)^3
     number of atoms/cell      =            4
     number of atomic types    =            1
     number of electrons       =        44.00
     number of Kohn-Sham states=           26
     kinetic-energy cutoff     =      60.0000  Ry
     charge density cutoff     =     240.0000  Ry
     scf convergence threshold =      1.0E-09
     mixing beta               =       0.7000
     number of iterations used =            8  plain     mixing
     Exchange-correlation= SLA  PW   PBX  PBC
                           (   1   4   3   4   0   0   0)

     celldm(1)=   8.500000  celldm(2)=   0.000000  celldm(3)=   0.000000
     celldm(4)=   0.000000  celldm(5)=   0.000000  celldm(6)=   0.000000

     crystal axes: (cart. coord. in units of alat)
               a(1) = (   1.000000   0.000000   0.000000 )  
               a(2) = (   0.000000   1.000000   0.000000 )  
               a(3) = (   0.000000   0.000000   1.000000 )  

     reciprocal axes: (cart. coord. in units 2 pi/alat)
               b(1) = (  1.000000  0.000000  0.000000 )  
               b(2) = (  0.000000  1.000000  0.000000 )  
               b(3) = (  0.000000  0.000000  1.000000 )  


     PseudoPot. # 1 for Au read from file:
     ./Au.UPF
     MD5 check sum: 4db85c736373c707a97ce4c36c2a9d23
     Pseudo is Projector augmented-wave + core cor, Zval = 11.0
     Generated using &quot;atomic&quot; code by A. Dal Corso  v.6.3
     Shape of augmentation charge: PSQ
     Using radial grid of 1279 points,  6 beta functions with: 
                l(1) =   0
                l(2) =   0
                l(3) =   1
                l(4) =   1
                l(5) =   2
                l(6) =   2
     Q(r) pseudized with 0 coefficients 


     atomic species   valence    mass     pseudopotential
        Au            11.00   196.96657     Au( 1.00)

     No symmetry found



   Cartesian axes

     site n.     atom                  positions (alat units)
         1           Au  tau(   1) = (   0.0000000   0.0000000   0.0000000  )
         2           Au  tau(   2) = (   0.5000000   0.5000000   0.0000000  )
         3           Au  tau(   3) = (   0.5000000   0.0000000   0.5000000  )
         4           Au  tau(   4) = (   0.0000000   0.5000000   0.5000000  )

     number of k points=   868  Gaussian smearing, width (Ry)=  0.0200

     Number of k-points >= 100: set verbosity='high' to print them.

     Dense  grid:    38497 G-vectors     FFT dimensions: (  45,  45,  45)

     Estimated max dynamical RAM per process >     159.24 MB

     Estimated total dynamical RAM >       1.84 GB

     Initial potential from superposition of free atoms

     starting charge      43.9996, renormalised to      44.0000
     Starting wfcs are   36 randomized atomic wfcs
     Checking if some PAW data can be deallocated... 

     total cpu time spent up to now is        5.5 secs

     Self-consistent Calculation

     iteration #  1     ecut=    60.00 Ry     beta= 0.70
     Davidson diagonalization with overlap
     ethr =  1.00E-02,  avg # of iterations =  2.6

     Threshold (ethr) on eigenvalues was too large:
     Diagonalizing with lowered threshold

     Davidson diagonalization with overlap
     ethr =  3.02E-04,  avg # of iterations =  3.8

     total cpu time spent up to now is       30.0 secs

     total energy              =   -3100.39962706 Ry
     estimated scf accuracy    <       0.17403160 Ry

     iteration #  2     ecut=    60.00 Ry     beta= 0.70
     Davidson diagonalization with overlap
     ethr =  3.96E-04,  avg # of iterations =  2.5

     total cpu time spent up to now is       43.0 secs

     total energy              =   -3100.46095749 Ry
     estimated scf accuracy    <       0.03268760 Ry

     iteration #  3     ecut=    60.00 Ry     beta= 0.70
     Davidson diagonalization with overlap
     ethr =  7.43E-05,  avg # of iterations =  2.4

     total cpu time spent up to now is       54.6 secs

     total energy              =   -3100.46573279 Ry
     estimated scf accuracy    <       0.00195619 Ry

     iteration #  4     ecut=    60.00 Ry     beta= 0.70
     Davidson diagonalization with overlap
     c_bands:  1 eigenvalues not converged
     c_bands:  1 eigenvalues not converged
     c_bands:  1 eigenvalues not converged
     c_bands:  1 eigenvalues not converged
     c_bands:  1 eigenvalues not converged
     ethr =  4.45E-06,  avg # of iterations =  6.7

     total cpu time spent up to now is       76.3 secs

     total energy              =   -3100.46831779 Ry
     estimated scf accuracy    <       0.00189993 Ry

     iteration #  5     ecut=    60.00 Ry     beta= 0.70
     Davidson diagonalization with overlap
     ethr =  4.32E-06,  avg # of iterations =  2.0

     total cpu time spent up to now is       86.6 secs

     total energy              =   -3100.46742496 Ry
     estimated scf accuracy    <       0.00165852 Ry

     iteration #  6     ecut=    60.00 Ry     beta= 0.70
     Davidson diagonalization with overlap
     ethr =  3.77E-06,  avg # of iterations =  2.6

     total cpu time spent up to now is       99.7 secs

     total energy              =   -3100.46805108 Ry
     estimated scf accuracy    <       0.00007541 Ry

     iteration #  7     ecut=    60.00 Ry     beta= 0.70
     Davidson diagonalization with overlap
     ethr =  1.71E-07,  avg # of iterations =  6.2

     total cpu time spent up to now is      120.9 secs

     total energy              =   -3100.46812756 Ry
     estimated scf accuracy    <       0.00019261 Ry

     iteration #  8     ecut=    60.00 Ry     beta= 0.70
     Davidson diagonalization with overlap
     ethr =  1.71E-07,  avg # of iterations =  1.6

     total cpu time spent up to now is      130.8 secs

     total energy              =   -3100.46812961 Ry
     estimated scf accuracy    <       0.00020227 Ry

     iteration #  9     ecut=    60.00 Ry     beta= 0.70
     Davidson diagonalization with overlap
     ethr =  1.71E-07,  avg # of iterations =  1.0

     total cpu time spent up to now is      140.0 secs

     total energy              =   -3100.46803462 Ry
     estimated scf accuracy    <       0.00020438 Ry

     iteration # 10     ecut=    60.00 Ry     beta= 0.70
     Davidson diagonalization with overlap
     ethr =  1.71E-07,  avg # of iterations =  2.0

     total cpu time spent up to now is      152.2 secs

     total energy              =   -3100.46815552 Ry
     estimated scf accuracy    <       0.00002848 Ry

     iteration # 11     ecut=    60.00 Ry     beta= 0.70
     Davidson diagonalization with overlap
     ethr =  6.47E-08,  avg # of iterations = 10.3

     total cpu time spent up to now is      186.2 secs

     total energy              =   -3100.46843912 Ry
     estimated scf accuracy    <       0.00129803 Ry

     iteration # 12     ecut=    60.00 Ry     beta= 0.70
     Davidson diagonalization with overlap
     ethr =  6.47E-08,  avg # of iterations =  1.9

     total cpu time spent up to now is      196.3 secs

     total energy              =   -3100.46786893 Ry
     estimated scf accuracy    <       0.00107000 Ry

     iteration # 13     ecut=    60.00 Ry     beta= 0.70
     Davidson diagonalization with overlap
     ethr =  6.47E-08,  avg # of iterations =  7.9

     total cpu time spent up to now is      221.2 secs

     total energy              =   -3100.46803945 Ry
     estimated scf accuracy    <       0.00002161 Ry

     iteration # 14     ecut=    60.00 Ry     beta= 0.70
     Davidson diagonalization with overlap
     ethr =  4.91E-08,  avg # of iterations =  4.7

     total cpu time spent up to now is      238.1 secs

     total energy              =   -3100.46805123 Ry
     estimated scf accuracy    <       0.00000057 Ry

     iteration # 15     ecut=    60.00 Ry     beta= 0.70
     Davidson diagonalization with overlap
     ethr =  1.30E-09,  avg # of iterations =  7.6

     total cpu time spent up to now is      266.3 secs

     total energy              =   -3100.46805239 Ry
     estimated scf accuracy    <       0.00000064 Ry

     iteration # 16     ecut=    60.00 Ry     beta= 0.70
     Davidson diagonalization with overlap
     ethr =  1.30E-09,  avg # of iterations =  2.2

     total cpu time spent up to now is      278.4 secs

     total energy              =   -3100.46805255 Ry
     estimated scf accuracy    <          2.0E-09 Ry

     iteration # 17     ecut=    60.00 Ry     beta= 0.70
     Davidson diagonalization with overlap
     ethr =  4.50E-12,  avg # of iterations = 12.7

     total cpu time spent up to now is      320.6 secs

     total energy              =   -3100.46805257 Ry
     estimated scf accuracy    <       0.00000002 Ry

     iteration # 18     ecut=    60.00 Ry     beta= 0.70
     Davidson diagonalization with overlap
     ethr =  4.50E-12,  avg # of iterations =  3.1

     total cpu time spent up to now is      335.2 secs

     total energy              =   -3100.46805257 Ry
     estimated scf accuracy    <          3.1E-09 Ry

     iteration # 19     ecut=    60.00 Ry     beta= 0.70
     Davidson diagonalization with overlap
     ethr =  4.50E-12,  avg # of iterations =  4.3

     total cpu time spent up to now is      351.9 secs

     End of self-consistent calculation

     Number of k-points >= 100: set verbosity='high' to print the bands.

     the Fermi energy is    10.2100 ev

!    total energy              =   -3100.46805257 Ry

     total all-electron energy =   -152095.852417 Ry
     estimated scf accuracy    <          3.2E-10 Ry
     smearing contrib. (-TS)   =      -0.00363192 Ry
     internal energy E=F+TS    =   -3100.46442064 Ry

     The total energy is F=E-TS. E is the sum of the following terms:
     one-electron contribution =      16.55389078 Ry
     hartree contribution      =      41.79734895 Ry
     xc contribution           =    -127.78004376 Ry
     ewald contribution        =    -261.06744048 Ry
     one-center paw contrib.   =   -2769.96817614 Ry

     convergence has been achieved in  19 iterations

     Forces acting on atoms (cartesian axes, Ry/au):

     atom    1 type  1   force =    -0.00000020   -0.00000135    0.00000056
     atom    2 type  1   force =     0.00000022    0.00000138    0.00000048
     atom    3 type  1   force =     0.00000025   -0.00000149   -0.00000063
     atom    4 type  1   force =    -0.00000028    0.00000145   -0.00000041

     Total force =     0.000003     Total SCF correction =     0.000001
     SCF correction compared to forces is large: reduce conv_thr to get better values


     Computing stress (Cartesian axis) and pressure

          total   stress  (Ry/bohr**3)                   (kbar)     P=     -158.58
  -0.00107800   0.00000000  -0.00000000         -158.58        0.00       -0.00
   0.00000000  -0.00107800  -0.00000000            0.00     -158.58       -0.00
  -0.00000000  -0.00000000  -0.00107800           -0.00       -0.00     -158.58


     Writing all to output data dir ./gold.save/
 
     init_run     :      4.85s CPU      5.00s WALL (       1 calls)
     electrons    :    342.99s CPU    346.44s WALL (       1 calls)
     forces       :      0.78s CPU      0.79s WALL (       1 calls)
     stress       :      2.73s CPU      2.74s WALL (       1 calls)

     Called by init_run:
     wfcinit      :      4.68s CPU      4.78s WALL (       1 calls)
     potinit      :      0.06s CPU      0.08s WALL (       1 calls)
     hinit0       :      0.08s CPU      0.09s WALL (       1 calls)

     Called by electrons:
     c_bands      :    310.59s CPU    313.56s WALL (      20 calls)
     sum_band     :     31.44s CPU     31.85s WALL (      20 calls)
     v_of_rho     :      0.17s CPU      0.24s WALL (      20 calls)
     newd         :      0.07s CPU      0.08s WALL (      20 calls)
     PAW_pot      :      0.70s CPU      0.71s WALL (      20 calls)
     mix_rho      :      0.03s CPU      0.03s WALL (      20 calls)

     Called by c_bands:
     init_us_2    :      2.59s CPU      2.65s WALL (    9331 calls)
     init_us_2:cp :      2.57s CPU      2.64s WALL (    9331 calls)
     cegterg      :    275.79s CPU    278.40s WALL (    4340 calls)

     Called by *egterg:
     cdiaghg      :     12.06s CPU     12.14s WALL (   23288 calls)
     h_psi        :    221.19s CPU    223.53s WALL (   23722 calls)
     s_psi        :      9.41s CPU      9.49s WALL (   23722 calls)
     g_psi        :      1.30s CPU      1.31s WALL (   19165 calls)

     Called by h_psi:
     h_psi:calbec :      9.99s CPU     10.09s WALL (   23722 calls)
     vloc_psi     :    201.11s CPU    203.27s WALL (   23722 calls)
     add_vuspsi   :      9.51s CPU      9.59s WALL (   23722 calls)

     General routines
     calbec       :     12.92s CPU     13.06s WALL (   29147 calls)
     fft          :      0.11s CPU      0.21s WALL (     246 calls)
     ffts         :      0.01s CPU      0.02s WALL (      20 calls)
     fftw         :    213.69s CPU    215.97s WALL (  996480 calls)
 
     Parallel routines
 
     PWSCF        :   5m52.22s CPU   5m56.80s WALL

 
   This run was terminated on:  14:16:35  16Nov2023            

=------------------------------------------------------------------------------=
   JOB DONE.
=------------------------------------------------------------------------------=
