MPI startup(): Warning: I_MPI_PMI_LIBRARY will be ignored since the hydra process manager was found
MPI startup(): Warning: I_MPI_PMI_LIBRARY will be ignored since the hydra process manager was found
MPI startup(): Warning: I_MPI_PMI_LIBRARY will be ignored since the hydra process manager was found
MPI startup(): Warning: I_MPI_PMI_LIBRARY will be ignored since the hydra process manager was found
MPI startup(): Warning: I_MPI_PMI_LIBRARY will be ignored since the hydra process manager was found
MPI startup(): Warning: I_MPI_PMI_LIBRARY will be ignored since the hydra process manager was found
MPI startup(): Warning: I_MPI_PMI_LIBRARY will be ignored since the hydra process manager was found
MPI startup(): Warning: I_MPI_PMI_LIBRARY will be ignored since the hydra process manager was found
MPI startup(): Warning: I_MPI_PMI_LIBRARY will be ignored since the hydra process manager was found
MPI startup(): Warning: I_MPI_PMI_LIBRARY will be ignored since the hydra process manager was found
MPI startup(): Warning: I_MPI_PMI_LIBRARY will be ignored since the hydra process manager was found
MPI startup(): Warning: I_MPI_PMI_LIBRARY will be ignored since the hydra process manager was found

     Program PWSCF v.7.0 starts on 15Nov2023 at 19:41:44 

     This program is part of the open-source Quantum ESPRESSO suite
     for quantum simulation of materials; please cite
         "P. Giannozzi et al., J. Phys.:Condens. Matter 21 395502 (2009);
         "P. Giannozzi et al., J. Phys.:Condens. Matter 29 465901 (2017);
         "P. Giannozzi et al., J. Chem. Phys. 152 154105 (2020);
          URL http://www.quantum-espresso.org", 
     in publications or presentations arising from this work. More details at
     http://www.quantum-espresso.org/quote

     Parallel version (MPI), running on    12 processors

     MPI processes distributed on     1 nodes
     K-points division:     npool     =       4
     R & G space division:  proc/nbgrp/npool/nimage =       3
     110959 MiB available memory on the printing compute node when the environment starts
 
     Waiting for input...
     Reading input from standard input

     Current dimensions of program PWSCF are:
     Max number of different atomic species (ntypx) = 10
     Max number of k-points (npk) =  40000
     Max angular momentum in pseudopotentials (lmaxx) =  4
     file Au.UPF: wavefunction(s)  6S 5D renormalized
     Found identity + ( -0.5000 -0.5000  0.0000) symmetry
     This is a supercell, fractional translations are disabled

     Subspace diagonalization in iterative solution of the eigenvalue problem:
     a serial algorithm will be used

 
     Parallelization info
     --------------------
     sticks:   dense  smooth     PW     G-vecs:    dense   smooth      PW
     Min         361     361    108                 8841     8841    1460
     Max         362     362    109                 8844     8844    1463
     Sum        1085    1085    325                26529    26529    4385
 
     Using Slab Decomposition
 


     bravais-lattice index     =            0
     lattice parameter (alat)  =       7.5000  a.u.
     unit-cell volume          =     421.8750 (a.u.)^3
     number of atoms/cell      =            4
     number of atomic types    =            1
     number of electrons       =        44.00
     number of Kohn-Sham states=           26
     kinetic-energy cutoff     =      60.0000  Ry
     charge density cutoff     =     240.0000  Ry
     scf convergence threshold =      1.0E-09
     mixing beta               =       0.7000
     number of iterations used =            8  plain     mixing
     Exchange-correlation= SLA  PW   PBX  PBC
                           (   1   4   3   4   0   0   0)

     celldm(1)=   7.500000  celldm(2)=   0.000000  celldm(3)=   0.000000
     celldm(4)=   0.000000  celldm(5)=   0.000000  celldm(6)=   0.000000

     crystal axes: (cart. coord. in units of alat)
               a(1) = (   1.000000   0.000000   0.000000 )  
               a(2) = (   0.000000   1.000000   0.000000 )  
               a(3) = (   0.000000   0.000000   1.000000 )  

     reciprocal axes: (cart. coord. in units 2 pi/alat)
               b(1) = (  1.000000  0.000000  0.000000 )  
               b(2) = (  0.000000  1.000000  0.000000 )  
               b(3) = (  0.000000  0.000000  1.000000 )  


     PseudoPot. # 1 for Au read from file:
     ./Au.UPF
     MD5 check sum: 4db85c736373c707a97ce4c36c2a9d23
     Pseudo is Projector augmented-wave + core cor, Zval = 11.0
     Generated using &quot;atomic&quot; code by A. Dal Corso  v.6.3
     Shape of augmentation charge: PSQ
     Using radial grid of 1279 points,  6 beta functions with: 
                l(1) =   0
                l(2) =   0
                l(3) =   1
                l(4) =   1
                l(5) =   2
                l(6) =   2
     Q(r) pseudized with 0 coefficients 


     atomic species   valence    mass     pseudopotential
        Au            11.00   196.96657     Au( 1.00)

     No symmetry found



   Cartesian axes

     site n.     atom                  positions (alat units)
         1           Au  tau(   1) = (   0.0000000   0.0000000   0.0000000  )
         2           Au  tau(   2) = (   0.5000000   0.5000000   0.0000000  )
         3           Au  tau(   3) = (   0.5000000   0.0000000   0.5000000  )
         4           Au  tau(   4) = (   0.0000000   0.5000000   0.5000000  )

     number of k points=   868  Gaussian smearing, width (Ry)=  0.0200

     Number of k-points >= 100: set verbosity='high' to print them.

     Dense  grid:    26529 G-vectors     FFT dimensions: (  40,  40,  40)

     Estimated max dynamical RAM per process >     109.90 MB

     Estimated total dynamical RAM >       1.27 GB

     Initial potential from superposition of free atoms

     starting charge      43.9996, renormalised to      44.0000
     Starting wfcs are   36 randomized atomic wfcs
     Checking if some PAW data can be deallocated... 

     total cpu time spent up to now is        4.3 secs

     Self-consistent Calculation

     iteration #  1     ecut=    60.00 Ry     beta= 0.70
     Davidson diagonalization with overlap
     ethr =  1.00E-02,  avg # of iterations =  2.6

     Threshold (ethr) on eigenvalues was too large:
     Diagonalizing with lowered threshold

     Davidson diagonalization with overlap
     ethr =  2.32E-04,  avg # of iterations =  5.7

     total cpu time spent up to now is       27.9 secs

     total energy              =   -3100.44443672 Ry
     estimated scf accuracy    <       0.17189944 Ry

     iteration #  2     ecut=    60.00 Ry     beta= 0.70
     Davidson diagonalization with overlap
     ethr =  3.91E-04,  avg # of iterations =  2.8

     total cpu time spent up to now is       38.3 secs

     total energy              =   -3100.49652071 Ry
     estimated scf accuracy    <       0.01166638 Ry

     iteration #  3     ecut=    60.00 Ry     beta= 0.70
     Davidson diagonalization with overlap
     ethr =  2.65E-05,  avg # of iterations =  5.1

     total cpu time spent up to now is       51.0 secs

     total energy              =   -3100.50003209 Ry
     estimated scf accuracy    <       0.00155510 Ry

     iteration #  4     ecut=    60.00 Ry     beta= 0.70
     Davidson diagonalization with overlap
     c_bands:  2 eigenvalues not converged
     c_bands:  1 eigenvalues not converged
     c_bands:  1 eigenvalues not converged
     c_bands:  1 eigenvalues not converged
     c_bands:  1 eigenvalues not converged
     c_bands:  1 eigenvalues not converged
     c_bands:  1 eigenvalues not converged
     ethr =  3.53E-06,  avg # of iterations =  5.1

     total cpu time spent up to now is       64.4 secs

     total energy              =   -3100.50085612 Ry
     estimated scf accuracy    <       0.00134682 Ry

     iteration #  5     ecut=    60.00 Ry     beta= 0.70
     Davidson diagonalization with overlap
     ethr =  3.06E-06,  avg # of iterations =  2.1

     total cpu time spent up to now is       72.7 secs

     total energy              =   -3100.50072065 Ry
     estimated scf accuracy    <       0.00054290 Ry

     iteration #  6     ecut=    60.00 Ry     beta= 0.70
     Davidson diagonalization with overlap
     ethr =  1.23E-06,  avg # of iterations =  3.9

     total cpu time spent up to now is       84.0 secs

     total energy              =   -3100.50093435 Ry
     estimated scf accuracy    <       0.00001307 Ry

     iteration #  7     ecut=    60.00 Ry     beta= 0.70
     Davidson diagonalization with overlap
     ethr =  2.97E-08,  avg # of iterations =  7.3

     total cpu time spent up to now is      105.3 secs

     total energy              =   -3100.50095671 Ry
     estimated scf accuracy    <       0.00002363 Ry

     iteration #  8     ecut=    60.00 Ry     beta= 0.70
     Davidson diagonalization with overlap
     ethr =  2.97E-08,  avg # of iterations =  1.1

     total cpu time spent up to now is      112.6 secs

     total energy              =   -3100.50094990 Ry
     estimated scf accuracy    <       0.00001444 Ry

     iteration #  9     ecut=    60.00 Ry     beta= 0.70
     Davidson diagonalization with overlap
     ethr =  2.97E-08,  avg # of iterations =  2.0

     total cpu time spent up to now is      121.1 secs

     total energy              =   -3100.50095024 Ry
     estimated scf accuracy    <       0.00000174 Ry

     iteration # 10     ecut=    60.00 Ry     beta= 0.70
     Davidson diagonalization with overlap
     ethr =  3.95E-09,  avg # of iterations =  6.0

     total cpu time spent up to now is      136.4 secs

     total energy              =   -3100.50095189 Ry
     estimated scf accuracy    <       0.00000082 Ry

     iteration # 11     ecut=    60.00 Ry     beta= 0.70
     Davidson diagonalization with overlap
     ethr =  1.87E-09,  avg # of iterations =  1.6

     total cpu time spent up to now is      144.2 secs

     total energy              =   -3100.50095167 Ry
     estimated scf accuracy    <       0.00000033 Ry

     iteration # 12     ecut=    60.00 Ry     beta= 0.70
     Davidson diagonalization with overlap
     ethr =  7.52E-10,  avg # of iterations =  3.5

     total cpu time spent up to now is      155.2 secs

     total energy              =   -3100.50095183 Ry
     estimated scf accuracy    <       0.00000002 Ry

     iteration # 13     ecut=    60.00 Ry     beta= 0.70
     Davidson diagonalization with overlap
     ethr =  5.30E-11,  avg # of iterations =  5.8

     total cpu time spent up to now is      171.0 secs

     total energy              =   -3100.50095181 Ry
     estimated scf accuracy    <       0.00000007 Ry

     iteration # 14     ecut=    60.00 Ry     beta= 0.70
     Davidson diagonalization with overlap
     ethr =  5.30E-11,  avg # of iterations =  3.2

     total cpu time spent up to now is      182.3 secs

     End of self-consistent calculation

     Number of k-points >= 100: set verbosity='high' to print the bands.

     the Fermi energy is    18.0151 ev

!    total energy              =   -3100.50095183 Ry

     total all-electron energy =   -152095.885316 Ry
     estimated scf accuracy    <          3.9E-10 Ry
     smearing contrib. (-TS)   =      -0.00267587 Ry
     internal energy E=F+TS    =   -3100.49827596 Ry

     The total energy is F=E-TS. E is the sum of the following terms:
     one-electron contribution =      66.68031266 Ry
     hartree contribution      =      27.66178348 Ry
     xc contribution           =    -128.79800385 Ry
     ewald contribution        =    -295.87643254 Ry
     one-center paw contrib.   =   -2770.16593570 Ry

     convergence has been achieved in  14 iterations

     Forces acting on atoms (cartesian axes, Ry/au):

     atom    1 type  1   force =    -0.00000047    0.00000147    0.00000111
     atom    2 type  1   force =     0.00000054   -0.00000107    0.00000082
     atom    3 type  1   force =     0.00000063    0.00000113   -0.00000111
     atom    4 type  1   force =    -0.00000070   -0.00000152   -0.00000082

     Total force =     0.000003     Total SCF correction =     0.000008
     SCF correction compared to forces is large: reduce conv_thr to get better values


     Computing stress (Cartesian axis) and pressure

          total   stress  (Ry/bohr**3)                   (kbar)     P=      306.97
   0.00208676  -0.00000000   0.00000000          306.97       -0.00        0.00
  -0.00000000   0.00208676   0.00000000           -0.00      306.97        0.00
   0.00000000   0.00000000   0.00208676            0.00        0.00      306.97


     Writing all to output data dir ./gold.save/
 
     init_run     :      3.80s CPU      3.95s WALL (       1 calls)
     electrons    :    175.62s CPU    177.98s WALL (       1 calls)
     forces       :      0.65s CPU      0.67s WALL (       1 calls)
     stress       :      2.26s CPU      2.27s WALL (       1 calls)

     Called by init_run:
     wfcinit      :      3.50s CPU      3.60s WALL (       1 calls)
     potinit      :      0.07s CPU      0.09s WALL (       1 calls)
     hinit0       :      0.08s CPU      0.09s WALL (       1 calls)

     Called by electrons:
     c_bands      :    157.07s CPU    159.10s WALL (      15 calls)
     sum_band     :     17.77s CPU     18.03s WALL (      15 calls)
     v_of_rho     :      0.10s CPU      0.17s WALL (      15 calls)
     newd         :      0.05s CPU      0.06s WALL (      15 calls)
     PAW_pot      :      0.68s CPU      0.68s WALL (      15 calls)
     mix_rho      :      0.02s CPU      0.02s WALL (      15 calls)

     Called by c_bands:
     init_us_2    :      1.73s CPU      1.76s WALL (    7161 calls)
     init_us_2:cp :      1.72s CPU      1.75s WALL (    7161 calls)
     cegterg      :    133.55s CPU    135.36s WALL (    3255 calls)

     Called by *egterg:
     cdiaghg      :      9.66s CPU      9.74s WALL (   15857 calls)
     h_psi        :    100.76s CPU    102.41s WALL (   16291 calls)
     s_psi        :      5.80s CPU      5.85s WALL (   16291 calls)
     g_psi        :      0.65s CPU      0.65s WALL (   12819 calls)

     Called by h_psi:
     h_psi:calbec :      6.17s CPU      6.26s WALL (   16291 calls)
     vloc_psi     :     88.16s CPU     89.65s WALL (   16291 calls)
     add_vuspsi   :      6.03s CPU      6.10s WALL (   16291 calls)

     General routines
     calbec       :      8.23s CPU      8.36s WALL (   20631 calls)
     fft          :      0.07s CPU      0.17s WALL (     191 calls)
     ffts         :      0.01s CPU      0.01s WALL (      15 calls)
     fftw         :     93.81s CPU     95.36s WALL (  650724 calls)
 
     Parallel routines
 
     PWSCF        :   3m 3.41s CPU   3m 6.60s WALL

 
   This run was terminated on:  19:44:51  15Nov2023            

=------------------------------------------------------------------------------=
   JOB DONE.
=------------------------------------------------------------------------------=
